16
 energy: -669.644492046375 gnorm: 0.020385504084 xtb: 6.7.1 (edcfbbe)
C           -2.49077137870373       -0.19214399998514       -1.02438777385393
S           -1.85377547112146        0.23229231410293        0.62850959087851
C           -0.10823389684796        0.07349022803257        0.25786436611427
C            0.59272025916265        1.16735516801729       -0.22149319969815
C            1.93619821105798        1.03577854475898       -0.52670554193340
C            2.57254282383996       -0.18153380468044       -0.34894079775462
C            1.86729772152745       -1.26961666936260        0.13786325826109
C            0.52358363523201       -1.14445924410714        0.44482860579712
H           -2.11521243603731        0.52191016243127       -1.75148568937613
H           -3.57240110718303       -0.13479937115973       -0.96446122882738
H           -2.18087856256641       -1.20048538623197       -1.28322408536863
H            0.08618010933819        2.11217401653596       -0.35013169105515
H            2.48672694020193        1.88596076173572       -0.90164725959954
H            3.62122654530466       -0.28149799002474       -0.58701993286012
H            2.36399710404755       -2.21790749128281        0.28104255572454
H           -0.03663096311623       -1.98321345157881        0.82999628186779
16
 energy: -669.645370324275 gnorm: 0.005351280869 xtb: 6.7.1 (edcfbbe)
C           -2.50428114112574       -0.19153106870697       -1.02318299288460
S           -1.86027547759295        0.23562246469130        0.63779105013009
C           -0.11153691111170        0.07688666870927        0.26980759462626
C            0.59771221368681        1.17269626000868       -0.21607330124204
C            1.94616122990001        1.03968820591043       -0.52692333751131
C            2.58590536791330       -0.18216170491051       -0.34952320897618
C            1.87707795136186       -1.27356020115000        0.14032794074578
C            0.52821148466414       -1.14667580406340        0.45229191751732
H           -2.13779398562140        0.51881370975157       -1.76648550941575
H           -3.59259116378723       -0.13709888056405       -0.97445546819547
H           -2.20263073051560       -1.20385485405689       -1.29826940666968
H            0.08941134132055        2.12081127181679       -0.34798223893552
H            2.49820087366696        1.89300337475489       -0.90476406833650
H            3.63794441194320       -0.28312264573170       -0.59048288278136
H            2.37509835673229       -2.22609747773115        0.28272491212111
H           -0.03404374360359       -1.99011605989048        0.83580737225396
16
 energy: -669.645464904702 gnorm: 0.001659105754 xtb: 6.7.1 (edcfbbe)
C           -2.51802145125524       -0.19199211014944       -1.02654444024124
S           -1.86184201984443        0.23487922489710        0.63416682374349
C           -0.11192721921835        0.07612494160866        0.26715480010611
C            0.60275709449468        1.17375779630509       -0.21531241663137
C            1.95345460519984        1.04136933490794       -0.52424535950463
C            2.59443588397170       -0.18187054596939       -0.34731487082453
C            1.88421633508897       -1.27401647087169        0.14369668415963
C            0.53302930830878       -1.14754870946235        0.45350951152698
H           -2.15622353964782        0.51920355519431       -1.77393792439860
H           -3.60808081071466       -0.13611325946888       -0.97129424359091
H           -2.22037448841291       -1.20647834868372       -1.30491215009507
H            0.09472856419547        2.12365376870005       -0.34671965383828
H            2.50562264861211        1.89594720668724       -0.90285740707592
H            3.64753007292660       -0.28328039765729       -0.58937216768215
H            2.38231797791457       -2.22797094420593        0.28644386865074
H           -0.02905235645585       -1.99236236176022        0.83814834500336
16
 energy: -669.645496643074 gnorm: 0.001628211586 xtb: 6.7.1 (edcfbbe)
C           -2.53193832795936       -0.19227062771622       -1.02950480147998
S           -1.85986282777863        0.23326922329407        0.62843773471548
C           -0.11065386981925        0.07358962422248        0.25827111835545
C            0.60768297852206        1.17243582111664       -0.21930458703399
C            1.96021423165592        1.04180746196893       -0.52187537733989
C            2.60226603086345       -0.18100562469904       -0.34307005756015
C            1.89084920059465       -1.27355463421705        0.14624212676348
C            0.53777644761365       -1.14879296455369        0.44953181445961
H           -2.17781938665560        0.51951197201051       -1.78018077309868
H           -3.62159591520914       -0.13301549357389       -0.95948127799496
H           -2.24108493145252       -1.20800050281961       -1.31087608500770
H            0.10068604139577        2.12338673496014       -0.34956398970709
H            2.51321443653625        1.89817542185056       -0.89591110871599
H            3.65650397113441       -0.28159530181100       -0.58172416786568
H            2.38967672822590       -2.22665206647942        0.29402212858466
H           -0.02334357548974       -1.99398711972985        0.83559808067614
16
 energy: -669.645517639094 gnorm: 0.001104191351 xtb: 6.7.1 (edcfbbe)
C           -2.54370763481262       -0.19184555877253       -1.02996092237260
S           -1.85544773303593        0.23136116156992        0.62277409960041
C           -0.10759203182214        0.07086157859411        0.24900627178609
C            0.61139764925317        1.17005910042104       -0.22550728385948
C            1.96538612258692        1.04153419708738       -0.52018336358753
C            2.60842023709908       -0.17961498565350       -0.33717942671615
C            1.89597815742495       -1.27280371633362        0.14783526824989
C            0.54146880453685       -1.15021725361066        0.44329330244216
H           -2.19654169696224        0.52006294066085       -1.78262598175248
H           -3.63186887437575       -0.12946357310466       -0.94585085767441
H           -2.25895525837769       -1.20778512299922       -1.31386188277738
H            0.10454775049180        2.12041007205850       -0.35788326515516
H            2.51919820158403        1.89911725455180       -0.88923206482386
H            3.66426811964761       -0.27809108625145       -0.56809062965348
H            2.39554433245373       -2.22432775521356        0.30069083602489
H           -0.01952434870833       -1.99595602701796        0.82738799855317
16
 energy: -669.645525793342 gnorm: 0.001085090314 xtb: 6.7.1 (edcfbbe)
C           -2.55135347329926       -0.19055577201015       -1.02723058775637
S           -1.85142817998591        0.23020804046142        0.62064533870579
C           -0.10602188914837        0.06765668049524        0.23839459818318
C            0.61304893452691        1.16744451283590       -0.23313485037314
C            1.96915780123190        1.04156760670843       -0.51895234981777
C            2.61367457725172       -0.17781017903501       -0.33003850404005
C            1.89987346965742       -1.27246779402931        0.14940082844800
C            0.54327250933634       -1.15220764557256        0.43588235543112
H           -2.21053958105587        0.52111763445770       -1.78271803139611
H           -3.63828315083446       -0.12607258926839       -0.93318220336610
H           -2.27221434758095       -1.20678534004033       -1.31495114833802
H            0.10582932641983        2.11688340794313       -0.36867893658206
H            2.52372429512782        1.89980054817533       -0.88510325924527
H            3.67167210507719       -0.27378333610664       -0.55211819168454
H            2.40022059736562       -2.22298815411773        0.30528019398899
H           -0.01806073173438       -1.99870690993452        0.81711792379892
16
 energy: -669.645527680054 gnorm: 0.000501424561 xtb: 6.7.1 (edcfbbe)
C           -2.55383161891959       -0.18988941626434       -1.02603927798253
S           -1.85076775086111        0.22950335251543        0.61956903865009
C           -0.10488651025409        0.06741713651114        0.23837857959993
C            0.61350538939292        1.16696404624120       -0.23488468116007
C            1.96993010167306        1.04143498069627       -0.51946232774303
C            2.61490461469814       -0.17734733099820       -0.32824322306848
C            1.90087822940644       -1.27272392551855        0.14923649437030
C            0.54396698324475       -1.15295224369732        0.43454550481590
H           -2.21319395998884        0.52203011163743       -1.78152720468568
H           -3.64068515068100       -0.12544990986976       -0.93159284205467
H           -2.27470412274998       -1.20604151205116       -1.31448069665995
H            0.10555439254580        2.11581992496576       -0.37253636634891
H            2.52464232795665        1.89975468912372       -0.88524516581940
H            3.67370582014158       -0.27220876726996       -0.54670572769731
H            2.40154412598818       -2.22300399625959        0.30570121808995
H           -0.01799044170747       -2.00000646650662        0.81390007295556
16
 energy: -669.645527680054 gnorm: 0.000501424561 xtb: 6.7.1 (edcfbbe)
C           -2.55383161891959       -0.18988941626434       -1.02603927798253
S           -1.85076775086111        0.22950335251543        0.61956903865009
C           -0.10488651025409        0.06741713651114        0.23837857959993
C            0.61350538939292        1.16696404624120       -0.23488468116007
C            1.96993010167306        1.04143498069627       -0.51946232774303
C            2.61490461469814       -0.17734733099820       -0.32824322306848
C            1.90087822940644       -1.27272392551855        0.14923649437030
C            0.54396698324475       -1.15295224369732        0.43454550481590
H           -2.21319395998884        0.52203011163743       -1.78152720468568
H           -3.64068515068100       -0.12544990986976       -0.93159284205467
H           -2.27470412274998       -1.20604151205116       -1.31448069665995
H            0.10555439254580        2.11581992496576       -0.37253636634891
H            2.52464232795665        1.89975468912372       -0.88524516581940
H            3.67370582014158       -0.27220876726996       -0.54670572769731
H            2.40154412598818       -2.22300399625959        0.30570121808995
H           -0.01799044170747       -2.00000646650662        0.81390007295556
