
                                 *****************
                                 * O   R   C   A *
                                 *****************

                                            #,                                       
                                            ###                                      
                                            ####                                     
                                            #####                                    
                                            ######                                   
                                           ########,                                 
                                     ,,################,,,,,                         
                               ,,#################################,,                 
                          ,,##########################################,,             
                       ,#########################################, ''#####,          
                    ,#############################################,,   '####,        
                  ,##################################################,,,,####,       
                ,###########''''           ''''###############################       
              ,#####''   ,,,,##########,,,,          '''####'''          '####       
            ,##' ,,,,###########################,,,                        '##       
           ' ,,###''''                  '''############,,,                           
         ,,##''                                '''############,,,,        ,,,,,,###''
      ,#''                                            '''#######################'''  
     '                                                          ''''####''''         
             ,#######,   #######,   ,#######,      ##                                
            ,#'     '#,  ##    ##  ,#'     '#,    #''#        ,####,   ,####,        
            ##       ##  ##   ,#'  ##            #'  '#       #'       #'  '#        
            ##       ##  #######   ##           ,######,      #####,   #    #        
            '#,     ,#'  ##    ##  '#,     ,#' ,#      #,     #,   #   #,  ,#        
             '#######'   ##     ##  '#######'  #'      '#     '####' # '####'        



                #########################################################
                #                        -***-                          #
                #          Department of theory and spectroscopy        #
                #                                                       #
                #                      Frank Neese                      #
                #                                                       #
                #     Directorship, Architecture, Infrastructure        #
                #                    SHARK, DRIVERS                     #
                #        Core code/Algorithms in most modules           #
                #                                                       #
                #        Max Planck Institute fuer Kohlenforschung      #
                #                Kaiser Wilhelm Platz 1                 #
                #                 D-45470 Muelheim/Ruhr                 #
                #                      Germany                          #
                #                                                       #
                #                  All rights reserved                  #
                #                        -***-                          #
                #########################################################


                         Program Version 6.0.0  -   RELEASE  -


 With contributions from (in alphabetic order):
   Daniel Aravena         : Magnetic Suceptibility
   Michael Atanasov       : Ab Initio Ligand Field Theory (pilot matlab implementation)
   Alexander A. Auer      : GIAO ZORA, VPT2 properties, NMR spectrum
   Ute Becker             : All parallelization in ORCA, NUMFREQ, NUMCALC
   Giovanni Bistoni       : ED, misc. LED, open-shell LED, HFLD
   Martin Brehm           : Molecular dynamics
   Dmytro Bykov           : pre 5.0 version of the SCF Hessian
   Marcos Casanova-Páez   : Triplet and SCS-CIS(D). UHF-(DLPNO)-IP/EA/STEOM-CCSD. UHF-CVS-IP/STEOM-CCSD
   Vijay G. Chilkuri      : MRCI spin determinant printing, contributions to CSF-ICE
   Pauline Colinet        : FMM embedding
   Dipayan Datta          : RHF DLPNO-CCSD density
   Achintya Kumar Dutta   : EOM-CC, STEOM-CC
   Nicolas Foglia         : Exact transition moments, OPA infrastructure, MCD improvements
   Dmitry Ganyushin       : Spin-Orbit,Spin-Spin,Magnetic field MRCI
   Miquel Garcia          : C-PCM and meta-GGA Hessian, CCSD/C-PCM, Gaussian charge scheme
   Tiago L. C. Gouveia    : GS-ROHF, GS-ROCIS
   Yang Guo               : DLPNO-NEVPT2, F12-NEVPT2, CIM, IAO-localization
   Andreas Hansen         : Spin unrestricted coupled pair/coupled cluster methods
   Ingolf Harden          : AUTO-CI MPn and infrastructure 
   Benjamin Helmich-Paris : MC-RPA, TRAH-(SCF,CASSCF), AVAS, COSX integrals, SCF dyn. polar.
   Lee Huntington         : MR-EOM, pCC
   Robert Izsak           : Overlap fitted RIJCOSX, COSX-SCS-MP3, EOM
   Riya Kayal             : Wick's Theorem for AUTO-CI, AUTO-CI UHF-CCSDT
   Emily Kempfer          : AUTO-CI, RHF CISDT and CCSDT
   Christian Kollmar      : KDIIS, OOCD, Brueckner-CCSD(T), CCSD density, CASPT2, CASPT2-K, improved NEVPT2
   Axel Koslowski         : Symmetry handling
   Simone Kossmann        : Meta GGA functionals, TD-DFT gradient, OOMP2, (MP2 Hessian; deprecated post 5.0)
   Lucas Lang             : DCDCAS
   Marvin Lechner         : AUTO-CI (C++ implementation), FIC-MRCC
   Spencer Leger          : CASSCF response
   Dagmar Lenk            : GEPOL surface, SMD, ORCA-2-JSON
   Dimitrios Liakos       : Extrapolation schemes; Compound Job, initial MDCI parallelization
   Dimitrios Manganas     : Further ROCIS development; embedding schemes. LFT, Crystal Embedding
   Dimitrios Pantazis     : SARC Basis sets
   Anastasios Papadopoulos: AUTO-CI, single reference methods and gradients
   Taras Petrenko         : pre 6.0 DFT Hessian and TD-DFT gradient, (ASA, deprecated), ECA, 1-Electron XAS/XES, NRVS
   Peter Pinski           : DLPNO-MP2, DLPNO-MP2 Gradient
   Christoph Reimann      : Effective Core Potentials
   Marius Retegan         : Local ZFS, SOC
   Christoph Riplinger    : Optimizer, TS searches, QM/MM, DLPNO-CCSD(T), (RO)-DLPNO pert. Triples
   Michael Roemelt        : Original ROCIS implementation
   Masaaki Saitow         : Open-shell DLPNO-CCSD energy and density
   Barbara Sandhoefer     : DKH picture change effects
   Kantharuban Sivalingam : CASSCF convergence/infrastructure, NEVPT2 and variants, FIC-MRCI
   Bernardo de Souza      : ESD, SOC TD-DFT
   Georgi Stoychev        : AutoAux, RI-MP2 NMR, DLPNO-MP2 response, X2C
   Van Anh Tran           : RI-MP2 g-tensors
   Willem Van den Heuvel  : Paramagnetic NMR
   Zikuan Wang            : NOTCH, Electric field optimization 
   Frank Wennmohs         : Technical directorship and infrastructure
   Hang Xu                : AUTO-CI-Response properties 


 We gratefully acknowledge several colleagues who have allowed us to
 interface, adapt or use parts of their codes:
   Stefan Grimme, W. Hujo, H. Kruse, P. Pracht,  : VdW corrections, initial TS optimization,
                  C. Bannwarth, S. Ehlert,         DFT functionals, gCP, sTDA/sTD-DF
                  L. Wittmann, M. Mueller
   Ed Valeev, F. Pavosevic, A. Kumar             : LibInt (2-el integral package), F12 methods
   Garnet Chan, S. Sharma, J. Yang, R. Olivares  : DMRG
   Ulf Ekstrom                                   : XCFun DFT Library
   Mihaly Kallay                                 : mrcc  (arbitrary order and MRCC methods)
   Frank Weinhold                                : gennbo (NPA and NBO analysis)
   Simon Mueller                                 : openCOSMO-RS
   Christopher J. Cramer and Donald G. Truhlar   : smd solvation model
   Lars Goerigk                                  : TD-DFT with DH, B97 family of functionals
   V. Asgeirsson, H. Jonsson                     : NEB implementation
   FAccTs GmbH                                   : IRC, NEB, NEB-TS, DLPNO-Multilevel, CI-OPT
                                                   MM, QMMM, 2- and 3-layer-ONIOM, Crystal-QMMM,
                                                   LR-CPCM, SF, NACMEs, symmetry and pop. for TD-DFT,
                                                   nearIR, NL-DFT gradient (VV10), updates on ESD,
                                                   ML-optimized integration grids, MBIS, APM,
                                                   GOAT, DOCKER, SOLVATOR, interface openCOSMO-RS
   S Lehtola, MJT Oliveira, MAL Marques          : LibXC Library
   Liviu Ungur et al                             : ANISO software


 Your calculation uses the libint2 library for the computation of 2-el integrals
 For citations please refer to: http://libint.valeyev.net

 Your ORCA version has been built with support for libXC version: 6.2.2
 For citations please refer to: https://libxc.gitlab.io

 This ORCA versions uses:
   CBLAS   interface :  Fast vector & matrix operations
   LAPACKE interface :  Fast linear algebra routines
   SCALAPACK package :  Parallel linear algebra routines
   Shared memory     :  Shared parallel matrices
   BLAS/LAPACK       :  OpenBLAS 0.3.27  USE64BITINT DYNAMIC_ARCH NO_AFFINITY SkylakeX SINGLE_THREADED
        Core in use  :  SkylakeX
   Copyright (c) 2011-2014, The OpenBLAS Project




***************************************
The coordinates will be read from file: censo.xyz
***************************************


Your calculation utilizes the geometrical counterpoise correction gCP
Please cite in your paper:
H.Kruse, S. Grimme J.Chem.Phys., 136, (2012), 154101 
   

Your calculation utilizes the atom-pairwise dispersion correction
based on EEQ partial charges (D4)


================================================================================

----- Orbital basis set information -----
Your calculation utilizes the basis: def2-TZVP
   F. Weigend and R. Ahlrichs, Phys. Chem. Chem. Phys. 7, 3297 (2005).

----- AuxJ basis set information -----
Your calculation utilizes the basis: def2-mTZVPP/J
   Stefan Grimme, Andreas Hansen, Sebastian Ehlert, and Jan-Michael Mewes 
   J. Chem. Phys. 154, 000000 (2021). DOI: 10.1063/5.0040021

================================================================================
                                        WARNINGS
                       Please study these warnings very carefully!
================================================================================

Using LibXC functional ID 497 : Re-regularized SCAN exchange by Furness et al
[ 1]  J. W. Furness, A. D. Kaplan, J. Ning, J. P. Perdew, and J. Sun.,  J. Phys. Chem. Lett. 11, 8208-8215 (2020)
[ 2]  J. W. Furness, A. D. Kaplan, J. Ning, J. P. Perdew, and J. Sun.,  J. Phys. Chem. Lett. 11, 9248-9248 (2020)
Using LibXC functional ID 498 : Re-regularized SCAN correlation by Furness et al
[ 1]  J. W. Furness, A. D. Kaplan, J. Ning, J. P. Perdew, and J. Sun.,  J. Phys. Chem. Lett. 11, 8208-8215 (2020)
[ 2]  J. W. Furness, A. D. Kaplan, J. Ning, J. P. Perdew, and J. Sun.,  J. Phys. Chem. Lett. 11, 9248-9248 (2020)
Using LibXC functional ID 497 : Re-regularized SCAN exchange by Furness et al
[ 1]  J. W. Furness, A. D. Kaplan, J. Ning, J. P. Perdew, and J. Sun.,  J. Phys. Chem. Lett. 11, 8208-8215 (2020)
[ 2]  J. W. Furness, A. D. Kaplan, J. Ning, J. P. Perdew, and J. Sun.,  J. Phys. Chem. Lett. 11, 9248-9248 (2020)
Using LibXC functional ID 498 : Re-regularized SCAN correlation by Furness et al
[ 1]  J. W. Furness, A. D. Kaplan, J. Ning, J. P. Perdew, and J. Sun.,  J. Phys. Chem. Lett. 11, 8208-8215 (2020)
[ 2]  J. W. Furness, A. D. Kaplan, J. Ning, J. P. Perdew, and J. Sun.,  J. Phys. Chem. Lett. 11, 9248-9248 (2020)

================================================================================
                                       INPUT FILE
================================================================================
NAME = censo.inp
|  1> ! r2SCAN-3c DEF2-TZVP FREQ
|  2> * xyzfile 0 1 censo.xyz
|  3> 
|  4>                          ****END OF INPUT****
================================================================================

                       ****************************
                       * Single Point Calculation *
                       ****************************

---------------------------------
CARTESIAN COORDINATES (ANGSTROEM)
---------------------------------
  C     -1.519781   -0.836289    0.754204
  C     -0.808221    0.134988    0.050560
  C     -1.492948    1.143933   -0.624659
  C     -2.880152    1.171946   -0.602827
  C     -3.611882    0.203991    0.092051
  C     -2.905365   -0.796213    0.770607
  Cl    -3.762795   -2.020836    1.667346
  Cl    -5.341803    0.243994    0.117750
  Cl    -3.700788    2.443949   -1.466408
  C      0.672143    0.149766    0.057872
  C      1.318193    1.300388    0.507314
  C      2.700506    1.375610    0.541312
  C      3.483383    0.296656    0.125519
  C      2.848257   -0.862099   -0.340203
  C      1.450828   -0.929725   -0.376449
  Cl     0.685120   -2.348993   -1.031015
  Cl     3.801786   -2.201432   -0.883134
  Cl     5.209527    0.389013    0.179346
  Cl     3.443515    2.837336    1.123839
  H     -1.001786   -1.610097    1.307636
  H     -0.948350    1.901756   -1.175692
  H      0.726301    2.141016    0.850201

----------------------------
CARTESIAN COORDINATES (A.U.)
----------------------------
  NO LB      ZA    FRAG     MASS         X           Y           Z
   0 C     6.0000    0    12.011   -2.871970   -1.580358    1.425239
   1 C     6.0000    0    12.011   -1.527317    0.255091    0.095544
   2 C     6.0000    0    12.011   -2.821263    2.161720   -1.180434
   3 C     6.0000    0    12.011   -5.442699    2.214657   -1.139179
   4 C     6.0000    0    12.011   -6.825469    0.385487    0.173951
   5 C     6.0000    0    12.011   -5.490343   -1.504625    1.456236
   6 Cl   17.0000    0    35.453   -7.110652   -3.818826    3.150827
   7 Cl   17.0000    0    35.453  -10.094544    0.461082    0.222515
   8 Cl   17.0000    0    35.453   -6.993476    4.618393   -2.771110
   9 C     6.0000    0    12.011    1.270166    0.283016    0.109363
  10 C     6.0000    0    12.011    2.491024    2.457378    0.958685
  11 C     6.0000    0    12.011    5.103217    2.599525    1.022931
  12 C     6.0000    0    12.011    6.582639    0.560599    0.237197
  13 C     6.0000    0    12.011    5.382426   -1.629131   -0.642891
  14 C     6.0000    0    12.011    2.741667   -1.756925   -0.711385
  15 Cl   17.0000    0    35.453    1.294690   -4.438953   -1.948336
  16 Cl   17.0000    0    35.453    7.184334   -4.160104   -1.668881
  17 Cl   17.0000    0    35.453    9.844580    0.735128    0.338915
  18 Cl   17.0000    0    35.453    6.507301    5.361787    2.123748
  19 H     1.0000    0     1.008   -1.893102   -3.042643    2.471073
  20 H     1.0000    0     1.008   -1.792123    3.593798   -2.221735
  21 H     1.0000    0     1.008    1.372510    4.045934    1.606648

--------------------------------
INTERNAL COORDINATES (ANGSTROEM)
--------------------------------
 C      0   0   0     0.000000000000     0.00000000     0.00000000
 C      1   0   0     1.394565423678     0.00000000     0.00000000
 C      2   1   0     1.393822060529   119.86282658     0.00000000
 C      3   2   1     1.387658774217   119.87364113   359.49381520
 C      4   3   2     1.398292771490   121.12956312     0.23273379
 C      1   2   3     1.386260095374   119.72411353     0.38766808
 Cl     6   1   2     1.743280546881   118.51488603   180.33171562
 Cl     5   4   3     1.730573657923   120.96291470   179.93664082
 Cl     4   3   2     1.742758222823   118.53318680   180.34043214
 C      2   1   3     1.480455834664   120.97511001   177.20218172
 C     10   2   1     1.394027122113   118.24508968   237.56555159
 C     11  10   2     1.384775517068   121.02208875   179.85546744
 C     12  11  10     1.396395412770   120.68795097   359.96123561
 C     13  12  11     1.401068969343   118.93834061     0.61127413
 C     14  13  12     1.399534487186   120.07976354   359.62114343
 Cl    15  14  13     1.740426971617   119.23784251   177.04684551
 Cl    14  13  12     1.731416891135   119.62671242   179.05962635
 Cl    13  12  11     1.729451605945   120.59985680   180.43003640
 Cl    12  11  10     1.740127423134   118.69027092   180.41398020
 H      1   2   3     1.083228382876   120.75181273   181.78253733
 H      3   2   1     1.083752381407   120.37253167   180.12269759
 H     11  10   2     1.083772485637   119.28252907     0.88346996

---------------------------
INTERNAL COORDINATES (A.U.)
---------------------------
 C      0   0   0     0.000000000000     0.00000000     0.00000000
 C      1   0   0     2.635346726587     0.00000000     0.00000000
 C      2   1   0     2.633941973818   119.86282658     0.00000000
 C      3   2   1     2.622295050604   119.87364113   359.49381520
 C      4   3   2     2.642390393159   121.12956312     0.23273379
 C      1   2   3     2.619651930640   119.72411353     0.38766808
 Cl     6   1   2     3.294322808198   118.51488603   180.33171562
 Cl     5   4   3     3.270310268053   120.96291470   179.93664082
 Cl     4   3   2     3.293335758776   118.53318680   180.34043214
 C      2   1   3     2.797656080880   120.97511001   177.20218172
 C     10   2   1     2.634329484052   118.24508968   237.56555159
 C     11  10   2     2.616846484218   121.02208875   179.85546744
 C     12  11  10     2.638804904799   120.68795097   359.96123561
 C     13  12  11     2.647636646794   118.93834061     0.61127413
 C     14  13  12     2.644736895759   120.07976354   359.62114343
 Cl    15  14  13     3.288930332447   119.23784251   177.04684551
 Cl    14  13  12     3.271903747890   119.62671242   179.05962635
 Cl    13  12  11     3.268189897106   120.59985680   180.43003640
 Cl    12  11  10     3.288364267849   118.69027092   180.41398020
 H      1   2   3     2.047004984126   120.75181273   181.78253733
 H      3   2   1     2.047995197844   120.37253167   180.12269759
 H     11  10   2     2.048033189333   119.28252907     0.88346996

---------------------
BASIS SET INFORMATION
---------------------
There are 3 groups of distinct atoms

 Group   1 Type C   : 11s6p2d1f contracted to 5s3p2d1f pattern {62111/411/11/1}
 Group   2 Type Cl  : 14s9p3d1f contracted to 5s5p2d1f pattern {73211/51111/21/1}
 Group   3 Type H   : 5s1p contracted to 3s1p pattern {311/1}

Atom   0C    basis set group =>   1
Atom   1C    basis set group =>   1
Atom   2C    basis set group =>   1
Atom   3C    basis set group =>   1
Atom   4C    basis set group =>   1
Atom   5C    basis set group =>   1
Atom   6Cl   basis set group =>   2
Atom   7Cl   basis set group =>   2
Atom   8Cl   basis set group =>   2
Atom   9C    basis set group =>   1
Atom  10C    basis set group =>   1
Atom  11C    basis set group =>   1
Atom  12C    basis set group =>   1
Atom  13C    basis set group =>   1
Atom  14C    basis set group =>   1
Atom  15Cl   basis set group =>   2
Atom  16Cl   basis set group =>   2
Atom  17Cl   basis set group =>   2
Atom  18Cl   basis set group =>   2
Atom  19H    basis set group =>   3
Atom  20H    basis set group =>   3
Atom  21H    basis set group =>   3
---------------------------------
AUXILIARY/J BASIS SET INFORMATION
---------------------------------
There are 3 groups of distinct atoms

 Group   1 Type C   : 8s3p3d contracted to 6s3p3d pattern {311111/111/111}
 Group   2 Type Cl  : 14s5p5d2f contracted to 8s4p3d1f pattern {71111111/2111/311/2}
 Group   3 Type H   : 5s2p1d contracted to 3s1p1d pattern {311/2/1}

Atom   0C    basis set group =>   1
Atom   1C    basis set group =>   1
Atom   2C    basis set group =>   1
Atom   3C    basis set group =>   1
Atom   4C    basis set group =>   1
Atom   5C    basis set group =>   1
Atom   6Cl   basis set group =>   2
Atom   7Cl   basis set group =>   2
Atom   8Cl   basis set group =>   2
Atom   9C    basis set group =>   1
Atom  10C    basis set group =>   1
Atom  11C    basis set group =>   1
Atom  12C    basis set group =>   1
Atom  13C    basis set group =>   1
Atom  14C    basis set group =>   1
Atom  15Cl   basis set group =>   2
Atom  16Cl   basis set group =>   2
Atom  17Cl   basis set group =>   2
Atom  18Cl   basis set group =>   2
Atom  19H    basis set group =>   3
Atom  20H    basis set group =>   3
Atom  21H    basis set group =>   3
------------------------------------------------------------------------------
                             ORCA STARTUP CALCULATIONS
                           -- RI-GTO INTEGRALS CHOSEN --
------------------------------------------------------------------------------
------------------------------------------------------------------------------
                   ___                                                        
                  /   \      - P O W E R E D   B Y -                         
                 /     \                                                     
                 |  |  |   _    _      __       _____    __    __             
                 |  |  |  | |  | |    /  \     |  _  \  |  |  /  |          
                  \  \/   | |  | |   /    \    | | | |  |  | /  /          
                 / \  \   | |__| |  /  /\  \   | |_| |  |  |/  /          
                |  |  |   |  __  | /  /__\  \  |    /   |      \           
                |  |  |   | |  | | |   __   |  |    \   |  |\   \          
                \     /   | |  | | |  |  |  |  | |\  \  |  | \   \       
                 \___/    |_|  |_| |__|  |__|  |_| \__\ |__|  \__/        
                                                                              
                      - O R C A' S   B I G   F R I E N D -                    
                                      &                                       
                       - I N T E G R A L  F E E D E R -                       
                                                                              
 v1 FN, 2020, v2 2021, v3 2022-2024                                           
------------------------------------------------------------------------------


----------------------
SHARK INTEGRAL PACKAGE
----------------------

Number of atoms                             ...     22
Number of basis functions                   ...    649
Number of shells                            ...    235
Maximum angular momentum                    ...      3
Integral batch strategy                     ... SHARK/LIBINT Hybrid
RI-J (if used) integral strategy            ... SPLIT-RIJ (Revised 2003 algorithm where possible)
Printlevel                                  ...      1
Contraction scheme used                     ... SEGMENTED contraction
Prescreening option                         ... SCHWARTZ
   Thresh                                   ... 1.000e-10
   Tcut                                     ... 1.000e-11
   Tpresel                                  ... 1.000e-11 
Coulomb Range Separation                    ... NOT USED
Exchange Range Separation                   ... NOT USED
Multipole approximations                    ... NOT USED
Finite Nucleus Model                        ... NOT USED
CABS basis                                  ... NOT available
Auxiliary Coulomb fitting basis             ... AVAILABLE
   # of basis functions in Aux-J            ...    687
   # of shells in Aux-J                     ...    271
   Maximum angular momentum in Aux-J        ...      3
Auxiliary J/K fitting basis                 ... NOT available
Auxiliary Correlation fitting basis         ... NOT available
Auxiliary 'external' fitting basis          ... NOT available

Checking pre-screening integrals            ... done (  0.0 sec) Dimension = 235
Check shell pair data                       ... done (  0.0 sec)
Shell pair information
Shell pair cut-off parameter TPreSel        ...   1.0e-11
Total number of shell pairs                 ...     27730
Shell pairs after pre-screening             ...     18912
Total number of primitive shell pairs       ...    100653
Primitive shell pairs kept                  ...     43274
          la=0 lb=0:   3482 shell pairs
          la=1 lb=0:   5312 shell pairs
          la=1 lb=1:   2029 shell pairs
          la=2 lb=0:   2698 shell pairs
          la=2 lb=1:   2013 shell pairs
          la=2 lb=2:    541 shell pairs
          la=3 lb=0:   1253 shell pairs
          la=3 lb=1:    956 shell pairs
          la=3 lb=2:    502 shell pairs
          la=3 lb=3:    126 shell pairs

Calculating one electron integrals          ... done (  0.1 sec)
Calculating RI/J V-Matrix + Cholesky decomp.... done (  0.1 sec)
Calculating Nuclear repulsion               ... done (  0.0 sec) ENN=   2273.504534538829 Eh

Diagonalization of the overlap matrix:
Smallest eigenvalue                        ... 7.405e-06
Time for diagonalization                   ...    0.063 sec
Threshold for overlap eigenvalues          ... 1.000e-07
Number of eigenvalues below threshold      ... 0
Time for construction of square roots      ...    0.071 sec
Total time needed                          ...    0.143 sec

-------------------
DFT GRID GENERATION
-------------------

General Integration Accuracy     IntAcc      ... 4.388
Radial Grid Type                 RadialGrid  ... OptM3 with GC (2021)
Angular Grid (max. ang.)         AngularGrid ... 4 (Lebedev-302)
Angular grid pruning method      GridPruning ... 4 (adaptive)
Weight generation scheme         WeightScheme... mBecke (2022)
Basis function cutoff            BFCut       ... 1.0000e-10
Integration weight cutoff        WCut        ... 1.0000e-14
Partially contracted basis set               ... off
Rotationally invariant grid construction     ... off
Angular grids for H and He will be reduced by one unit

Total number of grid points                  ...   132300
Total number of batches                      ...     2079
Average number of points per batch           ...       63
Average number of grid points per atom       ...     6014
Initializing property integral containers    ... done (  0.0 sec)

SHARK setup successfully completed in   2.8 seconds

Maximum memory used throughout the entire STARTUP-calculation: 102.8 MB
-------------------------------------------------------------------------------
                                 ORCA GUESS
                   Start orbitals & Density for SCF / CASSCF
-------------------------------------------------------------------------------

------------
SCF SETTINGS
------------
Hamiltonian:
 Density Functional     Method          .... DFT(GTOs)
  Functional kind                       .... Exchange
  Functional name                       .... Re-regularized SCAN exchange by Furness et al
  Functional family                     .... MGGA
  Functional refs                              
    [ 0] J. W. Furness, A. D. Kaplan, J. Ning, J. P. Perdew, and J. Sun.,  J. Phys. Chem. Lett. 11, 8208-8215 (2020), doi: 10.1021/acs.jpclett.0c02405
    [ 1] J. W. Furness, A. D. Kaplan, J. Ning, J. P. Perdew, and J. Sun.,  J. Phys. Chem. Lett. 11, 9248-9248 (2020), doi: 10.1021/acs.jpclett.0c03077
  Functional external parameters        .... 6
    Parameter  0 _c1        =  6.670000e-01 : c1 parameter        
    Parameter  1 _c2        =  8.000000e-01 : c2 parameter        
    Parameter  2 _d         =  1.240000e+00 : d parameter         
    Parameter  3 _k1        =  6.500000e-02 : k1 parameter        
    Parameter  4 _eta       =  1.000000e-03 : eta parameter       
    Parameter  5 _dp2       =  3.610000e-01 : dp2 parameter       
  Functional kind                       .... Correlation
  Functional name                       .... Re-regularized SCAN correlation by Furness et al
  Functional family                     .... MGGA
  Functional refs                              
    [ 0] J. W. Furness, A. D. Kaplan, J. Ning, J. P. Perdew, and J. Sun.,  J. Phys. Chem. Lett. 11, 8208-8215 (2020), doi: 10.1021/acs.jpclett.0c02405
    [ 1] J. W. Furness, A. D. Kaplan, J. Ning, J. P. Perdew, and J. Sun.,  J. Phys. Chem. Lett. 11, 9248-9248 (2020), doi: 10.1021/acs.jpclett.0c03077
  Functional external parameters        .... 1
    Parameter  0 _eta       =  1.000000e-03 : Regularization parameter
 Gradients option       PostSCFGGA      .... off
 RI-approximation to the Coulomb term is turned on
   Number of AuxJ basis functions       .... 687


General Settings:
 Integral files         IntName         .... censo
 Hartree-Fock type      HFTyp           .... RHF
 Total Charge           Charge          ....    0
 Multiplicity           Mult            ....    1
 Number of Electrons    NEL             ....  194
 Basis Dimension        Dim             ....  649
 Nuclear Repulsion      ENuc            ....   2273.5045345388 Eh

Convergence Acceleration:
 AO-DIIS                CNVDIIS         .... on
   Start iteration      DIISMaxIt       ....    12
   Startup error        DIISStart       ....  0.200000
   # of expansion vecs  DIISMaxEq       ....     5
   Bias factor          DIISBfac        ....   1.050
   Max. coefficient     DIISMaxC        ....  10.000
 MO-DIIS                CNVKDIIS        .... off
 Trust-Rad. Augm. Hess. CNVTRAH         .... auto
   Auto Start mean grad. ratio tolernc. ....  1.125000
   Auto Start start iteration           ....    50
   Auto Start num. interpolation iter.  ....    10
   Max. Number of Micro iterations      ....    24
   Max. Number of Macro iterations      .... Maxiter - #DIIS iter
   Number of Davidson start vectors     ....     2
   Converg. threshold    (grad. norm)   ....   5.000e-05
   Grad. Scal. Fac. for Micro threshold ....   0.100
   Minimum threshold for Micro iter.    ....   1.000e-02
   NR start threshold (gradient norm)   ....   1.000e-04
   Initial trust radius                 ....   0.400
   Minimum AH scaling param. (alpha)    ....   1.000
   Maximum AH scaling param. (alpha)    .... 1000.000
   Quad. conv. algorithm                .... NR
   White noise on init. David. guess    .... on
   Maximum white noise                  ....   0.010
   Pseudo random numbers                .... off
   Inactive MOs                         .... canonical
   Orbital update algorithm             .... Taylor
   Preconditioner                       .... Diag
   Full preconditioner red. dimension   ....   250
   COSX micro iterations for RIJONX calc.... off
 SOSCF                  CNVSOSCF        .... on
   Start iteration      SOSCFMaxIt      ....   150
   Startup grad/error   SOSCFStart      ....  0.003300
   Hessian update       SOSCFHessUp     .... L-BFGS
 Level Shifting         CNVShift        .... on
   Level shift para.    LevelShift      ....    0.2500
   Turn off err/grad.   ShiftErr        ....    0.0010
 Zerner damping         CNVZerner       .... off
 Static damping         CNVDamp         .... on
   Fraction old density DampFac         ....    0.7000
   Max. Damping (<1)    DampMax         ....    0.9800
   Min. Damping (>=0)   DampMin         ....    0.0000
   Turn off err/grad.   DampErr         ....    0.1000

SCF Procedure:
 Maximum # iterations   MaxIter         ....   125
 SCF integral mode      SCFMode         .... Direct
   Integral package                     .... SHARK and LIBINT hybrid scheme
 Reset frequency        DirectResetFreq ....    20
 Integral Threshold     Thresh          ....  1.000e-10 Eh
 Primitive CutOff       TCut            ....  1.000e-11 Eh

Convergence Tolerance:
 Convergence Check Mode ConvCheckMode   .... Total+1el-Energy
 Convergence forced     ConvForced      .... 0
 Energy Change          TolE            ....  1.000e-06 Eh
 1-El. energy change                    ....  1.000e-03 Eh
 Orbital Gradient       TolG            ....  5.000e-05
 Orbital Rotation angle TolX            ....  5.000e-05
 DIIS Error             TolErr          ....  1.000e-06

------------------------------
INITIAL GUESS: MODEL POTENTIAL
------------------------------
Loading Hartree-Fock densities                     ... done
Calculating cut-offs                               ... done
Initializing the effective Hamiltonian             ... done
Setting up the integral package (SHARK)            ... done
Starting the Coulomb interaction                   ... done (   1.9 sec)
Making the grid                                    ... done (   0.5 sec)
Mapping shells                                     ... done
Starting the XC term evaluation                    ... done (   1.2 sec)
  promolecular density results
     # of electrons  =    193.998424500
     EX              =   -254.054552168
     EC              =     -7.265610706
     EX+EC           =   -261.320162874
Transforming the Hamiltonian                       ... done (   0.0 sec)
Diagonalizing the Hamiltonian                      ... done (   0.1 sec)
Back transforming the eigenvectors                 ... done (   0.0 sec)
Now organizing SCF variables                       ... done
                      ------------------
                      INITIAL GUESS DONE (   3.8 sec)
                      ------------------
             **** ENERGY FILE WAS UPDATED (censo.en.tmp) ****
Finished Guess after   4.3 sec
Maximum memory used throughout the entire GUESS-calculation: 78.6 MB

-------------------------------------------------------------------------------------------
                                      ORCA LEAN-SCF
                              memory conserving SCF solver
-------------------------------------------------------------------------------------------

----------------------------------------D-I-I-S--------------------------------------------
Iteration    Energy (Eh)           Delta-E    RMSDP     MaxDP     DIISErr   Damp  Time(sec)
-------------------------------------------------------------------------------------------
               ***  Starting incremental Fock matrix formation  ***
    1    -3680.0889300443877801     0.00e+00  9.71e-04  3.60e-02  1.21e-01  0.700  12.1
    2    -3680.1912270882166922    -1.02e-01  7.32e-04  2.47e-02  5.91e-02  0.700  10.2
                               ***Turning on AO-DIIS***
    3    -3680.2248433913700865    -3.36e-02  5.39e-04  2.09e-02  2.43e-02  0.700   9.8
    4    -3680.2463242223066118    -2.15e-02  1.49e-03  5.58e-02  1.72e-02  0.000   9.3
                              *** Initializing SOSCF ***
---------------------------------------S-O-S-C-F--------------------------------------
Iteration    Energy (Eh)           Delta-E    RMSDP     MaxDP     MaxGrad    Time(sec)
--------------------------------------------------------------------------------------
    5    -3680.2970752554201681    -5.08e-02  1.67e-04  1.01e-02  2.95e-03    10.0
               *** Restarting incremental Fock matrix formation ***
    6    -3680.2974325076702371    -3.57e-04  1.26e-04  8.35e-03  1.00e-03    11.9
    7    -3680.2973875698889969     4.49e-05  6.36e-05  4.65e-03  1.21e-03     8.5
    8    -3680.2974709924110357    -8.34e-05  3.76e-05  2.85e-03  1.87e-04     8.2
    9    -3680.2974647738492422     6.22e-06  1.40e-05  1.12e-03  3.70e-04     8.0
   10    -3680.2974750082939863    -1.02e-05  1.31e-05  9.06e-04  8.85e-05     7.9
   11    -3680.2974740784020469     9.30e-07  4.54e-06  2.44e-04  2.06e-04     7.9
                 **** Energy Check signals convergence ****

               *****************************************************
               *                     SUCCESS                       *
               *           SCF CONVERGED AFTER  11 CYCLES          *
               *****************************************************

             **** ENERGY FILE WAS UPDATED (censo.en.tmp) ****

----------------
TOTAL SCF ENERGY
----------------

Total Energy       :      -3680.29747407840205 Eh         -100145.98559 eV

Components:
Nuclear Repulsion  :       2273.50453453882892 Eh           61865.20355 eV
Electronic Energy  :      -5953.80200861723097 Eh         -162011.18914 eV
One Electron Energy:      -9597.99927722149187 Eh         -261174.83821 eV
Two Electron Energy:       3644.19726860426044 Eh           99163.64906 eV

Virial components:
Potential Energy   :      -7353.83093468944026 Eh         -200107.91302 eV
Kinetic Energy     :       3673.53346061103821 Eh           99961.92743 eV
Virial Ratio       :          2.00184128266147

DFT components:
N(Alpha)           :       96.999924514520 electrons
N(Beta)            :       96.999924514520 electrons
N(Total)           :      193.999849029040 electrons
E(X)               :     -256.553840261601 Eh       
E(C)               :       -7.165527632314 Eh       
E(XC)              :     -263.719367893915 Eh       

---------------
SCF CONVERGENCE
---------------

  Last Energy change         ...   -9.2989e-07  Tolerance :   1.0000e-06
  Last MAX-Density change    ...    2.4398e-04  Tolerance :   1.0000e-05
  Last RMS-Density change    ...    4.5393e-06  Tolerance :   1.0000e-06
  Last DIIS Error            ...    2.9545e-03  Tolerance :   1.0000e-06
  Last Orbital Gradient      ...    2.0585e-04  Tolerance :   5.0000e-05
  Last Orbital Rotation      ...    3.8629e-04  Tolerance :   5.0000e-05


----------------
ORBITAL ENERGIES
----------------

  NO   OCC          E(Eh)            E(eV) 
   0   2.0000    -101.219875     -2754.3328 
   1   2.0000    -101.219547     -2754.3239 
   2   2.0000    -101.218063     -2754.2835 
   3   2.0000    -101.217448     -2754.2668 
   4   2.0000    -101.215139     -2754.2039 
   5   2.0000    -101.213561     -2754.1610 
   6   2.0000    -101.212717     -2754.1380 
   7   2.0000     -10.143781      -276.0263 
   8   2.0000     -10.142755      -275.9984 
   9   2.0000     -10.139102      -275.8990 
  10   2.0000     -10.137875      -275.8656 
  11   2.0000     -10.136335      -275.8237 
  12   2.0000     -10.134589      -275.7762 
  13   2.0000     -10.134504      -275.7739 
  14   2.0000     -10.098189      -274.7857 
  15   2.0000     -10.091022      -274.5907 
  16   2.0000     -10.083330      -274.3814 
  17   2.0000     -10.077227      -274.2153 
  18   2.0000     -10.076688      -274.2006 
  19   2.0000      -9.395556      -255.6661 
  20   2.0000      -9.395254      -255.6579 
  21   2.0000      -9.393887      -255.6207 
  22   2.0000      -9.393202      -255.6020 
  23   2.0000      -9.390802      -255.5367 
  24   2.0000      -9.389321      -255.4964 
  25   2.0000      -9.388469      -255.4732 
  26   2.0000      -7.140971      -194.3157 
  27   2.0000      -7.140590      -194.3053 
  28   2.0000      -7.139213      -194.2679 
  29   2.0000      -7.138418      -194.2462 
  30   2.0000      -7.136226      -194.1866 
  31   2.0000      -7.134479      -194.1391 
  32   2.0000      -7.133630      -194.1159 
  33   2.0000      -7.130599      -194.0335 
  34   2.0000      -7.130328      -194.0261 
  35   2.0000      -7.129463      -194.0025 
  36   2.0000      -7.129222      -193.9960 
  37   2.0000      -7.128937      -193.9882 
  38   2.0000      -7.128166      -193.9672 
  39   2.0000      -7.127878      -193.9594 
  40   2.0000      -7.127409      -193.9467 
  41   2.0000      -7.125840      -193.9040 
  42   2.0000      -7.124701      -193.8730 
  43   2.0000      -7.124318      -193.8626 
  44   2.0000      -7.123567      -193.8421 
  45   2.0000      -7.123474      -193.8396 
  46   2.0000      -7.122709      -193.8188 
  47   2.0000      -0.925334       -25.1796 
  48   2.0000      -0.911470       -24.8024 
  49   2.0000      -0.878350       -23.9011 
  50   2.0000      -0.862119       -23.4594 
  51   2.0000      -0.858727       -23.3672 
  52   2.0000      -0.838718       -22.8227 
  53   2.0000      -0.827958       -22.5299 
  54   2.0000      -0.820919       -22.3383 
  55   2.0000      -0.803891       -21.8750 
  56   2.0000      -0.751448       -20.4479 
  57   2.0000      -0.727573       -19.7983 
  58   2.0000      -0.718624       -19.5548 
  59   2.0000      -0.705019       -19.1845 
  60   2.0000      -0.629495       -17.1294 
  61   2.0000      -0.611195       -16.6315 
  62   2.0000      -0.599525       -16.3139 
  63   2.0000      -0.576993       -15.7008 
  64   2.0000      -0.520075       -14.1520 
  65   2.0000      -0.515089       -14.0163 
  66   2.0000      -0.497170       -13.5287 
  67   2.0000      -0.491321       -13.3695 
  68   2.0000      -0.470783       -12.8107 
  69   2.0000      -0.454945       -12.3797 
  70   2.0000      -0.442369       -12.0375 
  71   2.0000      -0.440010       -11.9733 
  72   2.0000      -0.437562       -11.9067 
  73   2.0000      -0.431630       -11.7453 
  74   2.0000      -0.423455       -11.5228 
  75   2.0000      -0.411696       -11.2028 
  76   2.0000      -0.395433       -10.7603 
  77   2.0000      -0.380964       -10.3666 
  78   2.0000      -0.379731       -10.3330 
  79   2.0000      -0.375961       -10.2304 
  80   2.0000      -0.359440        -9.7809 
  81   2.0000      -0.356747        -9.7076 
  82   2.0000      -0.339552        -9.2397 
  83   2.0000      -0.328998        -8.9525 
  84   2.0000      -0.326532        -8.8854 
  85   2.0000      -0.323206        -8.7949 
  86   2.0000      -0.320456        -8.7200 
  87   2.0000      -0.318204        -8.6588 
  88   2.0000      -0.309870        -8.4320 
  89   2.0000      -0.307852        -8.3771 
  90   2.0000      -0.305609        -8.3161 
  91   2.0000      -0.288290        -7.8448 
  92   2.0000      -0.288068        -7.8387 
  93   2.0000      -0.261610        -7.1188 
  94   2.0000      -0.251666        -6.8482 
  95   2.0000      -0.249892        -6.7999 
  96   2.0000      -0.240005        -6.5309 
  97   0.0000      -0.095348        -2.5945 
  98   0.0000      -0.082801        -2.2531 
  99   0.0000      -0.074742        -2.0338 
 100   0.0000      -0.067577        -1.8389 
 101   0.0000      -0.059191        -1.6107 
 102   0.0000      -0.054553        -1.4845 
 103   0.0000      -0.014709        -0.4003 
 104   0.0000       0.006655         0.1811 
 105   0.0000       0.018868         0.5134 
 106   0.0000       0.021092         0.5740 
 107   0.0000       0.025410         0.6914 
*Only the first 10 virtual orbitals were printed.

                    ********************************
                    * MULLIKEN POPULATION ANALYSIS *
                    ********************************

-----------------------
MULLIKEN ATOMIC CHARGES
-----------------------
   0 C :   -0.324770
   1 C :    0.280885
   2 C :   -0.349271
   3 C :    0.161535
   4 C :   -0.004390
   5 C :    0.162872
   6 Cl:   -0.068594
   7 Cl:   -0.043931
   8 Cl:   -0.069002
   9 C :    0.176999
  10 C :   -0.301355
  11 C :    0.123662
  12 C :    0.026113
  13 C :    0.040800
  14 C :   -0.053431
  15 Cl:   -0.049959
  16 Cl:   -0.038093
  17 Cl:   -0.037245
  18 Cl:   -0.064080
  19 H :    0.140731
  20 H :    0.142808
  21 H :    0.147716
Sum of atomic charges:   -0.0000000

--------------------------------
MULLIKEN REDUCED ORBITAL CHARGES
--------------------------------
  0 C s       :     3.338088  s :     3.338088
      pz      :     0.963122  p :     2.894079
      px      :     0.970419
      py      :     0.960539
      dz2     :     0.009847  d :     0.083624
      dxz     :     0.021118
      dyz     :     0.009467
      dx2y2   :     0.020406
      dxy     :     0.022785
      f0      :     0.000921  f :     0.008980
      f+1     :     0.000726
      f-1     :     0.001339
      f+2     :     0.001772
      f-2     :     0.001041
      f+3     :     0.001273
      f-3     :     0.001908

  1 C s       :     3.234561  s :     3.234561
      pz      :     0.887632  p :     2.358171
      px      :     0.591335
      py      :     0.879205
      dz2     :     0.019760  d :     0.114347
      dxz     :     0.029742
      dyz     :     0.011608
      dx2y2   :     0.022459
      dxy     :     0.030777
      f0      :     0.000811  f :     0.012035
      f+1     :     0.001257
      f-1     :     0.002050
      f+2     :     0.002031
      f-2     :     0.001279
      f+3     :     0.001965
      f-3     :     0.002641

  2 C s       :     3.354601  s :     3.354601
      pz      :     0.977341  p :     2.902983
      px      :     0.960780
      py      :     0.964861
      dz2     :     0.009507  d :     0.082720
      dxz     :     0.021369
      dyz     :     0.008809
      dx2y2   :     0.019869
      dxy     :     0.023165
      f0      :     0.000923  f :     0.008966
      f+1     :     0.000696
      f-1     :     0.001358
      f+2     :     0.001701
      f-2     :     0.001023
      f+3     :     0.001290
      f-3     :     0.001976

  3 C s       :     3.108813  s :     3.108813
      pz      :     0.905980  p :     2.548665
      px      :     0.831340
      py      :     0.811346
      dz2     :     0.025574  d :     0.168469
      dxz     :     0.037045
      dyz     :     0.020439
      dx2y2   :     0.039031
      dxy     :     0.046380
      f0      :     0.001194  f :     0.012517
      f+1     :     0.001072
      f-1     :     0.001973
      f+2     :     0.002377
      f-2     :     0.001480
      f+3     :     0.001671
      f-3     :     0.002749

  4 C s       :     3.218219  s :     3.218219
      pz      :     0.963902  p :     2.596218
      px      :     0.730223
      py      :     0.902093
      dz2     :     0.023642  d :     0.177563
      dxz     :     0.040795
      dyz     :     0.018364
      dx2y2   :     0.045319
      dxy     :     0.049443
      f0      :     0.000889  f :     0.012388
      f+1     :     0.001447
      f-1     :     0.002122
      f+2     :     0.002271
      f-2     :     0.001200
      f+3     :     0.002008
      f-3     :     0.002451

  5 C s       :     3.106869  s :     3.106869
      pz      :     0.903823  p :     2.549761
      px      :     0.833424
      py      :     0.812515
      dz2     :     0.025448  d :     0.167979
      dxz     :     0.037343
      dyz     :     0.020273
      dx2y2   :     0.039072
      dxy     :     0.045844
      f0      :     0.001189  f :     0.012519
      f+1     :     0.001066
      f-1     :     0.001982
      f+2     :     0.002350
      f-2     :     0.001527
      f+3     :     0.001625
      f-3     :     0.002781

  6 Cls       :     5.913487  s :     5.913487
      pz      :     3.725606  p :    11.086579
      px      :     3.786655
      py      :     3.574318
      dz2     :     0.011558  d :     0.062901
      dxz     :     0.010713
      dyz     :     0.014466
      dx2y2   :     0.010902
      dxy     :     0.015262
      f0      :     0.000567  f :     0.005627
      f+1     :     0.000435
      f-1     :     0.000845
      f+2     :     0.000719
      f-2     :     0.001475
      f+3     :     0.000961
      f-3     :     0.000625

  7 Cls       :     5.916400  s :     5.916400
      pz      :     3.908873  p :    11.054669
      px      :     3.219000
      py      :     3.926796
      dz2     :     0.007706  d :     0.066899
      dxz     :     0.018413
      dyz     :     0.001965
      dx2y2   :     0.023630
      dxy     :     0.015185
      f0      :     0.000546  f :     0.005963
      f+1     :     0.001121
      f-1     :     0.000101
      f+2     :     0.000936
      f-2     :     0.000069
      f+3     :     0.001921
      f-3     :     0.001268

  8 Cls       :     5.913177  s :     5.913177
      pz      :     3.738880  p :    11.087118
      px      :     3.801046
      py      :     3.547192
      dz2     :     0.011223  d :     0.063073
      dxz     :     0.010063
      dyz     :     0.014907
      dx2y2   :     0.011813
      dxy     :     0.015068
      f0      :     0.000570  f :     0.005634
      f+1     :     0.000377
      f-1     :     0.000862
      f+2     :     0.000746
      f-2     :     0.001410
      f+3     :     0.001015
      f-3     :     0.000654

  9 C s       :     3.297978  s :     3.297978
      pz      :     0.933105  p :     2.386306
      px      :     0.637685
      py      :     0.815516
      dz2     :     0.011917  d :     0.126662
      dxz     :     0.028850
      dyz     :     0.019789
      dx2y2   :     0.028678
      dxy     :     0.037428
      f0      :     0.001162  f :     0.012055
      f+1     :     0.001038
      f-1     :     0.001686
      f+2     :     0.001386
      f-2     :     0.001338
      f+3     :     0.002232
      f-3     :     0.003212

 10 C s       :     3.325255  s :     3.325255
      pz      :     0.972865  p :     2.884464
      px      :     0.965417
      py      :     0.946183
      dz2     :     0.007198  d :     0.082559
      dxz     :     0.020257
      dyz     :     0.009746
      dx2y2   :     0.021367
      dxy     :     0.023991
      f0      :     0.001265  f :     0.009076
      f+1     :     0.000641
      f-1     :     0.001234
      f+2     :     0.001353
      f-2     :     0.000755
      f+3     :     0.001583
      f-3     :     0.002246

 11 C s       :     3.127891  s :     3.127891
      pz      :     0.963014  p :     2.567666
      px      :     0.840339
      py      :     0.764314
      dz2     :     0.015484  d :     0.168265
      dxz     :     0.032041
      dyz     :     0.025434
      dx2y2   :     0.043317
      dxy     :     0.051990
      f0      :     0.001541  f :     0.012515
      f+1     :     0.000889
      f-1     :     0.001677
      f+2     :     0.001733
      f-2     :     0.001338
      f+3     :     0.002049
      f-3     :     0.003289

 12 C s       :     3.193945  s :     3.193945
      pz      :     0.994684  p :     2.588392
      px      :     0.719277
      py      :     0.874431
      dz2     :     0.015287  d :     0.179029
      dxz     :     0.036324
      dyz     :     0.022750
      dx2y2   :     0.050096
      dxy     :     0.054572
      f0      :     0.001307  f :     0.012521
      f+1     :     0.001251
      f-1     :     0.001784
      f+2     :     0.001578
      f-2     :     0.001276
      f+3     :     0.002223
      f-3     :     0.003102

 13 C s       :     3.181925  s :     3.181925
      pz      :     0.974514  p :     2.584802
      px      :     0.817618
      py      :     0.792670
      dz2     :     0.017017  d :     0.179858
      dxz     :     0.032506
      dyz     :     0.026737
      dx2y2   :     0.052483
      dxy     :     0.051115
      f0      :     0.001513  f :     0.012616
      f+1     :     0.000960
      f-1     :     0.001764
      f+2     :     0.001686
      f-2     :     0.001403
      f+3     :     0.002030
      f-3     :     0.003260

 14 C s       :     3.266121  s :     3.266121
      pz      :     0.974919  p :     2.601995
      px      :     0.858796
      py      :     0.768280
      dz2     :     0.016529  d :     0.173011
      dxz     :     0.032327
      dyz     :     0.024738
      dx2y2   :     0.052475
      dxy     :     0.046943
      f0      :     0.001436  f :     0.012303
      f+1     :     0.000913
      f-1     :     0.001647
      f+2     :     0.001782
      f-2     :     0.001331
      f+3     :     0.002005
      f-3     :     0.003189

 15 Cls       :     5.919377  s :     5.919377
      pz      :     3.797101  p :    11.058818
      px      :     3.798366
      py      :     3.463351
      dz2     :     0.010586  d :     0.066010
      dxz     :     0.007144
      dyz     :     0.016511
      dx2y2   :     0.014926
      dxy     :     0.016843
      f0      :     0.000577  f :     0.005753
      f+1     :     0.000274
      f-1     :     0.000878
      f+2     :     0.000668
      f-2     :     0.001106
      f+3     :     0.001388
      f-3     :     0.000863

 16 Cls       :     5.917833  s :     5.917833
      pz      :     3.826448  p :    11.047068
      px      :     3.721685
      py      :     3.498935
      dz2     :     0.009582  d :     0.067204
      dxz     :     0.009283
      dyz     :     0.014079
      dx2y2   :     0.013229
      dxy     :     0.021032
      f0      :     0.000596  f :     0.005989
      f+1     :     0.000392
      f-1     :     0.000760
      f+2     :     0.000401
      f-2     :     0.001240
      f+3     :     0.001569
      f-3     :     0.001031

 17 Cls       :     5.917190  s :     5.917190
      pz      :     3.896564  p :    11.046724
      px      :     3.217019
      py      :     3.933141
      dz2     :     0.007670  d :     0.067327
      dxz     :     0.020171
      dyz     :     0.001476
      dx2y2   :     0.024512
      dxy     :     0.013498
      f0      :     0.000578  f :     0.006004
      f+1     :     0.001103
      f-1     :     0.000094
      f+2     :     0.000964
      f-2     :     0.000064
      f+3     :     0.001951
      f-3     :     0.001249

 18 Cls       :     5.912536  s :     5.912536
      pz      :     3.826289  p :    11.082244
      px      :     3.827760
      py      :     3.428194
      dz2     :     0.009366  d :     0.063618
      dxz     :     0.006576
      dyz     :     0.016340
      dx2y2   :     0.014519
      dxy     :     0.016817
      f0      :     0.000583  f :     0.005683
      f+1     :     0.000239
      f-1     :     0.000866
      f+2     :     0.000648
      f-2     :     0.000983
      f+3     :     0.001434
      f-3     :     0.000930

 19 H s       :     0.835504  s :     0.835504
      pz      :     0.007456  p :     0.023766
      px      :     0.006458
      py      :     0.009851

 20 H s       :     0.833376  s :     0.833376
      pz      :     0.007633  p :     0.023816
      px      :     0.006694
      py      :     0.009489

 21 H s       :     0.828307  s :     0.828307
      pz      :     0.006295  p :     0.023977
      px      :     0.007247
      py      :     0.010435



                     *******************************
                     * LOEWDIN POPULATION ANALYSIS *
                     *******************************

----------------------
LOEWDIN ATOMIC CHARGES
----------------------
   0 C :   -0.105078
   1 C :   -0.111959
   2 C :   -0.101301
   3 C :   -0.424619
   4 C :   -0.446734
   5 C :   -0.423094
   6 Cl:    0.420076
   7 Cl:    0.441628
   8 Cl:    0.419683
   9 C :   -0.107989
  10 C :   -0.097454
  11 C :   -0.432221
  12 C :   -0.448251
  13 C :   -0.442637
  14 C :   -0.393200
  15 Cl:    0.451165
  16 Cl:    0.446660
  17 Cl:    0.447988
  18 Cl:    0.424991
  19 H :    0.158700
  20 H :    0.160227
  21 H :    0.163418

-------------------------------
LOEWDIN REDUCED ORBITAL CHARGES
-------------------------------
  0 C s       :     2.763373  s :     2.763373
      pz      :     0.929776  p :     2.914525
      px      :     1.020843
      py      :     0.963906
      dz2     :     0.038995  d :     0.383182
      dxz     :     0.089520
      dyz     :     0.045473
      dx2y2   :     0.097342
      dxy     :     0.111852
      f0      :     0.005007  f :     0.043997
      f+1     :     0.004557
      f-1     :     0.003902
      f+2     :     0.008050
      f-2     :     0.004636
      f+3     :     0.007056
      f-3     :     0.010790

  1 C s       :     2.699026  s :     2.699026
      pz      :     0.904951  p :     2.826730
      px      :     0.942487
      py      :     0.979291
      dz2     :     0.079562  d :     0.526907
      dxz     :     0.098312
      dyz     :     0.074420
      dx2y2   :     0.148551
      dxy     :     0.126062
      f0      :     0.005142  f :     0.059297
      f+1     :     0.006744
      f-1     :     0.005779
      f+2     :     0.010976
      f-2     :     0.007017
      f+3     :     0.008664
      f-3     :     0.014976

  2 C s       :     2.761017  s :     2.761017
      pz      :     0.929572  p :     2.913451
      px      :     1.016309
      py      :     0.967571
      dz2     :     0.038001  d :     0.382889
      dxz     :     0.087153
      dyz     :     0.044308
      dx2y2   :     0.097705
      dxy     :     0.115722
      f0      :     0.004909  f :     0.043945
      f+1     :     0.004522
      f-1     :     0.003938
      f+2     :     0.008045
      f-2     :     0.004467
      f+3     :     0.006889
      f-3     :     0.011175

  3 C s       :     2.786219  s :     2.786219
      pz      :     0.937126  p :     2.952419
      px      :     1.063376
      py      :     0.951918
      dz2     :     0.084454  d :     0.621921
      dxz     :     0.128183
      dyz     :     0.090234
      dx2y2   :     0.147891
      dxy     :     0.171160
      f0      :     0.006370  f :     0.064058
      f+1     :     0.006680
      f-1     :     0.006742
      f+2     :     0.011408
      f-2     :     0.007791
      f+3     :     0.009245
      f-3     :     0.015820

  4 C s       :     2.790053  s :     2.790053
      pz      :     0.986099  p :     2.977142
      px      :     0.956399
      py      :     1.034644
      dz2     :     0.086007  d :     0.616065
      dxz     :     0.127789
      dyz     :     0.068188
      dx2y2   :     0.175774
      dxy     :     0.158306
      f0      :     0.005918  f :     0.063474
      f+1     :     0.007986
      f-1     :     0.006018
      f+2     :     0.010946
      f-2     :     0.007177
      f+3     :     0.010260
      f-3     :     0.015169

  5 C s       :     2.786210  s :     2.786210
      pz      :     0.934940  p :     2.951391
      px      :     1.061098
      py      :     0.955353
      dz2     :     0.084855  d :     0.621485
      dxz     :     0.129457
      dyz     :     0.089788
      dx2y2   :     0.145740
      dxy     :     0.171644
      f0      :     0.006341  f :     0.064008
      f+1     :     0.006766
      f-1     :     0.006756
      f+2     :     0.011363
      f-2     :     0.007815
      f+3     :     0.009070
      f-3     :     0.015897

  6 Cls       :     5.550900  s :     5.550900
      pz      :     3.671031  p :    10.915340
      px      :     3.708690
      py      :     3.535620
      dz2     :     0.017258  d :     0.101780
      dxz     :     0.017436
      dyz     :     0.023938
      dx2y2   :     0.017508
      dxy     :     0.025640
      f0      :     0.001094  f :     0.011903
      f+1     :     0.000967
      f-1     :     0.001832
      f+2     :     0.001614
      f-2     :     0.002938
      f+3     :     0.001942
      f-3     :     0.001515

  7 Cls       :     5.543339  s :     5.543339
      pz      :     3.826646  p :    10.894436
      px      :     3.229966
      py      :     3.837825
      dz2     :     0.012772  d :     0.107907
      dxz     :     0.028213
      dyz     :     0.002686
      dx2y2   :     0.040241
      dxy     :     0.023994
      f0      :     0.001255  f :     0.012691
      f+1     :     0.002194
      f-1     :     0.000214
      f+2     :     0.002158
      f-2     :     0.000074
      f+3     :     0.003801
      f-3     :     0.002994

  8 Cls       :     5.550556  s :     5.550556
      pz      :     3.682669  p :    10.915792
      px      :     3.721013
      py      :     3.512110
      dz2     :     0.016827  d :     0.102047
      dxz     :     0.016231
      dyz     :     0.024606
      dx2y2   :     0.018883
      dxy     :     0.025499
      f0      :     0.001093  f :     0.011923
      f+1     :     0.000844
      f-1     :     0.001884
      f+2     :     0.001642
      f-2     :     0.002823
      f+3     :     0.002039
      f-3     :     0.001597

  9 C s       :     2.701398  s :     2.701398
      pz      :     0.870347  p :     2.826292
      px      :     0.952365
      py      :     1.003579
      dz2     :     0.053592  d :     0.521654
      dxz     :     0.083766
      dyz     :     0.077427
      dx2y2   :     0.157297
      dxy     :     0.149573
      f0      :     0.004507  f :     0.058645
      f+1     :     0.005471
      f-1     :     0.004997
      f+2     :     0.008211
      f-2     :     0.007956
      f+3     :     0.009594
      f-3     :     0.017910

 10 C s       :     2.759518  s :     2.759518
      pz      :     0.905673  p :     2.906307
      px      :     1.016343
      py      :     0.984290
      dz2     :     0.032342  d :     0.387415
      dxz     :     0.074214
      dyz     :     0.038723
      dx2y2   :     0.107942
      dxy     :     0.134194
      f0      :     0.004233  f :     0.044213
      f+1     :     0.004130
      f-1     :     0.003738
      f+2     :     0.007852
      f-2     :     0.003639
      f+3     :     0.007849
      f-3     :     0.012773

 11 C s       :     2.784352  s :     2.784352
      pz      :     0.928913  p :     2.958856
      px      :     1.069104
      py      :     0.960838
      dz2     :     0.060495  d :     0.624471
      dxz     :     0.103780
      dyz     :     0.093838
      dx2y2   :     0.173500
      dxy     :     0.192859
      f0      :     0.005174  f :     0.064542
      f+1     :     0.005664
      f-1     :     0.005955
      f+2     :     0.009624
      f-2     :     0.007752
      f+3     :     0.010907
      f-3     :     0.019466

 12 C s       :     2.789185  s :     2.789185
      pz      :     0.956863  p :     2.973988
      px      :     0.957385
      py      :     1.059739
      dz2     :     0.063542  d :     0.621196
      dxz     :     0.111023
      dyz     :     0.076066
      dx2y2   :     0.195393
      dxy     :     0.175171
      f0      :     0.005109  f :     0.063882
      f+1     :     0.006690
      f-1     :     0.005332
      f+2     :     0.009073
      f-2     :     0.007861
      f+3     :     0.011352
      f-3     :     0.018467

 13 C s       :     2.789665  s :     2.789665
      pz      :     0.942693  p :     2.968544
      px      :     1.043109
      py      :     0.982742
      dz2     :     0.062980  d :     0.620745
      dxz     :     0.105643
      dyz     :     0.090930
      dx2y2   :     0.172801
      dxy     :     0.188392
      f0      :     0.005276  f :     0.063683
      f+1     :     0.005864
      f-1     :     0.005937
      f+2     :     0.009551
      f-2     :     0.007817
      f+3     :     0.010788
      f-3     :     0.018450

 14 C s       :     2.780016  s :     2.780016
      pz      :     0.940838  p :     2.939152
      px      :     1.033225
      py      :     0.965089
      dz2     :     0.063404  d :     0.611387
      dxz     :     0.102942
      dyz     :     0.092103
      dx2y2   :     0.177800
      dxy     :     0.175138
      f0      :     0.005218  f :     0.062645
      f+1     :     0.005698
      f-1     :     0.005726
      f+2     :     0.009827
      f-2     :     0.007488
      f+3     :     0.010488
      f-3     :     0.018201

 15 Cls       :     5.543568  s :     5.543568
      pz      :     3.735092  p :    10.886580
      px      :     3.714652
      py      :     3.436836
      dz2     :     0.016146  d :     0.106418
      dxz     :     0.010886
      dyz     :     0.026674
      dx2y2   :     0.024461
      dxy     :     0.028251
      f0      :     0.001106  f :     0.012270
      f+1     :     0.000598
      f-1     :     0.001951
      f+2     :     0.001454
      f-2     :     0.002273
      f+3     :     0.002789
      f-3     :     0.002098

 16 Cls       :     5.543558  s :     5.543558
      pz      :     3.758776  p :    10.888674
      px      :     3.659377
      py      :     3.470522
      dz2     :     0.014902  d :     0.108377
      dxz     :     0.014357
      dyz     :     0.022177
      dx2y2   :     0.021516
      dxy     :     0.035425
      f0      :     0.001177  f :     0.012731
      f+1     :     0.000860
      f-1     :     0.001613
      f+2     :     0.000881
      f-2     :     0.002602
      f+3     :     0.003165
      f-3     :     0.002433

 17 Cls       :     5.542574  s :     5.542574
      pz      :     3.818092  p :    10.888243
      px      :     3.229080
      py      :     3.841071
      dz2     :     0.012641  d :     0.108424
      dxz     :     0.030449
      dyz     :     0.001933
      dx2y2   :     0.041688
      dxy     :     0.021713
      f0      :     0.001283  f :     0.012771
      f+1     :     0.002149
      f-1     :     0.000195
      f+2     :     0.002222
      f-2     :     0.000077
      f+3     :     0.003882
      f-3     :     0.002962

 18 Cls       :     5.548760  s :     5.548760
      pz      :     3.760219  p :    10.911247
      px      :     3.743467
      py      :     3.407562
      dz2     :     0.014535  d :     0.102958
      dxz     :     0.010188
      dyz     :     0.025743
      dx2y2   :     0.023684
      dxy     :     0.028808
      f0      :     0.001127  f :     0.012043
      f+1     :     0.000520
      f-1     :     0.001852
      f+2     :     0.001379
      f-2     :     0.002053
      f+3     :     0.002855
      f-3     :     0.002257

 19 H s       :     0.779067  s :     0.779067
      pz      :     0.019996  p :     0.062233
      px      :     0.016534
      py      :     0.025702

 20 H s       :     0.777511  s :     0.777511
      pz      :     0.020282  p :     0.062262
      px      :     0.017116
      py      :     0.024864

 21 H s       :     0.774335  s :     0.774335
      pz      :     0.016733  p :     0.062247
      px      :     0.018480
      py      :     0.027035



                      *****************************
                      * MAYER POPULATION ANALYSIS *
                      *****************************

  NA   - Mulliken gross atomic population
  ZA   - Total nuclear charge
  QA   - Mulliken gross atomic charge
  VA   - Mayer's total valence
  BVA  - Mayer's bonded valence
  FA   - Mayer's free valence

  ATOM       NA         ZA         QA         VA         BVA        FA
  0 C      6.3248     6.0000    -0.3248     3.9547     3.9547     0.0000
  1 C      5.7191     6.0000     0.2809     3.3839     3.3839    -0.0000
  2 C      6.3493     6.0000    -0.3493     3.9701     3.9701    -0.0000
  3 C      5.8385     6.0000     0.1615     3.7993     3.7993    -0.0000
  4 C      6.0044     6.0000    -0.0044     3.8754     3.8754     0.0000
  5 C      5.8371     6.0000     0.1629     3.8100     3.8100     0.0000
  6 Cl    17.0686    17.0000    -0.0686     1.2693     1.2693     0.0000
  7 Cl    17.0439    17.0000    -0.0439     1.3084     1.3084     0.0000
  8 Cl    17.0690    17.0000    -0.0690     1.2695     1.2695    -0.0000
  9 C      5.8230     6.0000     0.1770     3.3350     3.3350    -0.0000
 10 C      6.3014     6.0000    -0.3014     3.9307     3.9307    -0.0000
 11 C      5.8763     6.0000     0.1237     3.8364     3.8364    -0.0000
 12 C      5.9739     6.0000     0.0261     3.8812     3.8812    -0.0000
 13 C      5.9592     6.0000     0.0408     3.8713     3.8713    -0.0000
 14 C      6.0534     6.0000    -0.0534     3.9029     3.9029    -0.0000
 15 Cl    17.0500    17.0000    -0.0500     1.3072     1.3072    -0.0000
 16 Cl    17.0381    17.0000    -0.0381     1.3172     1.3172     0.0000
 17 Cl    17.0372    17.0000    -0.0372     1.3170     1.3170     0.0000
 18 Cl    17.0641    17.0000    -0.0641     1.2746     1.2746     0.0000
 19 H      0.8593     1.0000     0.1407     0.9961     0.9961     0.0000
 20 H      0.8572     1.0000     0.1428     0.9874     0.9874    -0.0000
 21 H      0.8523     1.0000     0.1477     0.9838     0.9838    -0.0000

  Mayer bond orders larger than 0.100000
B(  0-C ,  1-C ) :   1.2901 B(  0-C ,  5-C ) :   1.3943 B(  0-C , 19-H ) :   0.9688 
B(  1-C ,  2-C ) :   1.3208 B(  1-C ,  9-C ) :   0.7831 B(  2-C ,  3-C ) :   1.3809 
B(  2-C , 20-H ) :   0.9729 B(  3-C ,  4-C ) :   1.2627 B(  3-C ,  8-Cl) :   1.0716 
B(  4-C ,  5-C ) :   1.2543 B(  4-C ,  7-Cl) :   1.1786 B(  5-C ,  6-Cl) :   1.0686 
B(  9-C , 10-C ) :   1.3242 B(  9-C , 14-C ) :   1.2464 B( 10-C , 11-C ) :   1.3758 
B( 10-C , 21-H ) :   0.9715 B( 11-C , 12-C ) :   1.2703 B( 11-C , 18-Cl) :   1.0830 
B( 12-C , 13-C ) :   1.2757 B( 12-C , 17-Cl) :   1.1954 B( 13-C , 14-C ) :   1.2989 
B( 13-C , 16-Cl) :   1.1961 B( 14-C , 15-Cl) :   1.2148 

-------
TIMINGS
-------

Total SCF time: 0 days 0 hours 1 min 44 sec 

Total time                  ....     104.612 sec
Sum of individual times     ....     104.082 sec  ( 99.5%)

SCF preparation             ....       0.425 sec  (  0.4%)
Fock matrix formation       ....     100.066 sec  ( 95.7%)
  Startup                   ....       0.183 sec  (  0.2% of F)
  Split-RI-J                ....      24.796 sec  ( 24.8% of F)
  XC integration            ....      73.470 sec  ( 73.4% of F)
    Basis function eval.    ....       9.871 sec  ( 13.4% of XC)
    Density eval.           ....      26.155 sec  ( 35.6% of XC)
    XC-Functional eval.     ....       3.970 sec  (  5.4% of XC)
    XC-Potential eval.      ....      32.119 sec  ( 43.7% of XC)
Diagonalization             ....       0.000 sec  (  0.0%)
Density matrix formation    ....       0.739 sec  (  0.7%)
Total Energy calculation    ....       0.073 sec  (  0.1%)
Population analysis         ....       0.104 sec  (  0.1%)
Orbital Transformation      ....       0.338 sec  (  0.3%)
Orbital Orthonormalization  ....       0.000 sec  (  0.0%)
DIIS solution               ....       1.229 sec  (  1.2%)
SOSCF solution              ....       1.108 sec  (  1.1%)
Finished LeanSCF after 104.7 sec

Maximum memory used throughout the entire LEANSCF-calculation: 90.9 MB

------------------------------------------------------------------------------
                         ORCA PROPERTY INTEGRAL CALCULATIONS
------------------------------------------------------------------------------

GBWName                                   ... censo.gbw
Number of atoms                           ...     22
Number of basis functions                 ...    649
Max core memory                           ...   1024 MB

Dipole integrals                          ... YES
Quadrupole integrals                      ...  NO
Linear momentum integrals                 ...  NO
Angular momentum integrals                ...  NO
Higher moments length integrals           ...  NO
Higher moments velocity integrals         ...  NO
Kinetic energy integrals                  ...  NO
GIAO right hand sides                     ...  NO
GIAO dipole derivative integrals          ...  NO
SOC integrals                             ...  NO
EPR diamagnetic integrals (GIAO)          ...  NO
EPR gauge integrals                       ...  NO
Field gradient integrals                  ...  NO (   0 nuclei)
Spin-dipole/Fermi contact integrals       ...  NO (   0 nuclei)
Contact density integrals                 ...  NO (   0 nuclei)
Nucleus-orbit integrals                   ...  NO (   0 nuclei)
Geometric perturbations                   ... YES (  22 nuclei)

Choice of electric origin   ... Center of mass
Position of electric origin ... (  0.0080,  0.0355,  0.0100) 
Choice of magnetic origin   ... GIAO
Position of magnetic origin ... (  0.0000,  0.0000,  0.0000) 

Calculating integrals                     ... Electric Dipole (Length)     done (  0.1 sec)
Calculating integrals                     ... Geometrical perturbation right hand sides

-----------------------
GEOMETRIC PERTURBATIONS (22 nuclei)
-----------------------

MaxCore                            ...   1024 MB
Number of batches                  ...      1

BATCH   0: Atoms    0 -   21 ( 66 perturbations)
   => H(core) and overlap derivative integrals     ... done (     2.3 sec)
   => Making and storing internal U-coefficients   ... done (     1.5 sec)
   => RI-J derivative integrals                    ... done (    39.1 sec)
   => RI-J response operators                      ... done (     9.4 sec)
   => XC derivative integrals                      ... done (  1240.3 sec)
   => XC response operators                        ... done (   342.1 sec)
   => Completing and storing right hand sides      ... done (     0.7 sec)
   => Total time for right hand sides = 1642.5 sec

  geometrical perturbations done (1642.5 sec)

Property integrals calculated in 1642.7 sec

Maximum memory used throughout the entire PROPINT-calculation: 713.1 MB


-------------------------------------------------------------------------------
                          DFT DISPERSION CORRECTION                            
                                                                               
                                DFTD4 V3.4.0                                   
-------------------------------------------------------------------------------
The R2SCAN3C composite method is recognized
Using three-body term ABC
Active option DFTDOPT                   ...         5   

-------------------------   ----------------
Dispersion correction           -0.015152498
-------------------------   ----------------

------------------   -----------------
gCP correction             0.013049879
------------------   -----------------

-------------------------   --------------------
FINAL SINGLE POINT ENERGY     -3680.299576696731
-------------------------   --------------------

------------------------------------------------------------------------------
                            ORCA SCF RESPONSE CALCULATION
------------------------------------------------------------------------------

GBWName                                 ... censo.gbw
Number of atoms                         ...     22
Number of basis functions               ...    649
Max core memory                         ...   1024 MB

Electric field perturbation             ...  NO
Quadrupolar field perturbation          ...  NO
Magnetic field perturbation (no GIAO)   ...  NO
Magnetic field perturbation (with GIAO) ...  NO
Linear momentum (velocity) perturbation ...  NO
Spin-orbit coupling perturbation        ...  NO
Choice of electric origin               ... Center of mass
Position of electric origin             ...     0.008026     0.035478     0.010048
Choice of magnetic origin               ... GIAO
Position of magnetic origin             ...     0.000000     0.000000     0.000000
Nuclear geometric perturbations         ... YES (  66 perturbations)
Nucleus-orbit perturbations             ...  NO (   0 perturbations)
Spin-dipole/Fermi contact perturbations ...  NO (   0 perturbations)

Total number of real perturbations      ...     66
Total number of imaginary perturbations ...      0
Total number of triplet perturbations   ...      0
Total number of SOC perturbations       ...      0


                                **********************
                                * REAL PERTURBATIONS *
                                **********************



-------------------
SHARK CP-SCF DRIVER
-------------------

Dimension of the orbital basis          ...    649
Dimension of the CPSCF-problem          ...  53544
Number of operators                     ...      1
Max. number of iterations               ...    128
Convergence Tolerance                   ... 1.0e-03
Number of perturbations                 ...     66
Perturbation type                       ... REAL

----------------------------
POPLE LINEAR EQUATION SOLVER
----------------------------

  ITERATION   0:   ||err||_max =   4.1028e-01 ( 137.6 sec   0/ 66 done)
  ITERATION   1:   ||err||_max =   6.0321e-02 ( 149.4 sec   0/ 66 done)
  ITERATION   2:   ||err||_max =   1.9225e-02 ( 150.4 sec   0/ 66 done)
  ITERATION   3:   ||err||_max =   6.4260e-03 ( 152.2 sec   1/ 66 done)
  ITERATION   4:   ||err||_max =   2.4243e-03 ( 156.6 sec  23/ 66 done)
  ITERATION   5:   ||err||_max =   8.0742e-04 ( 105.5 sec  66/ 66 done)

CP-SCF equations solved in 856.8 sec
Response densities calculated in   0.4 sec

Maximum memory used throughout the entire SCFRESP-calculation: 532.3 MB

------------------------------------------------------------------------------
                              ORCA PROPERTY CALCULATIONS
------------------------------------------------------------------------------

GBWName                                 ... censo.gbw
Number of atoms                         ...     22
Number of basis functions               ...    649
Max core memory                         ...   1024 MB

Electric properties:
Dipole moment                           ... YES
Quadrupole moment                       ...  NO
Static polarizability (Dipole/Dipole)   ...  NO
Static polarizability (Dipole/Quad.)    ...  NO
Static polarizability (Quad./Quad.)     ...  NO
Static polarizability (Velocity)        ...  NO

Atomic electric properties:
Dipole moment                           ...  NO
Quadrupole moment                       ...  NO
Static polarizability                   ...  NO

Choice of electric origin               ... Center of mass
Position of electric origin             ...     0.008026     0.035478     0.010048

General magnetic properties:
Magnetizability                         ...  NO

EPR properties:
g-Tensor (aka g-matrix)                 ...  NO
Zero-Field splitting spin-orbit         ...  NO
Zero-field splitting spin-spin          ...  NO
Hyperfine couplings                     ...  NO (   0 nuclei)
Quadrupole couplings                    ...  NO (   0 nuclei)
Contact density                         ...  NO (   0 nuclei)

NMR properties:
Chemical shifts                         ...  NO (   0 nuclei)
Spin-rotation constants                 ...  NO (   0 nuclei)
Spin-spin couplings                     ...  NO (   0 nuclei,    0 pairs)

Choice of magnetic origin               ... GIAO
Position of magnetic origin             ...     0.000000     0.000000     0.000000

Properties with geometric perturbations:
SCF Hessian                             ... YES
IR spectrum                             ... YES
VCD spectrum                            ...  NO
X-ray spectroscopy properties:
SCF XES/XAS/RIXS spectra                ...  NO


-------------
DIPOLE MOMENT
-------------

Method             : SCF
Type of density    : Electron Density
Multiplicity       :   1
Irrep              :   0
Energy             : -3680.2974740784020469 Eh
Relativity type    : 
Basis              : AO
                                X                 Y                 Z
Electronic contribution:      1.794395778      -3.086926959      -1.247458398
Nuclear contribution   :     -1.569277160       3.287618418       1.348713767
                        -----------------------------------------
Total Dipole Moment    :      0.225118619       0.200691459       0.101255369
                        -----------------------------------------
Magnitude (a.u.)       :      0.318132212
Magnitude (Debye)      :      0.808627819



--------------------
Rotational spectrum 
--------------------
 
Rotational constants in cm-1:             0.011520             0.003345             0.002879 
Rotational constants in MHz :           345.360481           100.293126            86.296223 

Dipole components along the rotational axes: 
x,y,z [a.u.] :    -0.223022     0.204267     0.098712 
x,y,z [Debye]:    -0.566878     0.519206     0.250906 

 

Dipole moment calculation done in   0.1 sec 

-----------
SCF HESSIAN
-----------

Occupied/Occupied contributions to the Hessian:
   => Occupied/Occupied contributions              ... done (  0.1 sec)
Perturbed density contributions to the Hessian:
   => Perturbed density contributions              ... done (  0.7 sec)
Explicit contributions to the Hessian:
   => Nuclear repulsion Hessian                    ... done (  0.0 sec)
   => HCore and overlap Hessian                    ... done ( 88.1 sec)
   => RI-J Hessian                                 ... done ( 79.4 sec)
   => XC-Hessian                                   ... done (304.7 sec)
   => Van der Waals-Hessian                        ... done (  4.4 sec)
   => GCP-Hessian                                  ... done (  0.1 sec)
   => Explicit contributions done
Dipole derivatives                                 ... done (  0.9 sec)
[...]
     47      -0.000191  -0.001624   0.000082  -0.000002   0.000004  -0.000065
     48      -0.001300  -0.001657   0.000141  -0.000009   0.000008  -0.000002
     49       0.000784  -0.001773  -0.000036   0.000013  -0.000016   0.000002
     50       0.000260  -0.000762   0.000019   0.000003  -0.000008   0.000001
     51      -0.000507  -0.002666   0.000687   0.000015  -0.000015   0.000002
     52       0.001377   0.000919  -0.000042   0.000003  -0.000003   0.000001
     53       0.000526   0.000346  -0.000030  -0.000003  -0.000000  -0.000000
     54       0.002024  -0.001754   0.000079   0.000041  -0.000048  -0.000001
     55      -0.000151   0.001198   0.000066   0.000060  -0.000068   0.000001
     56      -0.000108   0.000399   0.000010   0.000025  -0.000028   0.000002
     57      -0.327847   0.037715   0.431683   0.029103   0.008704  -0.477444
     58       0.026434   0.039041   0.234759  -0.042326  -0.012464   0.711207
     59      -0.022713  -0.025456  -0.186418   0.030011   0.008916  -0.504791
     60       0.356858   0.037797   0.399668  -0.390446  -0.313493  -0.028268
     61      -0.004271  -0.035596  -0.252560  -0.541428  -0.435127  -0.040006
     62      -0.014342   0.007729   0.172258   0.394085   0.317157   0.029181
     63       0.102557   0.501068  -0.057812  -0.341391   0.425360  -0.012800
     64      -0.045703   0.382719  -0.034000   0.482417  -0.601976   0.018336
     65      -0.048047   0.151784  -0.025250   0.196760  -0.246218   0.007561


-----------
IR SPECTRUM
-----------

 Mode   freq       eps      Int      T**2         TX        TY        TZ
       cm**-1   L/(mol*cm) km/mol    a.u.
----------------------------------------------------------------------------
  6:     31.11   0.000002    0.01  0.000018  (-0.000322 -0.003051 -0.002935)
  7:     42.93   0.000025    0.13  0.000184  ( 0.000261  0.002912 -0.013254)
  8:     48.93   0.000024    0.12  0.000154  ( 0.003336  0.011152  0.004320)
  9:     84.72   0.000003    0.02  0.000012  ( 0.001654  0.002762 -0.001370)
 10:     88.41   0.000001    0.00  0.000003  (-0.001355 -0.001209  0.000074)
 11:     93.60   0.000039    0.20  0.000130  (-0.003104 -0.004072  0.010165)
 12:    152.60   0.000004    0.02  0.000009  (-0.002229  0.001833  0.000849)
 13:    189.83   0.000001    0.00  0.000001  (-0.000928 -0.000581  0.000264)
 14:    197.23   0.000008    0.04  0.000012  ( 0.003010 -0.001281 -0.001186)
 15:    212.53   0.000005    0.02  0.000007  (-0.002182 -0.001159 -0.000814)
 16:    215.19   0.000036    0.18  0.000052  ( 0.003327  0.006380  0.000615)
 17:    220.39   0.000011    0.06  0.000016  (-0.002019 -0.000699 -0.003352)
 18:    223.45   0.000006    0.03  0.000009  ( 0.002654 -0.000902 -0.000881)
 19:    232.80   0.000003    0.01  0.000003  (-0.001657 -0.000648 -0.000442)
 20:    244.38   0.000001    0.01  0.000001  ( 0.001129  0.000062 -0.000350)
 21:    275.72   0.000128    0.65  0.000145  (-0.002978 -0.003865  0.011025)
 22:    324.23   0.000151    0.76  0.000145  (-0.000746  0.006420  0.010179)
 23:    331.70   0.000011    0.06  0.000011  (-0.001494  0.002425  0.001593)
 24:    347.21   0.000008    0.04  0.000007  (-0.001453  0.002103  0.000666)
 25:    357.09   0.000022    0.11  0.000019  (-0.003011  0.002797  0.001382)
 26:    368.19   0.000132    0.67  0.000112  ( 0.003620  0.009883  0.000941)
 27:    445.99   0.000941    4.76  0.000659  ( 0.000033  0.023592 -0.010103)
 28:    504.23   0.008171   41.29  0.005057  (-0.070091  0.008445  0.008556)
 29:    512.17   0.001546    7.81  0.000942  (-0.027450  0.006316 -0.012198)
 30:    530.01   0.000459    2.32  0.000270  ( 0.009975  0.011775 -0.005683)
 31:    536.49   0.000022    0.11  0.000013  ( 0.003407 -0.000813  0.000701)
 32:    562.88   0.002166   10.95  0.001201  ( 0.025201  0.023069  0.005815)
 33:    565.98   0.000823    4.16  0.000454  ( 0.011013  0.014563  0.010976)
 34:    642.87   0.004417   22.32  0.002144  (-0.027412 -0.034223 -0.014888)
 35:    650.04   0.001394    7.05  0.000669  ( 0.012738  0.021283  0.007350)
 36:    665.66   0.000606    3.06  0.000284  (-0.004168 -0.011250 -0.011842)
 37:    720.82   0.000903    4.56  0.000391  (-0.000407 -0.010914 -0.016479)
 38:    736.90   0.000289    1.46  0.000122  (-0.003816 -0.009722  0.003660)
 39:    765.63   0.005575   28.17  0.002272  ( 0.016278  0.040921  0.018245)
 40:    798.33   0.016956   85.69  0.006628  ( 0.000922 -0.063637  0.050769)
 41:    822.98   0.008118   41.03  0.003078  (-0.028106  0.043704  0.019453)
 42:    879.70   0.003529   17.83  0.001252  (-0.004003 -0.003490 -0.034981)
 43:    893.35   0.000386    1.95  0.000135  (-0.002996 -0.001581  0.011102)
 44:    901.01   0.000182    0.92  0.000063  ( 0.002775 -0.006497 -0.003630)
 45:    917.02   0.000766    3.87  0.000261  ( 0.016009  0.001107  0.001743)
 46:   1048.00   0.003195   16.15  0.000951  (-0.030409  0.004606  0.002351)
 47:   1072.34   0.003491   17.64  0.001016  (-0.012824 -0.026052 -0.013148)
 48:   1132.60   0.006774   34.23  0.001866  (-0.039137  0.015545  0.009644)
 49:   1159.70   0.013694   69.21  0.003685  (-0.060701  0.000253  0.000601)
 50:   1188.80   0.007811   39.47  0.002050  (-0.038397 -0.021152 -0.011345)
 51:   1219.24   0.003536   17.87  0.000905  ( 0.002997  0.025537 -0.015620)
 52:   1282.52   0.001249    6.31  0.000304  ( 0.006561 -0.014975 -0.006054)
 53:   1301.78   0.003752   18.96  0.000899  (-0.004247  0.029622  0.001970)
 54:   1317.65   0.001555    7.86  0.000368  ( 0.004259 -0.018280  0.004011)
 55:   1356.14   0.015324   77.44  0.003526  (-0.015914  0.054438  0.017588)
 56:   1402.28   0.013893   70.21  0.003092  (-0.041205 -0.027500  0.025254)
 57:   1418.72   0.030321  153.23  0.006670  ( 0.076534  0.013453  0.025123)
 58:   1458.66   0.002054   10.38  0.000439  ( 0.018712 -0.008229 -0.004641)
 59:   1539.90   0.010479   52.96  0.002124  (-0.002426  0.045768 -0.004798)
 60:   1567.14   0.008644   43.68  0.001721  (-0.003697 -0.028976  0.029460)
 61:   1589.97   0.000993    5.02  0.000195  ( 0.013561  0.003230  0.000716)
 62:   1608.57   0.002584   13.06  0.000501  ( 0.022333 -0.000160 -0.001572)
 63:   3195.90   0.000034    0.17  0.000003  ( 0.000145  0.000005  0.001820)
 64:   3196.46   0.000141    0.71  0.000014  ( 0.000803 -0.003629  0.000009)
 65:   3202.41   0.000112    0.56  0.000011  (-0.000097  0.002795 -0.001750)

* The epsilon (eps) is given for a Dirac delta lineshape.
** The dipole moment derivative (T) already includes vibrational overlap.

The first frequency considered to be a vibration is 6
The total number of vibrations considered is 60


--------------------------
THERMOCHEMISTRY AT 298.15K
--------------------------

Temperature         ...   298.15 K
Pressure            ...     1.00 atm
Total Mass          ...   395.33 AMU
Quasi RRHO          ...     True
Cut-Off Frequency   ...     1.00 cm^-1

Throughout the following assumptions are being made:
  (1) The electronic state is orbitally nondegenerate
  (2) There are no thermally accessible electronically excited states
  (3) Hindered rotations indicated by low frequency modes are not
      treated as such but are treated as vibrations and this may
      cause some error
  (4) All equations used are the standard statistical mechanics
      equations for an ideal gas
  (5) All vibrations are strictly harmonic

freq.      31.11  E(vib)   ...       0.55 
freq.      42.93  E(vib)   ...       0.53 
freq.      48.93  E(vib)   ...       0.53 
freq.      84.72  E(vib)   ...       0.48 
freq.      88.41  E(vib)   ...       0.48 
freq.      93.60  E(vib)   ...       0.47 
freq.     152.60  E(vib)   ...       0.40 
freq.     189.83  E(vib)   ...       0.36 
freq.     197.23  E(vib)   ...       0.35 
freq.     212.53  E(vib)   ...       0.34 
freq.     215.19  E(vib)   ...       0.34 
freq.     220.39  E(vib)   ...       0.33 
freq.     223.45  E(vib)   ...       0.33 
freq.     232.80  E(vib)   ...       0.32 
freq.     244.38  E(vib)   ...       0.31 
freq.     275.72  E(vib)   ...       0.28 
freq.     324.23  E(vib)   ...       0.25 
freq.     331.70  E(vib)   ...       0.24 
freq.     347.21  E(vib)   ...       0.23 
freq.     357.09  E(vib)   ...       0.22 
freq.     368.19  E(vib)   ...       0.21 
freq.     445.99  E(vib)   ...       0.17 
freq.     504.23  E(vib)   ...       0.14 
freq.     512.17  E(vib)   ...       0.14 
freq.     530.01  E(vib)   ...       0.13 
freq.     536.49  E(vib)   ...       0.12 
freq.     562.88  E(vib)   ...       0.11 
freq.     565.98  E(vib)   ...       0.11 
freq.     642.87  E(vib)   ...       0.09 
freq.     650.04  E(vib)   ...       0.08 
freq.     665.66  E(vib)   ...       0.08 
freq.     720.82  E(vib)   ...       0.07 
freq.     736.90  E(vib)   ...       0.06 
freq.     765.63  E(vib)   ...       0.06 
freq.     798.33  E(vib)   ...       0.05 
freq.     822.98  E(vib)   ...       0.05 
freq.     879.70  E(vib)   ...       0.04 
freq.     893.35  E(vib)   ...       0.03 
freq.     901.01  E(vib)   ...       0.03 
freq.     917.02  E(vib)   ...       0.03 
freq.    1048.00  E(vib)   ...       0.02 
freq.    1072.34  E(vib)   ...       0.02 
freq.    1132.60  E(vib)   ...       0.01 
freq.    1159.70  E(vib)   ...       0.01 
freq.    1188.80  E(vib)   ...       0.01 
freq.    1219.24  E(vib)   ...       0.01 
freq.    1282.52  E(vib)   ...       0.01 
freq.    1301.78  E(vib)   ...       0.01 
freq.    1317.65  E(vib)   ...       0.01 
freq.    1356.14  E(vib)   ...       0.01 
freq.    1402.28  E(vib)   ...       0.00 
freq.    1418.72  E(vib)   ...       0.00 
freq.    1458.66  E(vib)   ...       0.00 
freq.    1539.90  E(vib)   ...       0.00 
freq.    1567.14  E(vib)   ...       0.00 
freq.    1589.97  E(vib)   ...       0.00 
freq.    1608.57  E(vib)   ...       0.00 
freq.    3195.90  E(vib)   ...       0.00 
freq.    3196.46  E(vib)   ...       0.00 
freq.    3202.41  E(vib)   ...       0.00 

------------
INNER ENERGY
------------

The inner energy is: U= E(el) + E(ZPE) + E(vib) + E(rot) + E(trans)
    E(el)   - is the total energy from the electronic structure calculation
              = E(kin-el) + E(nuc-el) + E(el-el) + E(nuc-nuc)
    E(ZPE)  - the the zero temperature vibrational energy from the frequency calculation
    E(vib)  - the the finite temperature correction to E(ZPE) due to population
              of excited vibrational states
    E(rot)  - is the rotational thermal energy
    E(trans)- is the translational thermal energy

Summary of contributions to the inner energy U:
Electronic energy                ...  -3680.29957670 Eh
Zero point energy                ...      0.11298130 Eh      70.90 kcal/mol
Thermal vibrational correction   ...      0.01477053 Eh       9.27 kcal/mol
Thermal rotational correction    ...      0.00141627 Eh       0.89 kcal/mol
Thermal translational correction ...      0.00141627 Eh       0.89 kcal/mol
-----------------------------------------------------------------------
Total thermal energy                  -3680.16899232 Eh


Summary of corrections to the electronic energy:
(perhaps to be used in another calculation)
Total thermal correction                  0.01760307 Eh      11.05 kcal/mol
Non-thermal (ZPE) correction              0.11298130 Eh      70.90 kcal/mol
-----------------------------------------------------------------------
Total correction                          0.13058437 Eh      81.94 kcal/mol


--------
ENTHALPY
--------

The enthalpy is H = U + kB*T
                kB is Boltzmann's constant
Total thermal energy              ...  -3680.16899232 Eh 
Thermal Enthalpy correction       ...      0.00094421 Eh       0.59 kcal/mol
-----------------------------------------------------------------------
Total Enthalpy                    ...  -3680.16804811 Eh


Note: Only C1 symmetry has been detected, increase convergence thresholds 
      if your molecule has a higher symmetry. Symmetry factor of 1.0 is   
      used for the rotational entropy correction. 
 

Note: Rotational entropy computed according to Herzberg 
Infrared and Raman Spectra, Chapter V,1, Van Nostrand Reinhold, 1945 
Point Group:  C1, Symmetry Number:   1  
Rotational constants in cm-1:     0.011520     0.003345     0.002879 

Vibrational entropy computed according to the QRRHO of S. Grimme
Chem.Eur.J. 2012 18 9955 using a reference frequency of 100.0 cm-1


-------
ENTROPY
-------

The entropy contributions are T*S = T*(S(el)+S(vib)+S(rot)+S(trans))
     S(el)   - electronic entropy
     S(vib)  - vibrational entropy
     S(rot)  - rotational entropy
     S(trans)- translational entropy
The entropies will be listed as multiplied by the temperature to get
units of energy

Electronic entropy                ...      0.00000000 Eh      0.00 kcal/mol
Vibrational entropy               ...      0.02607429 Eh     16.36 kcal/mol
Rotational entropy                ...      0.01707101 Eh     10.71 kcal/mol
Translational entropy             ...      0.02081797 Eh     13.06 kcal/mol
-----------------------------------------------------------------------
Final entropy term                ...      0.06396328 Eh     40.14 kcal/mol

In case the symmetry of your molecule has not been determined correctly
or in case you have a reason to use a different symmetry number we print 
out the resulting rotational entropy values for sn=1,12:

 non-linear molecules -----------------------------------
|  sn= 1 | S(rot)=       0.01707101 Eh     10.71 kcal/mol|
|  sn= 2 | S(rot)=       0.01641656 Eh     10.30 kcal/mol|
|  sn= 3 | S(rot)=       0.01603372 Eh     10.06 kcal/mol|
|  sn= 4 | S(rot)=       0.01576210 Eh      9.89 kcal/mol|
|  sn= 5 | S(rot)=       0.01555141 Eh      9.76 kcal/mol|
|  sn= 6 | S(rot)=       0.01537927 Eh      9.65 kcal/mol|
|  sn= 7 | S(rot)=       0.01523372 Eh      9.56 kcal/mol|
|  sn= 8 | S(rot)=       0.01510764 Eh      9.48 kcal/mol|
|  sn= 9 | S(rot)=       0.01499644 Eh      9.41 kcal/mol|
|  sn=10 | S(rot)=       0.01489696 Eh      9.35 kcal/mol|
|  sn=11 | S(rot)=       0.01480697 Eh      9.29 kcal/mol|
|  sn=12 | S(rot)=       0.01472481 Eh      9.24 kcal/mol|
 linear molecules ---------------------------------------
|  Dinfh | S(rot)=       0.01084971 Eh      6.81 kcal/mol|
|  Cinfv | S(rot)=       0.01150417 Eh      7.22 kcal/mol|
 --------------------------------------------------------


-------------------
GIBBS FREE ENERGY
-------------------

The Gibbs free energy is G = H - T*S

Total enthalpy                    ...  -3680.16804811 Eh 
Total entropy correction          ...     -0.06396328 Eh    -40.14 kcal/mol
-----------------------------------------------------------------------
Final Gibbs free energy         ...  -3680.23201139 Eh

For completeness - the Gibbs free energy minus the electronic energy
G-E(el)                           ...      0.06756531 Eh     42.40 kcal/mol


Maximum memory used throughout the entire PROP-calculation: 132.7 MB

--------------------------------
SUGGESTED CITATIONS FOR THIS RUN
--------------------------------

Below you find a list of papers that are relevant to this ORCA run
We neither can nor want to force you to cite these papers, but we appreciate if you do
You receive ORCA, which is the product of decades of hard work by many enthusiastic individuals, for free
The only thing we kindly ask in return is that you cite our papers,
We deeply appreciate it, if you show your appreciation for ORCA by not just citing the generic ORCA reference.

Please note that relegating all ORCA citations to the supporting information does *not* help us.
SI sections are not indexed - citations you put there will not count into any citation statistics
But we need these citations in order to attract the funding resources that allow us to do what we are doing

Therefore, if you are a happy ORCA user, please consider citing a few of the papers listed below in the main body of your paper

In addition to the list printed below, the program has created the file censo.bibtex that contains the list in bibtex format
You can import this file easily into all common literature databanks and citation aid programs


List of essential papers. We consider these as the minimum necessary citations

  1. Neese,F.
     Software update: the ORCA program system, version 5.0
     WIRES Comput. Molec. Sci., 2022 12(1)e1606
     doi.org/10.1002/wcms.1606
  2. Grimme,S.; Hansen,A.; Ehlert,S.; Mewes,J.
     r2SCAN-3c: A 'Swiss army knife' composite electronic-structure method
     J. Chem. Phys., 2021 154 064103
     doi.org/10.1063/5.0040021

List of papers to cite with high priority. The work reported in these papers was absolutely
necessary for this run to complete.
Our perspective: the developers of density functionals and basis sets usually get cited in chemistry papers
Good! But without the algorithms to do something with them, the functionals or basis sets would not do anything.
Hence, in our opinion, the algorithm design and method developments papers are equally worthy of getting cited

  1. Neese,F.
     An improvement of the resolution of the identity approximation for the formation of the Coulomb matrix
     J. Comp. Chem., 2003 24(14)1740-1747
     doi.org/10.1002/jcc.10318
  2. Bykov,D.; Petrenko,T.; Izsak,R.; Kossmann,S.; Becker,U.; Valeev,E.; Neese,F.
     Efficient implementation of the analytic second derivatives of Hartree-Fock and hybrid DFT energies: a detailed analysis of different approximations
     Molec. Phys., 2015 113 1961-1977
     doi.org/10.1080/00268976.2015.1025114
  3. Neese,F.
     The SHARK Integral Generation and Digestion System
     J. Comp. Chem., 2022  1-16
     doi.org/10.1002/jcc.26942
  4. Lehtola,S.; Steigemann,C.; Oliveira,M.; Marques,M.
     Recent developments in Libxc - A comprehensive library of functionals for density functional theory
     Software X, 2018 7 
     doi.org/10.1016/j.softx.2017.11.002
  5. Caldeweyher,E.; Bannwarth,C.; Grimme,S.
     Extension of the D3 dispersion coefficient model
     J. Chem. Phys., 2017 147 034112-XXXX
     doi.org/10.1063/1.4993215
  6. Caldeweyher,E.; Ehlert,S.; Hansen,A.; Neugebauer,H.; Spicher,S.; Bannwarth,C.; Grimme,S.
     A generally applicable atomic-charge dependent London dispersion correction
     J. Chem. Phys., 2019 150 154122-XXXX
     doi.org/10.1063/1.5090222
  7. Caldeweyher,E.; Mewes,J.; Ehlert,S.; Grimme,S.
     Extension and evaluation of the D4 London-dispersion model for periodic systems
     Phys. Chem. Chem. Phys., 2020 22(16)8499-8512
     doi.org/10.1039/D0CP00502A

List of suggested additional citations. These are papers that are important in the 'surrounding' of 
of this run, or papers that preceded the highly important papers. If you like your results we are grateful for a citation.

  1. Neese,F.
     The ORCA program system
     WIRES Comput. Molec. Sci., 2012 2(1)73-78
     doi.org/10.1002/wcms.81
  2. Neese,F.
     Software update: the ORCA program system, version 4.0
     WIRES Comput. Molec. Sci., 2018 8(1)1-6
     doi.org/10.1002/wcms.1327
  3. Neese,F.; Wennmohs,F.; Becker,U.; Riplinger,C.
     The ORCA quantum chemistry program package
     J. Chem. Phys., 2020 152 Art. No. L224108
     doi.org/10.1063/5.0004608

List of optional additional citations

  1. Neese,F.
     Approximate second-order SCF convergence for spin unrestricted wavefunctions
     Chem. Phys. Lett., 2000 325(1-3)93-98
     doi.org/10.1016/s0009-2614(00)00662-x

Timings for individual modules:

Sum of individual times          ...     3093.473 sec (=  51.558 min)
Startup calculation              ...        2.903 sec (=   0.048 min)   0.1 %
SCF iterations                   ...      109.072 sec (=   1.818 min)   3.5 %
Property integrals               ...     1642.862 sec (=  27.381 min)  53.1 %
SCF Response                     ...      859.889 sec (=  14.331 min)  27.8 %
Property calculations            ...      478.747 sec (=   7.979 min)  15.5 %
                             ****ORCA TERMINATED NORMALLY****
TOTAL RUN TIME: 0 days 0 hours 51 minutes 34 seconds 268 msec
