      -----------------------------------------------------------      
     |                   =====================                   |     
     |                           x T B                           |     
     |                   =====================                   |     
     |                         S. Grimme                         |     
     |          Mulliken Center for Theoretical Chemistry        |     
     |                    University of Bonn                     |     
      -----------------------------------------------------------      

   * xtb version 6.7.1 (edcfbbe) compiled by 'albert@albert-system' on 2024-07-22

   xtb is free software: you can redistribute it and/or modify it under
   the terms of the GNU Lesser General Public License as published by
   the Free Software Foundation, either version 3 of the License, or
   (at your option) any later version.
   
   xtb is distributed in the hope that it will be useful,
   but WITHOUT ANY WARRANTY; without even the implied warranty of
   MERCHANTABILITY or FITNESS FOR A PARTICULAR PURPOSE.  See the
   GNU Lesser General Public License for more details.
   
   Cite this work as:
   * C. Bannwarth, E. Caldeweyher, S. Ehlert, A. Hansen, P. Pracht,
     J. Seibert, S. Spicher, S. Grimme, WIREs Comput. Mol. Sci., 2020, 11,
     e01493. DOI: 10.1002/wcms.1493
   
   for GFN2-xTB:
   * C. Bannwarth, S. Ehlert and S. Grimme., J. Chem. Theory Comput., 2019,
     15, 1652-1671. DOI: 10.1021/acs.jctc.8b01176
   for GFN1-xTB:
   * S. Grimme, C. Bannwarth, P. Shushkov, J. Chem. Theory Comput., 2017,
     13, 1989-2009. DOI: 10.1021/acs.jctc.7b00118
   for GFN0-xTB:
   * P. Pracht, E. Caldeweyher, S. Ehlert, S. Grimme, ChemRxiv, 2019, preprint.
     DOI: 10.26434/chemrxiv.8326202.v1
   for GFN-FF:
   * S. Spicher and S. Grimme, Angew. Chem. Int. Ed., 2020, 59, 15665-15673.
     DOI: 10.1002/anie.202004239
   
   for ALPB and GBSA implicit solvation:
   * S. Ehlert, M. Stahn, S. Spicher, S. Grimme, J. Chem. Theory Comput.,
     2021, 17, 4250-4261. DOI: 10.1021/acs.jctc.1c00471
   
   for ddCOSMO and CPCM-X implicit solvation:
   * M. Stahn, S. Ehlert, S. Grimme, J. Phys. Chem. A,
     2023, XX, XXXX-XXXX. DOI: 10.1021/acs.jpca.3c04382
   
   for DFT-D4:
   * E. Caldeweyher, C. Bannwarth and S. Grimme, J. Chem. Phys., 2017,
     147, 034112. DOI: 10.1063/1.4993215
   * E. Caldeweyher, S. Ehlert, A. Hansen, H. Neugebauer, S. Spicher,
     C. Bannwarth and S. Grimme, J. Chem. Phys., 2019, 150, 154122.
     DOI: 10.1063/1.5090222
   * E. Caldeweyher, J.-M. Mewes, S. Ehlert and S. Grimme, Phys. Chem. Chem. Phys.
     2020, 22, 8499-8512. DOI: 10.1039/D0CP00502A
   
   for sTDA-xTB:
   * S. Grimme and C. Bannwarth, J. Chem. Phys., 2016, 145, 054103.
     DOI: 10.1063/1.4959605
   
   in the mass-spec context:
   * V. Asgeirsson, C. Bauer and S. Grimme, Chem. Sci., 2017, 8, 4879.
     DOI: 10.1039/c7sc00601b
   * J. Koopman and S. Grimme, ACS Omega 2019, 4, 12, 15120-15133.
     DOI: 10.1021/acsomega.9b02011
   
   for metadynamics refer to:
   * S. Grimme, J. Chem. Theory Comput., 2019, 155, 2847-2862
     DOI: 10.1021/acs.jctc.9b00143
   
   for SPH calculations refer to:
   * S. Spicher and S. Grimme, J. Chem. Theory Comput., 2021, 17, 1701-1714
     DOI: 10.1021/acs.jctc.0c01306
   
   for ONIOM refer to:
   * C. Plett, A. Katbashev, S. Ehlert, S. Grimme, M. Bursch,
     Phys. Chem. Chem. Phys., 2023, 25, 17860-17868. DOI: 10.1039/D3CP02178E
   
   for DIPRO refer to:
   * J. Kohn, N. Gildemeister, S. Grimme, D. Fazzi, A. Hansen,
     J. Chem. Phys., 2023, just accepted.
   
   for PTB refer to:
   * S. Grimme, M. Mueller, A. Hansen, J. Chem. Phys., 2023, 158, 124111.
     DOI: 10.1063/5.0137838
   
   with help from (in alphabetical order)
   P. Atkinson, C. Bannwarth, F. Bohle, G. Brandenburg, E. Caldeweyher
   M. Checinski, S. Dohm, S. Ehlert, S. Ehrlich, I. Gerasimov, C. Hölzer
   A. Katbashev, J. Kohn, J. Koopman, C. Lavigne, S. Lehtola, F. März, M. Müller,
   F. Musil, H. Neugebauer, J. Pisarek, C. Plett, P. Pracht, F. Pultar,
   J. Seibert, P. Shushkov, S. Spicher, M. Stahn, M. Steiner, T. Strunk,
   J. Stückrath, T. Rose, and J. Unsleber
   
 * started run on 2025/04/15 at 19:56:06.723     
   ID    Z sym.   atoms
    1    6 C      1, 3, 5-7
    2    8 O      2, 4
    3    1 H      8-15

           -------------------------------------------------
          |                Calculation Setup                |
           -------------------------------------------------

          program call               : /software/projects/pawsey0265/mwang1/xtb/bin/xtb xtb_opt.coord --opt normal --orca -I xtb_opt-xcontrol-inp
          hostname                   : nid002793
          coordinate file            : xtb_opt.coord
          omp threads                :                    16

           -------------------------------------------------
          |                   Orca driver                   |
           -------------------------------------------------
orca executable           : /software/projects/pawsey0265/mwang1/orca_avx2/orca
orca input file           : xtb_opt.inp
orca input line           : 
orca parallel             : true
orca number of threads    : 16
                         * ORCA takes the control...
  ------------------------------------------------------------------------

                                 *****************
                                 * O   R   C   A *
                                 *****************

                                            #,                                       
                                            ###                                      
                                            ####                                     
                                            #####                                    
                                            ######                                   
                                           ########,                                 
                                     ,,################,,,,,                         
                               ,,#################################,,                 
                          ,,##########################################,,             
                       ,#########################################, ''#####,          
                    ,#############################################,,   '####,        
                  ,##################################################,,,,####,       
                ,###########''''           ''''###############################       
              ,#####''   ,,,,##########,,,,          '''####'''          '####       
            ,##' ,,,,###########################,,,                        '##       
           ' ,,###''''                  '''############,,,                           
         ,,##''                                '''############,,,,        ,,,,,,###''
      ,#''                                            '''#######################'''  
     '                                                          ''''####''''         
             ,#######,   #######,   ,#######,      ##                                
            ,#'     '#,  ##    ##  ,#'     '#,    #''#        ,####,   ,####,        
            ##       ##  ##   ,#'  ##            #'  '#       #'       #'  '#        
            ##       ##  #######   ##           ,######,      #####,   #    #        
            '#,     ,#'  ##    ##  '#,     ,#' ,#      #,     #,   #   #,  ,#        
             '#######'   ##     ##  '#######'  #'      '#     '####' # '####'        



                #########################################################
                #                        -***-                          #
                #          Department of theory and spectroscopy        #
                #                                                       #
                #                      Frank Neese                      #
                #                                                       #
                #     Directorship, Architecture, Infrastructure        #
                #                    SHARK, DRIVERS                     #
                #        Core code/Algorithms in most modules           #
                #                                                       #
                #        Max Planck Institute fuer Kohlenforschung      #
                #                Kaiser Wilhelm Platz 1                 #
                #                 D-45470 Muelheim/Ruhr                 #
                #                      Germany                          #
                #                                                       #
                #                  All rights reserved                  #
                #                        -***-                          #
                #########################################################


                         Program Version 6.0.1  -  RELEASE   -


 With contributions from (in alphabetic order):
[Max-Planck-Institut fuer Kohlenforschung]                               
  Daniel Aravena         : Magnetic Suceptibility                        
  Michael Atanasov       : Ab Initio Ligand Field Theory (pilot matlab implementation)
  Alexander A. Auer      : GIAO ZORA, VPT2 properties, NMR spectrum      
  Ute Becker             : All parallelization in ORCA, NUMFREQ, NUMCALC 
  Giovanni Bistoni       : ED, misc. LED, open-shell LED, HFLD           
  Martin Brehm           : Molecular dynamics                            
  Dmytro Bykov           : pre 5.0 version of the SCF Hessian            
  Marcos Casanova-Páez   : Triplet and SCS-CIS(D). UHF-(DLPNO)-IP/EA/STEOM-CCSD. UHF-CVS-IP/STEOM-CCSD   
  Vijay G. Chilkuri      : MRCI spin determinant printing, contributions to CSF-ICE 
  Pauline Colinet        : FMM embedding                                 
  Dipayan Datta          : RHF DLPNO-CCSD density                        
  Achintya Kumar Dutta   : EOM-CC, STEOM-CC                              
  Nicolas Foglia         : Exact transition moments, OPA infrastructure, MCD improvements    
  Dmitry Ganyushin       : Spin-Orbit,Spin-Spin,Magnetic field MRCI      
  Miquel Garcia-Rates    : C-PCM and meta-GGA Hessian, CCSD/C-PCM, Gaussian charge scheme 
  Tiago L. C. Gouveia    : GS-ROHF, GS-ROCIS                             
  Yang Guo               : DLPNO-NEVPT2, F12-NEVPT2, CIM, IAO-localization        
  Andreas Hansen         : Spin unrestricted coupled pair/coupled cluster methods 
  Ingolf Harden          : AUTO-CI MPn and infrastructure                
  Benjamin Helmich-Paris : MC-RPA, TRAH-(SCF,CASSCF), AVAS, COSX integrals, SCF dyn. polar. 
  Lee Huntington         : MR-EOM, pCC                                   
  Robert Izsak           : Overlap fitted RIJCOSX, COSX-SCS-MP3, EOM     
  Riya Kayal             : Wick's Theorem for AUTO-CI, AUTO-CI UHF-CCSDT 
  Emily Kempfer          : AUTO-CI, RHF CISDT and CCSDT                  
  Christian Kollmar      : KDIIS, OOCD, Brueckner-CCSD(T), CCSD density, CASPT2, CASPT2-K, improved NEVPT2 
  Axel Koslowski         : Symmetry handling                             
  Simone Kossmann        : meta-GGA functionals, TD-DFT gradient, OOMP2, (MP2 Hessian; deprecated post 5.0) 
  Lucas Lang             : DCDCAS                                        
  Marvin Lechner         : AUTO-CI (C++ implementation), FIC-MRCC        
  Spencer Leger          : CASSCF response                               
  Dagmar Lenk            : GEPOL surface, SMD, ORCA-2-JSON               
  Dimitrios Liakos       : Extrapolation schemes; Compound Job, initial MDCI parallelization 
  Dimitrios Manganas     : Further ROCIS development; embedding schemes. LFT, Crystal Embedding 
  Dimitrios Pantazis     : SARC Basis sets                               
  Anastasios Papadopoulos: AUTO-CI, single reference methods and gradients 
  Taras Petrenko         : pre 6.0 DFT Hessian and TD-DFT gradient, (ASA, deprecated), ECA, 1-Electron XAS/XES, NRVS 
  Peter Pinski           : DLPNO-MP2, DLPNO-MP2 Gradient                 
  Christoph Reimann      : Effective Core Potentials                     
  Marius Retegan         : Local ZFS, SOC                                
  Christoph Riplinger    : Optimizer, TS searches, QM/MM, DLPNO-CCSD(T), (RO)-DLPNO pert. Triples 
  Michael Roemelt        : Original ROCIS implementation                 
  Masaaki Saitow         : Open-shell DLPNO-CCSD energy and density      
  Barbara Sandhoefer     : DKH picture change effects                    
  Kantharuban Sivalingam : CASSCF convergence/infrastructure, NEVPT2 and variants, FIC-MRCI 
  Bernardo de Souza      : ESD, SOC TD-DFT                               
  Georgi L. Stoychev     : AutoAux, RI-MP2 NMR, DLPNO-MP2 response, X2C  
  Van Anh Tran           : RI-MP2 g-tensors                              
  Willem Van den Heuvel  : Paramagnetic NMR                              
  Zikuan Wang            : NOTCH, Electric field optimization            
  Frank Wennmohs         : Technical directorship and infrastructure     
  Hang Xu                : AUTO-CI-Response properties                   
                                                                         
[FACCTs GmbH]                                                            
  Markus Bursch, Miquel Garcia-Rates, Christoph Riplinger, Bernardo de Souza, Georgi L. Stoychev 
                                                                 
  APM, Basis sets (HGBS, AHGBS, def-TZVP (Ac-Lr), def2-XVPD (La-Lu)), CI-OPT, improved COSX, DLPNO-Multilevel,           
  DOCKER, DRACO, updates on ESD, GOAT, IRC, LR-CPCM, MBIS, meta-GGA TD-DFT gradient, ML-optimized integration grids, 
  MM, NACMEs, nearIR, NEB, NEB-TS, NL-DFT gradient (VV10), 2- and 3-layer-ONIOM, interface openCOSMO-RS, QMMM,   
  Crystal-QMMM, SF, symmetry and pop. for TD-DFT, r2SCAN hybrids, SOLVATOR                                   
                                                                         
[Other institutions]                                                     
  V. Asgeirsson          : NEB                                           
  Christoph Bannwarth    : sTDA-DFT, sTD-DFT, PBEh-3c, B97-3c, D3        
  Sebastian Ehlert       : rSCAN, r2SCAN, r2SCAN-3c, D4, dhf basis sets  
  Marvin Friede          : D4 for Fr, Ra, Ac-Lr                          
  Lars Goerigk           : TD-DFT with DH, B97 family of functionals     
  Stefan Grimme          : VdW corrections, initial TS optimization, DFT functionals, gCP, sTDA/sTD-DF 
  Waldemar Hujo          : DFT-NL                                        
  H. Jonsson             : NEB                                           
  Holger Kruse           : gCP                                           
  Marcel Mueller         : wB97X-3c, vDZP basis set                      
  Hagen Neugebauer       : wr2SCAN                                       
  Tobias Risthaus        : range-separated hybrid DFT                    
  Lukas Wittmann         : regularized MP2, r2SCAN double-hybrids, wr2SCAN        
                                                                         
We gratefully acknowledge several colleagues who have allowed us to      
interface, adapt or use parts of their codes:                            
  Ed Valeev, F. Pavosevic, A. Kumar             : LibInt (2-el integral package), F12 methods 
  Garnet Chan, S. Sharma, J. Yang, R. Olivares  : DMRG                   
  Ulf Ekstrom                                   : XCFun DFT Library      
  Mihaly Kallay                                 : mrcc  (arbitrary order and MRCC methods)
  Frank Weinhold                                : gennbo (NPA and NBO analysis)           
  Simon Mueller                                 : openCOSMO-RS                            
  Christopher J. Cramer and Donald G. Truhlar   : smd solvation model                     
  S Lehtola, MJT Oliveira, MAL Marques          : LibXC Library                           
  Liviu Ungur et al                             : ANISO software                          


 Your calculation uses the libint2 library for the computation of 2-el integrals
 For citations please refer to: http://libint.valeyev.net

 Your ORCA version has been built with support for libXC version: 6.2.2
 For citations please refer to: https://libxc.gitlab.io

 This ORCA versions uses:
   CBLAS   interface :  Fast vector & matrix operations
   LAPACKE interface :  Fast linear algebra routines
   SCALAPACK package :  Parallel linear algebra routines
   Shared memory     :  Shared parallel matrices
   BLAS/LAPACK       :  OpenBLAS 0.3.27  USE64BITINT DYNAMIC_ARCH NO_AFFINITY Zen SINGLE_THREADED
        Core in use  :  Zen
   Copyright (c) 2011-2014, The OpenBLAS Project




***************************************
The coordinates will be read from file: xtb_opt.xyz
***************************************


Your calculation utilizes the geometrical counterpoise correction gCP
Please cite in your paper:
H.Kruse, S. Grimme J.Chem.Phys., 136, (2012), 154101 
   

Your calculation utilizes the atom-pairwise dispersion correction
based on EEQ partial charges (D4)


================================================================================

----- Orbital basis set information -----
Your calculation utilizes the basis: def2-mTZVPP
   Stefan Grimme, Andreas Hansen, Sebastian Ehlert, and Jan-Michael Mewes 
   J. Chem. Phys. 154, 064103 (2021). DOI: 10.1063/5.0040021

----- AuxJ basis set information -----
Your calculation utilizes the auxiliary basis: def2/J
   F. Weigend, Phys. Chem. Chem. Phys. 8, 1057 (2006).

================================================================================
                                        WARNINGS
                       Please study these warnings very carefully!
================================================================================

WARNING: Old DensityContainer found on disk!
         Will remove this file - 
         If you want to keep old densities, please start your calculation with a different basename. 



WARNING: SCAN, rSCAN, or r2SCAN functional requested.
  ===> : libXC variant has now been activated.



================================================================================
                                       INPUT FILE
================================================================================
NAME = xtb_opt.inp
|  1> ! r2scan-3c def2/J RI DEFGRID2 scfconv7 ENGRAD tightSCF miniprint
|  2> * xyzfile 0 1 xtb_opt.xyz
|  3> 
|  4>                          ****END OF INPUT****
================================================================================

                     *******************************
                     * Energy+Gradient Calculation *
                     *******************************

---------------------------------
CARTESIAN COORDINATES (ANGSTROEM)
---------------------------------
  C     -2.352339   -0.577865    0.011015
  O     -0.913622   -0.645986    0.025956
  C     -0.287559    0.558147   -0.054321
  O     -0.880657    1.611247   -0.127483
  C      1.184636    0.424073   -0.043636
  C      1.852812   -0.670242    0.768340
  C      1.852617   -0.760248   -0.717936
  H     -2.704039   -0.147927   -0.931321
  H     -2.715790    0.036489    0.839488
  H     -2.694641   -1.607990    0.115049
  H      1.685235    1.382972   -0.102389
  H      2.773865   -0.398477    1.271907
  H      1.197948   -1.338030    1.315102
  H      2.773212   -0.551396   -1.251428
  H      1.197631   -1.489164   -1.180136

----------------------------
CARTESIAN COORDINATES (A.U.)
----------------------------
  NO LB      ZA    FRAG     MASS         X           Y           Z
   0 C     6.0000    0    12.011   -4.445277   -1.092006    0.020816
   1 O     8.0000    0    15.999   -1.726496   -1.220736    0.049050
   2 C     6.0000    0    12.011   -0.543407    1.054744   -0.102652
   3 O     8.0000    0    15.999   -1.664200    3.044815   -0.240908
   4 C     6.0000    0    12.011    2.238638    0.801382   -0.082459
   5 C     6.0000    0    12.011    3.501307   -1.266574    1.451953
   6 C     6.0000    0    12.011    3.500940   -1.436661   -1.356703
   7 H     1.0000    0     1.008   -5.109894   -0.279542   -1.759941
   8 H     1.0000    0     1.008   -5.132100    0.068954    1.586402
   9 H     1.0000    0     1.008   -5.092134   -3.038660    0.217412
  10 H     1.0000    0     1.008    3.184632    2.613438   -0.193487
  11 H     1.0000    0     1.008    5.241846   -0.753012    2.403555
  12 H     1.0000    0     1.008    2.263793   -2.528511    2.485182
  13 H     1.0000    0     1.008    5.240612   -1.041988   -2.364856
  14 H     1.0000    0     1.008    2.263195   -2.814112   -2.230134

------------------------------------------------------------------------------
                   ___                                                        
                  /   \      - P O W E R E D   B Y -                         
                 /     \                                                     
                 |  |  |   _    _      __       _____    __    __             
                 |  |  |  | |  | |    /  \     |  _  \  |  |  /  |          
                  \  \/   | |  | |   /    \    | | | |  |  | /  /          
                 / \  \   | |__| |  /  /\  \   | |_| |  |  |/  /          
                |  |  |   |  __  | /  /__\  \  |    /   |      \           
                |  |  |   | |  | | |   __   |  |    \   |  |\   \          
                \     /   | |  | | |  |  |  |  | |\  \  |  | \   \       
                 \___/    |_|  |_| |__|  |__|  |_| \__\ |__|  \__/        
                                                                              
                      - O R C A' S   B I G   F R I E N D -                    
                                      &                                       
                       - I N T E G R A L  F E E D E R -                       
                                                                              
 v1 FN, 2020, v2 2021, v3 2022-2024                                           
------------------------------------------------------------------------------


----------------------
SHARK INTEGRAL PACKAGE
----------------------

Number of atoms                             ...     15
Number of basis functions                   ...    183
Number of shells                            ...     89
Maximum angular momentum                    ...      2
Integral batch strategy                     ... SHARK/LIBINT Hybrid
RI-J (if used) integral strategy            ... SPLIT-RIJ (Revised 2003 algorithm where possible)
Printlevel                                  ...      1
Contraction scheme used                     ... SEGMENTED contraction
Prescreening option                         ... SCHWARTZ
   Thresh                                   ... 3.000e-11
   Tcut                                     ... 1.000e-12
   Tpresel                                  ... 1.000e-12 
Coulomb Range Separation                    ... NOT USED
Exchange Range Separation                   ... NOT USED
Multipole approximations                    ... NOT USED
Finite Nucleus Model                        ... NOT USED
CABS basis                                  ... NOT available
Auxiliary Coulomb fitting basis             ... AVAILABLE
   # of basis functions in Aux-J            ...    431
   # of shells in Aux-J                     ...    145
   Maximum angular momentum in Aux-J        ...      4
Auxiliary J/K fitting basis                 ... NOT available
Auxiliary Correlation fitting basis         ... NOT available
Auxiliary 'external' fitting basis          ... NOT available

Checking pre-screening integrals            ... done (  0.0 sec) Dimension = 89
Check shell pair data                       ... done (  0.0 sec)
Shell pair information
Shell pair cut-off parameter TPreSel        ...   1.0e-12
Total number of shell pairs                 ...      4005
Shell pairs after pre-screening             ...      3704
Total number of primitive shell pairs       ...     14374
Primitive shell pairs kept                  ...      9703
          la=0 lb=0:   1189 shell pairs
          la=1 lb=0:   1373 shell pairs
          la=1 lb=1:    409 shell pairs
          la=2 lb=0:    437 shell pairs
          la=2 lb=1:    251 shell pairs
          la=2 lb=2:     45 shell pairs

Calculating one electron integrals          ... done (  0.0 sec)
Calculating RI/J V-Matrix + Cholesky decomp.... done (  0.0 sec)
Calculating Nuclear repulsion               ... done (  0.0 sec) ENN=    306.621304237342 Eh

Diagonalization of the overlap matrix:
Smallest eigenvalue                        ... 1.538e-04
Time for diagonalization                   ...    0.003 sec
Threshold for overlap eigenvalues          ... 1.000e-07
Number of eigenvalues below threshold      ... 0
Time for construction of square roots      ...    0.004 sec
Total time needed                          ...    0.008 sec

-------------------
DFT GRID GENERATION
-------------------

General Integration Accuracy     IntAcc      ... 4.388
Radial Grid Type                 RadialGrid  ... OptM3 with GC (2021)
Angular Grid (max. ang.)         AngularGrid ... 4 (Lebedev-302)
Angular grid pruning method      GridPruning ... 4 (adaptive)
Weight generation scheme         WeightScheme... mBecke (2022)
Basis function cutoff            BFCut       ... 1.0000e-11
Integration weight cutoff        WCut        ... 1.0000e-14
Partially contracted basis set               ... off
Rotationally invariant grid construction     ... off
Angular grids for H and He will be reduced by one unit
Diffuse basis detected: some atoms will have their outermost
                        angular grid increased by 1.

Total number of grid points                  ...    68696
Total number of batches                      ...     1083
Average number of points per batch           ...       63
Average number of grid points per atom       ...     4580
Initializing property integral containers    ... done (  0.0 sec)

SHARK setup successfully completed in   0.6 seconds

Maximum memory used throughout the entire STARTUP-calculation: 31.7 MB
Occupation numbers will be reassigned to an Aufbau configuration
             **** ENERGY FILE WAS UPDATED (xtb_opt.en.tmp) ****
Finished Guess after   0.1 sec
Maximum memory used throughout the entire GUESS-calculation: 13.1 MB
----------------------------------------D-I-I-S--------------------------------------------
Iteration    Energy (Eh)           Delta-E    RMSDP     MaxDP     DIISErr   Damp  Time(sec)
-------------------------------------------------------------------------------------------
               ***  Starting incremental Fock matrix formation  ***
                              *** Initializing SOSCF ***
---------------------------------------S-O-S-C-F--------------------------------------
Iteration    Energy (Eh)           Delta-E    RMSDP     MaxDP     MaxGrad    Time(sec)
--------------------------------------------------------------------------------------
    1    -345.7048124458152074     0.00e+00  3.74e-07  1.51e-05  1.25e-06     1.3
               *** Restarting incremental Fock matrix formation ***
    2    -345.7048124459020642    -8.69e-11  3.89e-07  1.37e-05  1.92e-06     1.3
                  *** Gradient check signals convergence ***

               *****************************************************
               *                     SUCCESS                       *
               *           SCF CONVERGED AFTER   2 CYCLES          *
               *****************************************************

             **** ENERGY FILE WAS UPDATED (xtb_opt.en.tmp) ****

----------------
TOTAL SCF ENERGY
----------------

Total Energy       :       -345.70481244590206 Eh           -9407.10619 eV

Components:
Nuclear Repulsion  :        306.62130423734192 Eh            8343.58987 eV
Electronic Energy  :       -652.32611668324398 Eh          -17750.69606 eV
One Electron Energy:      -1077.17554626774745 Eh          -29311.43678 eV
Two Electron Energy:        424.84942958450347 Eh           11560.74072 eV

Virial components:
Potential Energy   :       -689.89703575214003 Eh          -18773.05275 eV
Kinetic Energy     :        344.19222330623791 Eh            9365.94655 eV
Virial Ratio       :          2.00439460579654

DFT components:
N(Alpha)           :       27.000013747410 electrons
N(Beta)            :       27.000013747410 electrons
N(Total)           :       54.000027494821 electrons
E(X)               :      -45.420102396825 Eh       
E(C)               :       -1.746106445835 Eh       
E(XC)              :      -47.166208842660 Eh       

---------------
SCF CONVERGENCE
---------------

  Last Energy change         ...    8.6857e-11  Tolerance :   1.0000e-07
  Last MAX-Density change    ...    1.3651e-05  Tolerance :   1.0000e-07
  Last RMS-Density change    ...    3.8893e-07  Tolerance :   5.0000e-09
  Last DIIS Error            ...    1.0833e-05  Tolerance :   1.0000e-07
  Last Orbital Gradient      ...    1.9225e-06  Tolerance :   1.0000e-04
  Last Orbital Rotation      ...    6.0608e-06  Tolerance :   1.0000e-04


----------------
ORBITAL ENERGIES
----------------

  NO   OCC          E(Eh)            E(eV) 
   0   2.0000     -18.996878      -516.9313 
   1   2.0000     -18.931293      -515.1467 
   2   2.0000     -10.154613      -276.3211 
   3   2.0000     -10.086496      -274.4675 
   4   2.0000     -10.059119      -273.7225 
   5   2.0000     -10.051362      -273.5115 
   6   2.0000     -10.051147      -273.5056 
   7   2.0000      -1.063774       -28.9468 
   8   2.0000      -0.976265       -26.5655 
   9   2.0000      -0.844532       -22.9809 
  10   2.0000      -0.699684       -19.0394 
  11   2.0000      -0.617208       -16.7951 
  12   2.0000      -0.581220       -15.8158 
  13   2.0000      -0.531439       -14.4612 
  14   2.0000      -0.487603       -13.2683 
  15   2.0000      -0.467272       -12.7151 
  16   2.0000      -0.445519       -12.1232 
  17   2.0000      -0.427369       -11.6293 
  18   2.0000      -0.406094       -11.0504 
  19   2.0000      -0.370316       -10.0768 
  20   2.0000      -0.359796        -9.7906 
  21   2.0000      -0.345253        -9.3948 
  22   2.0000      -0.329910        -8.9773 
  23   2.0000      -0.298447        -8.1212 
  24   2.0000      -0.277268        -7.5448 
  25   2.0000      -0.273022        -7.4293 
  26   2.0000      -0.236543        -6.4367 
  27   0.0000      -0.020932        -0.5696 
  28   0.0000       0.059079         1.6076 
  29   0.0000       0.086808         2.3622 
  30   0.0000       0.097549         2.6544 
  31   0.0000       0.100995         2.7482 
  32   0.0000       0.114713         3.1215 
  33   0.0000       0.129939         3.5358 
  34   0.0000       0.134273         3.6538 
  35   0.0000       0.153979         4.1900 
  36   0.0000       0.171545         4.6680 
  37   0.0000       0.181811         4.9473 
*Only the first 10 virtual orbitals were printed.
Total SCF time: 0 days 0 hours 0 min 3 sec 
Finished LeanSCF after   4.4 sec

Maximum memory used throughout the entire LEANSCF-calculation: 19.9 MB


-------------------------------------------------------------------------------
                          DFT DISPERSION CORRECTION                            
                                                                               
                                DFTD4 V3.4.0                                   
-------------------------------------------------------------------------------
-------------------------   ----------------
Dispersion correction           -0.003573368
-------------------------   ----------------

------------------   -----------------
gCP correction             0.008589533
------------------   -----------------

-------------------------   --------------------
FINAL SINGLE POINT ENERGY      -345.699796280825
-------------------------   --------------------

------------------------------------------------------------------------------
                         ORCA SCF GRADIENT CALCULATION
------------------------------------------------------------------------------

Nuc. rep. gradient        (SHARK) ... done (  0.0 sec)
HCore & Overlap gradient  (SHARK) ... done (  0.1 sec)
Split-RIJ-J gradient      (SHARK) ... done (  0.9 sec)
XC gradient                       ... done (  3.6 sec)
Dispersion correction             ... done (  0.0 sec)

-------------------
DISPERSION GRADIENT
-------------------

   1   C   :   -0.000084568   -0.000007147    0.000000256
   2   O   :   -0.000046978   -0.000010999    0.000000803
   3   C   :   -0.000025614    0.000022140   -0.000001353
   4   O   :   -0.000039292    0.000069689   -0.000004438
   5   C   :    0.000045625    0.000015789   -0.000000849
   6   C   :    0.000060529   -0.000018586    0.000024341
   7   C   :    0.000060602   -0.000021384   -0.000021728
   8   H   :   -0.000028364   -0.000004101   -0.000002690
   9   H   :   -0.000027821   -0.000003296    0.000002759
  10   H   :   -0.000032499   -0.000014842    0.000001119
  11   H   :    0.000016999    0.000018215   -0.000001089
  12   H   :    0.000026401   -0.000005630    0.000014544
  13   H   :    0.000024214   -0.000015265    0.000016782
  14   H   :    0.000026455   -0.000007363   -0.000013734
  15   H   :    0.000024313   -0.000017220   -0.000014722

Difference to translation invariance:
           :    0.0000000000    0.0000000000    0.0000000000

Difference to rotation invariance:
           :   -0.0000000000    0.0000000000    0.0000000000

Norm of the Dispersion gradient    ...    0.0001903786
RMS gradient                       ...    0.0000283800
MAX gradient                       ...    0.0000845683
gCP correction                   ... done

------------------
CARTESIAN GRADIENT
------------------

   1   C   :    0.000620630   -0.000058589    0.000045770
   2   O   :   -0.000322927   -0.000013856   -0.000095945
   3   C   :    0.000115213    0.000012535    0.000172361
   4   O   :   -0.000041103   -0.000023886    0.000010768
   5   C   :    0.000010649   -0.000033310   -0.000094503
   6   C   :   -0.000039418    0.000007766   -0.000112601
   7   C   :   -0.000032847    0.000089263    0.000158309
   8   H   :   -0.000098969    0.000059524   -0.000294395
   9   H   :   -0.000128680    0.000230439    0.000163965
  10   H   :   -0.000071112   -0.000209959    0.000071181
  11   H   :   -0.000026600    0.000024398   -0.000003239
  12   H   :    0.000021131   -0.000014199    0.000025951
  13   H   :    0.000013359   -0.000015766    0.000038096
  14   H   :   -0.000003672   -0.000028852   -0.000041317
  15   H   :   -0.000015654   -0.000025509   -0.000044401

Difference to translation invariance:
           :   -0.0000000000   -0.0000000000    0.0000000000

Difference to rotation invariance:
           :   -0.0001155904    0.0000745711   -0.0000586292

Norm of the Cartesian gradient     ...    0.0009322829
RMS gradient                       ...    0.0001389765
MAX gradient                       ...    0.0006206303

-------
TIMINGS
-------

Total SCF gradient time     ....        4.744 sec

Densities                   ....       0.000 sec  (  0.0%)
One electron gradient       ....       0.150 sec  (  3.2%)
RI-J Coulomb gradient       ....       0.920 sec  ( 19.4%)
XC gradient                 ....       3.636 sec  ( 76.6%)

Maximum memory used throughout the entire SCFGRAD-calculation: 33.2 MB

------------------------------------------------------------------------------
                              ORCA PROPERTY CALCULATIONS
------------------------------------------------------------------------------

GBWName                                 ... xtb_opt.gbw
Number of atoms                         ...     15
Number of basis functions               ...    183
Max core memory                         ...   1024 MB

Electric properties:
Dipole moment                           ... YES
Quadrupole moment                       ...  NO
Static polarizability (Dipole/Dipole)   ...  NO
Static polarizability (Dipole/Quad.)    ...  NO
Static polarizability (Quad./Quad.)     ...  NO
Static polarizability (Velocity)        ...  NO

Atomic electric properties:
Dipole moment                           ...  NO
Quadrupole moment                       ...  NO
Static polarizability                   ...  NO

Choice of electric origin               ... Center of mass
Position of electric origin             ...    -0.002914    -0.019406    -0.037492

General magnetic properties:
Magnetizability                         ...  NO

EPR properties:
g-Tensor (aka g-matrix)                 ...  NO
Zero-Field splitting spin-orbit         ...  NO
Zero-field splitting spin-spin          ...  NO
Hyperfine couplings                     ...  NO (   0 nuclei)
Quadrupole couplings                    ...  NO (   0 nuclei)
Contact density                         ...  NO (   0 nuclei)

NMR properties:
Chemical shifts                         ...  NO (   0 nuclei)
Spin-rotation constants                 ...  NO (   0 nuclei)
Spin-spin couplings                     ...  NO (   0 nuclei,    0 pairs)

Choice of magnetic origin               ... GIAO
Position of magnetic origin             ...     0.000000     0.000000     0.000000

Properties with geometric perturbations:
SCF Hessian                             ...  NO
IR spectrum                             ...  NO
VCD spectrum                            ...  NO
X-ray spectroscopy properties:
SCF XES/XAS/RIXS spectra                ...  NO


-------------
DIPOLE MOMENT
-------------

Method             : SCF
Type of density    : Electron Density
Multiplicity       :   1
Irrep              :   0
Energy             :  -345.7048124459020642 Eh
Relativity type    : 
Basis              : AO
                                X                 Y                 Z
Electronic contribution:     -1.139974013       2.930700538      -0.166605847
Nuclear contribution   :      1.404937421      -3.767556182       0.219547347
                        -----------------------------------------
Total Dipole Moment    :      0.264963409      -0.836855644       0.052941500
                        -----------------------------------------
Magnitude (a.u.)       :      0.879395121
Magnitude (Debye)      :      2.235244760



--------------------
Rotational spectrum 
--------------------
 
Rotational constants in cm-1:             0.172875             0.064653             0.053400 
Rotational constants in MHz :          5182.656114          1938.239244          1600.884255 

Dipole components along the rotational axes: 
x,y,z [a.u.] :     0.385550    -0.790368    -0.002229 
x,y,z [Debye]:     0.979990    -2.008957    -0.005665 

 

Dipole moment calculation done in   0.9 sec 

Maximum memory used throughout the entire PROP-calculation: 11.5 MB

--------------------------------
SUGGESTED CITATIONS FOR THIS RUN
--------------------------------

Below you find a list of papers that are relevant to this ORCA run
We neither can nor want to force you to cite these papers, but we appreciate if you do
You receive ORCA, which is the product of decades of hard work by many enthusiastic individuals, for free
The only thing we kindly ask in return is that you cite our papers,
We deeply appreciate it, if you show your appreciation for ORCA by not just citing the generic ORCA reference.

Please note that relegating all ORCA citations to the supporting information does *not* help us.
SI sections are not indexed - citations you put there will not count into any citation statistics
But we need these citations in order to attract the funding resources that allow us to do what we are doing

Therefore, if you are a happy ORCA user, please consider citing a few of the papers listed below in the main body of your paper

In addition to the list printed below, the program has created the file xtb_opt.bibtex that contains the list in bibtex format
You can import this file easily into all common literature databanks and citation aid programs


List of essential papers. We consider these as the minimum necessary citations

  1. Neese,F.
     Software update: the ORCA program system, version 5.0
     WIRES Comput. Molec. Sci., 2022 12(1)e1606
     doi.org/10.1002/wcms.1606
  2. Grimme,S.; Hansen,A.; Ehlert,S.; Mewes,J.
     r2SCAN-3c: A 'Swiss army knife' composite electronic-structure method
     J. Chem. Phys., 2021 154 064103
     doi.org/10.1063/5.0040021

List of papers to cite with high priority. The work reported in these papers was absolutely
necessary for this run to complete.
Our perspective: the developers of density functionals and basis sets usually get cited in chemistry papers
Good! But without the algorithms to do something with them, the functionals or basis sets would not do anything.
Hence, in our opinion, the algorithm design and method developments papers are equally worthy of getting cited

  1. Neese,F.
     An improvement of the resolution of the identity approximation for the formation of the Coulomb matrix
     J. Comp. Chem., 2003 24(14)1740-1747
     doi.org/10.1002/jcc.10318
  2. Neese,F.
     The SHARK Integral Generation and Digestion System
     J. Comp. Chem., 2022  1-16
     doi.org/10.1002/jcc.26942
  3. Lehtola,S.; Steigemann,C.; Oliveira,M.; Marques,M.
     Recent developments in Libxc - A comprehensive library of functionals for density functional theory
     Software X, 2018 7 
     doi.org/10.1016/j.softx.2017.11.002
  4. Caldeweyher,E.; Bannwarth,C.; Grimme,S.
     Extension of the D3 dispersion coefficient model
     J. Chem. Phys., 2017 147 034112
     doi.org/10.1063/1.4993215
  5. Caldeweyher,E.; Ehlert,S.; Hansen,A.; Neugebauer,H.; Spicher,S.; Bannwarth,C.; Grimme,S.
     A generally applicable atomic-charge dependent London dispersion correction
     J. Chem. Phys., 2019 150 154122
     doi.org/10.1063/1.5090222
  6. Caldeweyher,E.; Mewes,J.; Ehlert,S.; Grimme,S.
     Extension and evaluation of the D4 London-dispersion model for periodic systems
     Phys. Chem. Chem. Phys., 2020 22(16)8499-8512
     doi.org/10.1039/D0CP00502A
  7. Wittmann,L.; Gordiy,I.; Friede,M.; Helmich-Paris,B.; Grimme,S.; Hansen,A.; Bursch,M.
     Extension of the D3 and D4 London Dispersion Corrections to the full Actinides Series
     Phys. Chem. Chem. Phys., 2024 26(32)21379-21394
     doi.org/https://doi.org/10.1039/D4CP01514B 

List of suggested additional citations. These are papers that are important in the 'surrounding' of 
of this run, or papers that preceded the highly important papers. If you like your results we are grateful for a citation.

  1. Neese,F.
     The ORCA program system
     WIRES Comput. Molec. Sci., 2012 2(1)73-78
     doi.org/10.1002/wcms.81
  2. Neese,F.
     Software update: the ORCA program system, version 4.0
     WIRES Comput. Molec. Sci., 2018 8(1)1-6
     doi.org/10.1002/wcms.1327
  3. Neese,F.; Wennmohs,F.; Becker,U.; Riplinger,C.
     The ORCA quantum chemistry program package
     J. Chem. Phys., 2020 152 Art. No. L224108
     doi.org/10.1063/5.0004608

List of optional additional citations

  1. Neese,F.
     Approximate second-order SCF convergence for spin unrestricted wavefunctions
     Chem. Phys. Lett., 2000 325(1-3)93-98
     doi.org/10.1016/s0009-2614(00)00662-x

Timings for individual modules:

Sum of individual times          ...       11.349 sec (=   0.189 min)
Startup calculation              ...        0.627 sec (=   0.010 min)   5.5 %
SCF iterations                   ...        4.554 sec (=   0.076 min)  40.1 %
Property calculations            ...        0.958 sec (=   0.016 min)   8.4 %
SCF Gradient evaluation          ...        5.211 sec (=   0.087 min)  45.9 %
                             ****ORCA TERMINATED NORMALLY****
TOTAL RUN TIME: 0 days 0 hours 0 minutes 13 seconds 753 msec
  ------------------------------------------------------------------------
          * successful ORCA run, taking over control again...

         :::::::::::::::::::::::::::::::::::::::::::::::::::::
         ::                  ORCA SUMMARY                   ::
         :::::::::::::::::::::::::::::::::::::::::::::::::::::
         :: total energy            -345.699796280825 Eh    ::
         :: gradient norm              0.000932282900 Eh/a0 ::
         :: HOMO-LUMO gap              0.000000000000 eV    ::
         :::::::::::::::::::::::::::::::::::::::::::::::::::::

      ----------------------------------------------------------- 
     |                       L-ANC optimizer                     |
      ----------------------------------------------------------- 
          low memory version by Sebastian Ehlert

          ...................................................
          :                      SETUP                      :
          :.................................................:
          :   energy convergence        0.5000000E-05 Eh    :
          :   grad. convergence         0.1000000E-02 Eh/a0 :
          :   optimization log               true           :
          :   writing optlog all                1     steps :
          :   Hessian reset                     8     steps :
          :   maximium step len.        1.0000000     a0    :
          :   LBFGS images                      8           :
          ...................................................
 * calculating model hessian...
Using Lindh-Hessian (1995)
 Shifting diagonal of input Hessian by   1.000000000000000E-002
 Lowest  eigenvalues of input Hessian
    0.000000    0.000000    0.000000    0.000000    0.000000    0.000000
    0.012810    0.014990    0.017828    0.028682    0.031273    0.034127
    0.044114    0.051202    0.052426    0.057379    0.073546    0.092475
 Highest eigenvalues
    1.203272    1.340969    1.348589    1.720012    1.814424    2.336370
 

........................................................................
.............................. CYCLE    1 ..............................
........................................................................
                         * ORCA takes the control...
  ------------------------------------------------------------------------

                                 *****************
                                 * O   R   C   A *
                                 *****************

                                            #,                                       
                                            ###                                      
                                            ####                                     
                                            #####                                    
                                            ######                                   
                                           ########,                                 
                                     ,,################,,,,,                         
                               ,,#################################,,                 
                          ,,##########################################,,             
                       ,#########################################, ''#####,          
                    ,#############################################,,   '####,        
                  ,##################################################,,,,####,       
                ,###########''''           ''''###############################       
              ,#####''   ,,,,##########,,,,          '''####'''          '####       
            ,##' ,,,,###########################,,,                        '##       
           ' ,,###''''                  '''############,,,                           
         ,,##''                                '''############,,,,        ,,,,,,###''
      ,#''                                            '''#######################'''  
     '                                                          ''''####''''         
             ,#######,   #######,   ,#######,      ##                                
            ,#'     '#,  ##    ##  ,#'     '#,    #''#        ,####,   ,####,        
            ##       ##  ##   ,#'  ##            #'  '#       #'       #'  '#        
            ##       ##  #######   ##           ,######,      #####,   #    #        
            '#,     ,#'  ##    ##  '#,     ,#' ,#      #,     #,   #   #,  ,#        
             '#######'   ##     ##  '#######'  #'      '#     '####' # '####'        



                #########################################################
                #                        -***-                          #
                #          Department of theory and spectroscopy        #
                #                                                       #
                #                      Frank Neese                      #
                #                                                       #
                #     Directorship, Architecture, Infrastructure        #
                #                    SHARK, DRIVERS                     #
                #        Core code/Algorithms in most modules           #
                #                                                       #
                #        Max Planck Institute fuer Kohlenforschung      #
                #                Kaiser Wilhelm Platz 1                 #
                #                 D-45470 Muelheim/Ruhr                 #
                #                      Germany                          #
                #                                                       #
                #                  All rights reserved                  #
                #                        -***-                          #
                #########################################################


                         Program Version 6.0.1  -  RELEASE   -


 With contributions from (in alphabetic order):
[Max-Planck-Institut fuer Kohlenforschung]                               
  Daniel Aravena         : Magnetic Suceptibility                        
  Michael Atanasov       : Ab Initio Ligand Field Theory (pilot matlab implementation)
  Alexander A. Auer      : GIAO ZORA, VPT2 properties, NMR spectrum      
  Ute Becker             : All parallelization in ORCA, NUMFREQ, NUMCALC 
  Giovanni Bistoni       : ED, misc. LED, open-shell LED, HFLD           
  Martin Brehm           : Molecular dynamics                            
  Dmytro Bykov           : pre 5.0 version of the SCF Hessian            
  Marcos Casanova-Páez   : Triplet and SCS-CIS(D). UHF-(DLPNO)-IP/EA/STEOM-CCSD. UHF-CVS-IP/STEOM-CCSD   
  Vijay G. Chilkuri      : MRCI spin determinant printing, contributions to CSF-ICE 
  Pauline Colinet        : FMM embedding                                 
  Dipayan Datta          : RHF DLPNO-CCSD density                        
  Achintya Kumar Dutta   : EOM-CC, STEOM-CC                              
  Nicolas Foglia         : Exact transition moments, OPA infrastructure, MCD improvements    
  Dmitry Ganyushin       : Spin-Orbit,Spin-Spin,Magnetic field MRCI      
  Miquel Garcia-Rates    : C-PCM and meta-GGA Hessian, CCSD/C-PCM, Gaussian charge scheme 
  Tiago L. C. Gouveia    : GS-ROHF, GS-ROCIS                             
  Yang Guo               : DLPNO-NEVPT2, F12-NEVPT2, CIM, IAO-localization        
  Andreas Hansen         : Spin unrestricted coupled pair/coupled cluster methods 
  Ingolf Harden          : AUTO-CI MPn and infrastructure                
  Benjamin Helmich-Paris : MC-RPA, TRAH-(SCF,CASSCF), AVAS, COSX integrals, SCF dyn. polar. 
  Lee Huntington         : MR-EOM, pCC                                   
  Robert Izsak           : Overlap fitted RIJCOSX, COSX-SCS-MP3, EOM     
  Riya Kayal             : Wick's Theorem for AUTO-CI, AUTO-CI UHF-CCSDT 
  Emily Kempfer          : AUTO-CI, RHF CISDT and CCSDT                  
  Christian Kollmar      : KDIIS, OOCD, Brueckner-CCSD(T), CCSD density, CASPT2, CASPT2-K, improved NEVPT2 
  Axel Koslowski         : Symmetry handling                             
  Simone Kossmann        : meta-GGA functionals, TD-DFT gradient, OOMP2, (MP2 Hessian; deprecated post 5.0) 
  Lucas Lang             : DCDCAS                                        
  Marvin Lechner         : AUTO-CI (C++ implementation), FIC-MRCC        
  Spencer Leger          : CASSCF response                               
  Dagmar Lenk            : GEPOL surface, SMD, ORCA-2-JSON               
  Dimitrios Liakos       : Extrapolation schemes; Compound Job, initial MDCI parallelization 
  Dimitrios Manganas     : Further ROCIS development; embedding schemes. LFT, Crystal Embedding 
  Dimitrios Pantazis     : SARC Basis sets                               
  Anastasios Papadopoulos: AUTO-CI, single reference methods and gradients 
  Taras Petrenko         : pre 6.0 DFT Hessian and TD-DFT gradient, (ASA, deprecated), ECA, 1-Electron XAS/XES, NRVS 
  Peter Pinski           : DLPNO-MP2, DLPNO-MP2 Gradient                 
  Christoph Reimann      : Effective Core Potentials                     
  Marius Retegan         : Local ZFS, SOC                                
  Christoph Riplinger    : Optimizer, TS searches, QM/MM, DLPNO-CCSD(T), (RO)-DLPNO pert. Triples 
  Michael Roemelt        : Original ROCIS implementation                 
  Masaaki Saitow         : Open-shell DLPNO-CCSD energy and density      
  Barbara Sandhoefer     : DKH picture change effects                    
  Kantharuban Sivalingam : CASSCF convergence/infrastructure, NEVPT2 and variants, FIC-MRCI 
  Bernardo de Souza      : ESD, SOC TD-DFT                               
  Georgi L. Stoychev     : AutoAux, RI-MP2 NMR, DLPNO-MP2 response, X2C  
  Van Anh Tran           : RI-MP2 g-tensors                              
  Willem Van den Heuvel  : Paramagnetic NMR                              
  Zikuan Wang            : NOTCH, Electric field optimization            
  Frank Wennmohs         : Technical directorship and infrastructure     
  Hang Xu                : AUTO-CI-Response properties                   
                                                                         
[FACCTs GmbH]                                                            
  Markus Bursch, Miquel Garcia-Rates, Christoph Riplinger, Bernardo de Souza, Georgi L. Stoychev 
                                                                 
  APM, Basis sets (HGBS, AHGBS, def-TZVP (Ac-Lr), def2-XVPD (La-Lu)), CI-OPT, improved COSX, DLPNO-Multilevel,           
  DOCKER, DRACO, updates on ESD, GOAT, IRC, LR-CPCM, MBIS, meta-GGA TD-DFT gradient, ML-optimized integration grids, 
  MM, NACMEs, nearIR, NEB, NEB-TS, NL-DFT gradient (VV10), 2- and 3-layer-ONIOM, interface openCOSMO-RS, QMMM,   
  Crystal-QMMM, SF, symmetry and pop. for TD-DFT, r2SCAN hybrids, SOLVATOR                                   
                                                                         
[Other institutions]                                                     
  V. Asgeirsson          : NEB                                           
  Christoph Bannwarth    : sTDA-DFT, sTD-DFT, PBEh-3c, B97-3c, D3        
  Sebastian Ehlert       : rSCAN, r2SCAN, r2SCAN-3c, D4, dhf basis sets  
  Marvin Friede          : D4 for Fr, Ra, Ac-Lr                          
  Lars Goerigk           : TD-DFT with DH, B97 family of functionals     
  Stefan Grimme          : VdW corrections, initial TS optimization, DFT functionals, gCP, sTDA/sTD-DF 
  Waldemar Hujo          : DFT-NL                                        
  H. Jonsson             : NEB                                           
  Holger Kruse           : gCP                                           
  Marcel Mueller         : wB97X-3c, vDZP basis set                      
  Hagen Neugebauer       : wr2SCAN                                       
  Tobias Risthaus        : range-separated hybrid DFT                    
  Lukas Wittmann         : regularized MP2, r2SCAN double-hybrids, wr2SCAN        
                                                                         
We gratefully acknowledge several colleagues who have allowed us to      
interface, adapt or use parts of their codes:                            
  Ed Valeev, F. Pavosevic, A. Kumar             : LibInt (2-el integral package), F12 methods 
  Garnet Chan, S. Sharma, J. Yang, R. Olivares  : DMRG                   
  Ulf Ekstrom                                   : XCFun DFT Library      
  Mihaly Kallay                                 : mrcc  (arbitrary order and MRCC methods)
  Frank Weinhold                                : gennbo (NPA and NBO analysis)           
  Simon Mueller                                 : openCOSMO-RS                            
  Christopher J. Cramer and Donald G. Truhlar   : smd solvation model                     
  S Lehtola, MJT Oliveira, MAL Marques          : LibXC Library                           
  Liviu Ungur et al                             : ANISO software                          


 Your calculation uses the libint2 library for the computation of 2-el integrals
 For citations please refer to: http://libint.valeyev.net

 Your ORCA version has been built with support for libXC version: 6.2.2
 For citations please refer to: https://libxc.gitlab.io

 This ORCA versions uses:
   CBLAS   interface :  Fast vector & matrix operations
   LAPACKE interface :  Fast linear algebra routines
   SCALAPACK package :  Parallel linear algebra routines
   Shared memory     :  Shared parallel matrices
   BLAS/LAPACK       :  OpenBLAS 0.3.27  USE64BITINT DYNAMIC_ARCH NO_AFFINITY Zen SINGLE_THREADED
        Core in use  :  Zen
   Copyright (c) 2011-2014, The OpenBLAS Project




***************************************
The coordinates will be read from file: xtb_opt.xyz
***************************************


Your calculation utilizes the geometrical counterpoise correction gCP
Please cite in your paper:
H.Kruse, S. Grimme J.Chem.Phys., 136, (2012), 154101 
   

Your calculation utilizes the atom-pairwise dispersion correction
based on EEQ partial charges (D4)


================================================================================

----- Orbital basis set information -----
Your calculation utilizes the basis: def2-mTZVPP
   Stefan Grimme, Andreas Hansen, Sebastian Ehlert, and Jan-Michael Mewes 
   J. Chem. Phys. 154, 064103 (2021). DOI: 10.1063/5.0040021

----- AuxJ basis set information -----
Your calculation utilizes the auxiliary basis: def2/J
   F. Weigend, Phys. Chem. Chem. Phys. 8, 1057 (2006).

================================================================================
                                        WARNINGS
                       Please study these warnings very carefully!
================================================================================

WARNING: Old DensityContainer found on disk!
         Will remove this file - 
         If you want to keep old densities, please start your calculation with a different basename. 



WARNING: SCAN, rSCAN, or r2SCAN functional requested.
  ===> : libXC variant has now been activated.



================================================================================
                                       INPUT FILE
================================================================================
NAME = xtb_opt.inp
|  1> ! r2scan-3c def2/J RI DEFGRID2 scfconv7 ENGRAD tightSCF miniprint
|  2> * xyzfile 0 1 xtb_opt.xyz
|  3> 
|  4>                          ****END OF INPUT****
================================================================================

                     *******************************
                     * Energy+Gradient Calculation *
                     *******************************

---------------------------------
CARTESIAN COORDINATES (ANGSTROEM)
---------------------------------
  C     -2.352869   -0.577859    0.011620
  O     -0.913673   -0.645888    0.025417
  C     -0.287600    0.558120   -0.056360
  O     -0.880452    1.611349   -0.129607
  C      1.184674    0.423965   -0.043927
  C      1.852558   -0.670128    0.768573
  C      1.853178   -0.760432   -0.717781
  H     -2.705061   -0.145581   -0.928796
  H     -2.715218    0.033901    0.841744
  H     -2.694903   -1.607857    0.113170
  H      1.685496    1.382734   -0.102549
  H      2.773310   -0.398057    1.272432
  H      1.197376   -1.337860    1.314940
  H      2.774035   -0.551334   -1.250666
  H      1.198457   -1.489469   -1.180001

----------------------------
CARTESIAN COORDINATES (A.U.)
----------------------------
  NO LB      ZA    FRAG     MASS         X           Y           Z
   0 C     6.0000    0    12.011   -4.446278   -1.091995    0.021958
   1 O     8.0000    0    15.999   -1.726591   -1.220552    0.048031
   2 C     6.0000    0    12.011   -0.543486    1.054693   -0.106506
   3 O     8.0000    0    15.999   -1.663812    3.045008   -0.244922
   4 C     6.0000    0    12.011    2.238710    0.801177   -0.083011
   5 C     6.0000    0    12.011    3.500827   -1.266359    1.452393
   6 C     6.0000    0    12.011    3.501999   -1.437007   -1.356410
   7 H     1.0000    0     1.008   -5.111824   -0.275109   -1.755169
   8 H     1.0000    0     1.008   -5.131018    0.064063    1.590665
   9 H     1.0000    0     1.008   -5.092629   -3.038410    0.213860
  10 H     1.0000    0     1.008    3.185126    2.612989   -0.193789
  11 H     1.0000    0     1.008    5.240796   -0.752219    2.404549
  12 H     1.0000    0     1.008    2.262713   -2.528190    2.484877
  13 H     1.0000    0     1.008    5.242167   -1.041870   -2.363417
  14 H     1.0000    0     1.008    2.264755   -2.814689   -2.229878

------------------------------------------------------------------------------
                   ___                                                        
                  /   \      - P O W E R E D   B Y -                         
                 /     \                                                     
                 |  |  |   _    _      __       _____    __    __             
                 |  |  |  | |  | |    /  \     |  _  \  |  |  /  |          
                  \  \/   | |  | |   /    \    | | | |  |  | /  /          
                 / \  \   | |__| |  /  /\  \   | |_| |  |  |/  /          
                |  |  |   |  __  | /  /__\  \  |    /   |      \           
                |  |  |   | |  | | |   __   |  |    \   |  |\   \          
                \     /   | |  | | |  |  |  |  | |\  \  |  | \   \       
                 \___/    |_|  |_| |__|  |__|  |_| \__\ |__|  \__/        
                                                                              
                      - O R C A' S   B I G   F R I E N D -                    
                                      &                                       
                       - I N T E G R A L  F E E D E R -                       
                                                                              
 v1 FN, 2020, v2 2021, v3 2022-2024                                           
------------------------------------------------------------------------------


----------------------
SHARK INTEGRAL PACKAGE
----------------------

Number of atoms                             ...     15
Number of basis functions                   ...    183
Number of shells                            ...     89
Maximum angular momentum                    ...      2
Integral batch strategy                     ... SHARK/LIBINT Hybrid
RI-J (if used) integral strategy            ... SPLIT-RIJ (Revised 2003 algorithm where possible)
Printlevel                                  ...      1
Contraction scheme used                     ... SEGMENTED contraction
Prescreening option                         ... SCHWARTZ
   Thresh                                   ... 3.000e-11
   Tcut                                     ... 1.000e-12
   Tpresel                                  ... 1.000e-12 
Coulomb Range Separation                    ... NOT USED
Exchange Range Separation                   ... NOT USED
Multipole approximations                    ... NOT USED
Finite Nucleus Model                        ... NOT USED
CABS basis                                  ... NOT available
Auxiliary Coulomb fitting basis             ... AVAILABLE
   # of basis functions in Aux-J            ...    431
   # of shells in Aux-J                     ...    145
   Maximum angular momentum in Aux-J        ...      4
Auxiliary J/K fitting basis                 ... NOT available
Auxiliary Correlation fitting basis         ... NOT available
Auxiliary 'external' fitting basis          ... NOT available

Checking pre-screening integrals            ... done (  0.0 sec) Dimension = 89
Check shell pair data                       ... done (  0.0 sec)
Shell pair information
Shell pair cut-off parameter TPreSel        ...   1.0e-12
Total number of shell pairs                 ...      4005
Shell pairs after pre-screening             ...      3704
Total number of primitive shell pairs       ...     14374
Primitive shell pairs kept                  ...      9703
          la=0 lb=0:   1189 shell pairs
          la=1 lb=0:   1373 shell pairs
          la=1 lb=1:    409 shell pairs
          la=2 lb=0:    437 shell pairs
          la=2 lb=1:    251 shell pairs
          la=2 lb=2:     45 shell pairs

Calculating one electron integrals          ... done (  0.0 sec)
Calculating RI/J V-Matrix + Cholesky decomp.... done (  0.0 sec)
Calculating Nuclear repulsion               ... done (  0.0 sec) ENN=    306.607009707877 Eh

Diagonalization of the overlap matrix:
Smallest eigenvalue                        ... 1.539e-04
Time for diagonalization                   ...    0.003 sec
Threshold for overlap eigenvalues          ... 1.000e-07
Number of eigenvalues below threshold      ... 0
Time for construction of square roots      ...    0.004 sec
Total time needed                          ...    0.008 sec

-------------------
DFT GRID GENERATION
-------------------

General Integration Accuracy     IntAcc      ... 4.388
Radial Grid Type                 RadialGrid  ... OptM3 with GC (2021)
Angular Grid (max. ang.)         AngularGrid ... 4 (Lebedev-302)
Angular grid pruning method      GridPruning ... 4 (adaptive)
Weight generation scheme         WeightScheme... mBecke (2022)
Basis function cutoff            BFCut       ... 1.0000e-11
Integration weight cutoff        WCut        ... 1.0000e-14
Partially contracted basis set               ... off
Rotationally invariant grid construction     ... off
Angular grids for H and He will be reduced by one unit
Diffuse basis detected: some atoms will have their outermost
                        angular grid increased by 1.

Total number of grid points                  ...    68699
Total number of batches                      ...     1083
Average number of points per batch           ...       63
Average number of grid points per atom       ...     4580
Initializing property integral containers    ... done (  0.0 sec)

SHARK setup successfully completed in   0.6 seconds

Maximum memory used throughout the entire STARTUP-calculation: 31.7 MB
Occupation numbers will be reassigned to an Aufbau configuration
             **** ENERGY FILE WAS UPDATED (xtb_opt.en.tmp) ****
Finished Guess after   0.1 sec
Maximum memory used throughout the entire GUESS-calculation: 13.1 MB
----------------------------------------D-I-I-S--------------------------------------------
Iteration    Energy (Eh)           Delta-E    RMSDP     MaxDP     DIISErr   Damp  Time(sec)
-------------------------------------------------------------------------------------------
               ***  Starting incremental Fock matrix formation  ***
                              *** Initializing SOSCF ***
---------------------------------------S-O-S-C-F--------------------------------------
Iteration    Energy (Eh)           Delta-E    RMSDP     MaxDP     MaxGrad    Time(sec)
--------------------------------------------------------------------------------------
    1    -345.7048121528408728     0.00e+00  2.04e-05  5.99e-04  6.91e-05     1.3
               *** Restarting incremental Fock matrix formation ***
    2    -345.7048153025816646    -3.15e-06  9.66e-06  2.60e-04  6.67e-05     1.3
    3    -345.7048154536357742    -1.51e-07  5.53e-06  1.10e-04  6.65e-05     1.0
    4    -345.7048154514440057     2.19e-09  4.47e-06  9.40e-05  8.68e-05     1.0
                 **** Energy Check signals convergence ****

               *****************************************************
               *                     SUCCESS                       *
               *           SCF CONVERGED AFTER   4 CYCLES          *
               *****************************************************

             **** ENERGY FILE WAS UPDATED (xtb_opt.en.tmp) ****

----------------
TOTAL SCF ENERGY
----------------

Total Energy       :       -345.70481545144401 Eh           -9407.10628 eV

Components:
Nuclear Repulsion  :        306.60700970787650 Eh            8343.20089 eV
Electronic Energy  :       -652.31182515932051 Eh          -17750.30717 eV
One Electron Energy:      -1077.14642103431788 Eh          -29310.64424 eV
Two Electron Energy:        424.83459587499732 Eh           11560.33707 eV

Virial components:
Potential Energy   :       -689.89794971203332 Eh          -18773.07762 eV
Kinetic Energy     :        344.19313426058926 Eh            9365.97134 eV
Virial Ratio       :          2.00439195626055

DFT components:
N(Alpha)           :       27.000014294619 electrons
N(Beta)            :       27.000014294619 electrons
N(Total)           :       54.000028589237 electrons
E(X)               :      -45.420405469584 Eh       
E(C)               :       -1.746095546580 Eh       
E(XC)              :      -47.166501016164 Eh       

---------------
SCF CONVERGENCE
---------------

  Last Energy change         ...   -2.1918e-09  Tolerance :   1.0000e-07
  Last MAX-Density change    ...    9.3952e-05  Tolerance :   1.0000e-07
  Last RMS-Density change    ...    4.4682e-06  Tolerance :   5.0000e-09
  Last DIIS Error            ...    9.2866e-04  Tolerance :   1.0000e-07
  Last Orbital Gradient      ...    8.6797e-05  Tolerance :   1.0000e-04
  Last Orbital Rotation      ...    1.2477e-04  Tolerance :   1.0000e-04


----------------
ORBITAL ENERGIES
----------------

  NO   OCC          E(Eh)            E(eV) 
   0   2.0000     -18.997150      -516.9387 
   1   2.0000     -18.931031      -515.1395 
   2   2.0000     -10.154644      -276.3219 
   3   2.0000     -10.086419      -274.4654 
   4   2.0000     -10.059127      -273.7228 
   5   2.0000     -10.051361      -273.5114 
   6   2.0000     -10.051152      -273.5057 
   7   2.0000      -1.063744       -28.9459 
   8   2.0000      -0.976196       -26.5636 
   9   2.0000      -0.844507       -22.9802 
  10   2.0000      -0.699778       -19.0419 
  11   2.0000      -0.617238       -16.7959 
  12   2.0000      -0.581219       -15.8158 
  13   2.0000      -0.531496       -14.4627 
  14   2.0000      -0.487617       -13.2687 
  15   2.0000      -0.467232       -12.7140 
  16   2.0000      -0.445565       -12.1244 
  17   2.0000      -0.427346       -11.6287 
  18   2.0000      -0.406109       -11.0508 
  19   2.0000      -0.370370       -10.0783 
  20   2.0000      -0.359820        -9.7912 
  21   2.0000      -0.345291        -9.3958 
  22   2.0000      -0.329989        -8.9794 
  23   2.0000      -0.298429        -8.1207 
  24   2.0000      -0.277268        -7.5448 
  25   2.0000      -0.273061        -7.4304 
  26   2.0000      -0.236459        -6.4344 
  27   0.0000      -0.020901        -0.5687 
  28   0.0000       0.058957         1.6043 
  29   0.0000       0.086834         2.3629 
  30   0.0000       0.097533         2.6540 
  31   0.0000       0.100993         2.7482 
  32   0.0000       0.114699         3.1211 
  33   0.0000       0.129961         3.5364 
  34   0.0000       0.134279         3.6539 
  35   0.0000       0.153994         4.1904 
  36   0.0000       0.171659         4.6711 
  37   0.0000       0.181780         4.9465 
*Only the first 10 virtual orbitals were printed.
Total SCF time: 0 days 0 hours 0 min 5 sec 
Finished LeanSCF after   6.8 sec

Maximum memory used throughout the entire LEANSCF-calculation: 19.9 MB


-------------------------------------------------------------------------------
                          DFT DISPERSION CORRECTION                            
                                                                               
                                DFTD4 V3.4.0                                   
-------------------------------------------------------------------------------
-------------------------   ----------------
Dispersion correction           -0.003573175
-------------------------   ----------------

------------------   -----------------
gCP correction             0.008590423
------------------   -----------------

-------------------------   --------------------
FINAL SINGLE POINT ENERGY      -345.699798203272
-------------------------   --------------------

------------------------------------------------------------------------------
                         ORCA SCF GRADIENT CALCULATION
------------------------------------------------------------------------------

Nuc. rep. gradient        (SHARK) ... done (  0.0 sec)
HCore & Overlap gradient  (SHARK) ... done (  0.1 sec)
Split-RIJ-J gradient      (SHARK) ... done (  0.9 sec)
XC gradient                       ... done (  3.6 sec)
Dispersion correction             ... done (  0.0 sec)

-------------------
DISPERSION GRADIENT
-------------------

   1   C   :   -0.000084529   -0.000007189    0.000000280
   2   O   :   -0.000047023   -0.000010992    0.000000798
   3   C   :   -0.000025576    0.000022167   -0.000001402
   4   O   :   -0.000039278    0.000069695   -0.000004519
   5   C   :    0.000045627    0.000015784   -0.000000858
   6   C   :    0.000060527   -0.000018584    0.000024355
   7   C   :    0.000060598   -0.000021385   -0.000021706
   8   H   :   -0.000028346   -0.000004067   -0.000002706
   9   H   :   -0.000027866   -0.000003290    0.000002815
  10   H   :   -0.000032507   -0.000014869    0.000001120
  11   H   :    0.000016998    0.000018208   -0.000001089
  12   H   :    0.000026396   -0.000005626    0.000014557
  13   H   :    0.000024214   -0.000015264    0.000016786
  14   H   :    0.000026453   -0.000007365   -0.000013716
  15   H   :    0.000024312   -0.000017222   -0.000014715

Difference to translation invariance:
           :   -0.0000000000    0.0000000000   -0.0000000000

Difference to rotation invariance:
           :    0.0000000000    0.0000000000   -0.0000000000

Norm of the Dispersion gradient    ...    0.0001903764
RMS gradient                       ...    0.0000283796
MAX gradient                       ...    0.0000845293
gCP correction                   ... done

------------------
CARTESIAN GRADIENT
------------------

   1   C   :    0.000145973   -0.000039533    0.000052165
   2   O   :   -0.000133583    0.000073530    0.000010565
   3   C   :    0.000096469   -0.000130952   -0.000209181
   4   O   :   -0.000039166    0.000063453    0.000124922
   5   C   :    0.000000822    0.000020349    0.000055366
   6   C   :    0.000035377   -0.000010322   -0.000022245
   7   C   :   -0.000067548    0.000005110    0.000052910
   8   H   :   -0.000006598   -0.000071089    0.000001390
   9   H   :   -0.000011362    0.000020065   -0.000095219
  10   H   :   -0.000020007    0.000058207    0.000036424
  11   H   :   -0.000008111    0.000003771    0.000010492
  12   H   :    0.000007614   -0.000014025   -0.000003707
  13   H   :    0.000011423    0.000011616    0.000003980
  14   H   :   -0.000012114    0.000002014   -0.000013490
  15   H   :    0.000000812    0.000007808   -0.000004373

Difference to translation invariance:
           :   -0.0000000000   -0.0000000000   -0.0000000000

Difference to rotation invariance:
           :   -0.0001030811    0.0000779852   -0.0000566914

Norm of the Cartesian gradient     ...    0.0004171562
RMS gradient                       ...    0.0000621860
MAX gradient                       ...    0.0002091808

-------
TIMINGS
-------

Total SCF gradient time     ....        4.706 sec

Densities                   ....       0.000 sec  (  0.0%)
One electron gradient       ....       0.149 sec  (  3.2%)
RI-J Coulomb gradient       ....       0.919 sec  ( 19.5%)
XC gradient                 ....       3.600 sec  ( 76.5%)

Maximum memory used throughout the entire SCFGRAD-calculation: 33.2 MB

------------------------------------------------------------------------------
                              ORCA PROPERTY CALCULATIONS
------------------------------------------------------------------------------

GBWName                                 ... xtb_opt.gbw
Number of atoms                         ...     15
Number of basis functions               ...    183
Max core memory                         ...   1024 MB

Electric properties:
Dipole moment                           ... YES
Quadrupole moment                       ...  NO
Static polarizability (Dipole/Dipole)   ...  NO
Static polarizability (Dipole/Quad.)    ...  NO
Static polarizability (Quad./Quad.)     ...  NO
Static polarizability (Velocity)        ...  NO

Atomic electric properties:
Dipole moment                           ...  NO
Quadrupole moment                       ...  NO
Static polarizability                   ...  NO

Choice of electric origin               ... Center of mass
Position of electric origin             ...    -0.002917    -0.019391    -0.038523

General magnetic properties:
Magnetizability                         ...  NO

EPR properties:
g-Tensor (aka g-matrix)                 ...  NO
Zero-Field splitting spin-orbit         ...  NO
Zero-field splitting spin-spin          ...  NO
Hyperfine couplings                     ...  NO (   0 nuclei)
Quadrupole couplings                    ...  NO (   0 nuclei)
Contact density                         ...  NO (   0 nuclei)

NMR properties:
Chemical shifts                         ...  NO (   0 nuclei)
Spin-rotation constants                 ...  NO (   0 nuclei)
Spin-spin couplings                     ...  NO (   0 nuclei,    0 pairs)

Choice of magnetic origin               ... GIAO
Position of magnetic origin             ...     0.000000     0.000000     0.000000

Properties with geometric perturbations:
SCF Hessian                             ...  NO
IR spectrum                             ...  NO
VCD spectrum                            ...  NO
X-ray spectroscopy properties:
SCF XES/XAS/RIXS spectra                ...  NO


-------------
DIPOLE MOMENT
-------------

Method             : SCF
Type of density    : Electron Density
Multiplicity       :   1
Irrep              :   0
Energy             :  -345.7048154514440057 Eh
Relativity type    : 
Basis              : AO
                                X                 Y                 Z
Electronic contribution:     -1.141499729       2.930829783      -0.173415523
Nuclear contribution   :      1.405021387      -3.767614779       0.227377425
                        -----------------------------------------
Total Dipole Moment    :      0.263521657      -0.836784996       0.053961902
                        -----------------------------------------
Magnitude (a.u.)       :      0.878956586
Magnitude (Debye)      :      2.234130093



--------------------
Rotational spectrum 
--------------------
 
Rotational constants in cm-1:             0.172856             0.064641             0.053390 
[...]

             **** ENERGY FILE WAS UPDATED (xtb_opt.en.tmp) ****

----------------
TOTAL SCF ENERGY
----------------

Total Energy       :       -345.70481545000462 Eh           -9407.10628 eV

Components:
Nuclear Repulsion  :        306.60700970787650 Eh            8343.20089 eV
Electronic Energy  :       -652.31182515788123 Eh          -17750.30717 eV
One Electron Energy:      -1077.14729775099522 Eh          -29310.66810 eV
Two Electron Energy:        424.83547259311405 Eh           11560.36093 eV

Virial components:
Potential Energy   :       -689.89809038522299 Eh          -18773.08144 eV
Kinetic Energy     :        344.19327493521837 Eh            9365.97517 eV
Virial Ratio       :          2.00439154575310

DFT components:
N(Alpha)           :       27.000014297034 electrons
N(Beta)            :       27.000014297034 electrons
N(Total)           :       54.000028594069 electrons
E(X)               :      -45.420315602931 Eh       
E(C)               :       -1.746101180183 Eh       
E(XC)              :      -47.166416783114 Eh       

---------------
SCF CONVERGENCE
---------------

  Last Energy change         ...   -6.2986e-08  Tolerance :   1.0000e-07
  Last MAX-Density change    ...    1.3708e-04  Tolerance :   1.0000e-07
  Last RMS-Density change    ...    3.4207e-06  Tolerance :   5.0000e-09
  Last DIIS Error            ...    6.7080e-05  Tolerance :   1.0000e-07
  Last Orbital Gradient      ...    9.0689e-05  Tolerance :   1.0000e-04
  Last Orbital Rotation      ...    1.0535e-04  Tolerance :   1.0000e-04


----------------
ORBITAL ENERGIES
----------------

  NO   OCC          E(Eh)            E(eV) 
   0   2.0000     -18.996799      -516.9292 
   1   2.0000     -18.931697      -515.1577 
   2   2.0000     -10.154521      -276.3186 
   3   2.0000     -10.086282      -274.4617 
   4   2.0000     -10.059071      -273.7212 
   5   2.0000     -10.051290      -273.5095 
   6   2.0000     -10.051080      -273.5038 
   7   2.0000      -1.063679       -28.9442 
   8   2.0000      -0.976310       -26.5667 
   9   2.0000      -0.844448       -22.9786 
  10   2.0000      -0.699687       -19.0395 
  11   2.0000      -0.617201       -16.7949 
  12   2.0000      -0.581176       -15.8146 
  13   2.0000      -0.531417       -14.4606 
  14   2.0000      -0.487556       -13.2671 
  15   2.0000      -0.467223       -12.7138 
  16   2.0000      -0.445495       -12.1225 
  17   2.0000      -0.427398       -11.6301 
  18   2.0000      -0.406136       -11.0515 
  19   2.0000      -0.370400       -10.0791 
  20   2.0000      -0.359805        -9.7908 
  21   2.0000      -0.345260        -9.3950 
  22   2.0000      -0.329929        -8.9778 
  23   2.0000      -0.298399        -8.1199 
  24   2.0000      -0.277230        -7.5438 
  25   2.0000      -0.273067        -7.4305 
  26   2.0000      -0.236645        -6.4394 
  27   0.0000      -0.020933        -0.5696 
  28   0.0000       0.059010         1.6057 
  29   0.0000       0.086856         2.3635 
  30   0.0000       0.097557         2.6546 
  31   0.0000       0.101025         2.7490 
  32   0.0000       0.114732         3.1220 
  33   0.0000       0.129985         3.5371 
  34   0.0000       0.134313         3.6548 
  35   0.0000       0.154018         4.1911 
  36   0.0000       0.171694         4.6720 
  37   0.0000       0.181813         4.9474 
*Only the first 10 virtual orbitals were printed.
Total SCF time: 0 days 0 hours 0 min 4 sec 
Finished LeanSCF after   5.3 sec

Maximum memory used throughout the entire LEANSCF-calculation: 19.9 MB


-------------------------------------------------------------------------------
                          DFT DISPERSION CORRECTION                            
                                                                               
                                DFTD4 V3.4.0                                   
-------------------------------------------------------------------------------
-------------------------   ----------------
Dispersion correction           -0.003573175
-------------------------   ----------------

------------------   -----------------
gCP correction             0.008590423
------------------   -----------------

-------------------------   --------------------
FINAL SINGLE POINT ENERGY      -345.699798201833
-------------------------   --------------------

------------------------------------------------------------------------------
                         ORCA SCF GRADIENT CALCULATION
------------------------------------------------------------------------------

Nuc. rep. gradient        (SHARK) ... done (  0.0 sec)
HCore & Overlap gradient  (SHARK) ... done (  0.2 sec)
Split-RIJ-J gradient      (SHARK) ... done (  0.9 sec)
XC gradient                       ... done (  3.6 sec)
Dispersion correction             ... done (  0.0 sec)

-------------------
DISPERSION GRADIENT
-------------------

   1   C   :   -0.000084529   -0.000007189    0.000000280
   2   O   :   -0.000047023   -0.000010992    0.000000798
   3   C   :   -0.000025576    0.000022167   -0.000001402
   4   O   :   -0.000039278    0.000069695   -0.000004519
   5   C   :    0.000045627    0.000015784   -0.000000858
   6   C   :    0.000060527   -0.000018584    0.000024355
   7   C   :    0.000060598   -0.000021385   -0.000021706
   8   H   :   -0.000028346   -0.000004067   -0.000002706
   9   H   :   -0.000027866   -0.000003290    0.000002815
  10   H   :   -0.000032507   -0.000014869    0.000001120
  11   H   :    0.000016998    0.000018208   -0.000001089
  12   H   :    0.000026396   -0.000005626    0.000014557
  13   H   :    0.000024214   -0.000015264    0.000016786
  14   H   :    0.000026453   -0.000007365   -0.000013716
  15   H   :    0.000024312   -0.000017222   -0.000014715

Difference to translation invariance:
           :   -0.0000000000    0.0000000000   -0.0000000000

Difference to rotation invariance:
           :    0.0000000000    0.0000000000   -0.0000000000

Norm of the Dispersion gradient    ...    0.0001903764
RMS gradient                       ...    0.0000283796
MAX gradient                       ...    0.0000845293
gCP correction                   ... done

------------------
CARTESIAN GRADIENT
------------------

   1   C   :    0.000113239   -0.000019606    0.000052113
   2   O   :   -0.000136034   -0.000049621    0.000019019
   3   C   :    0.000013211    0.000146778   -0.000226944
   4   O   :    0.000020096   -0.000054691    0.000132212
   5   C   :    0.000029797   -0.000019897    0.000057509
   6   C   :    0.000046822   -0.000002019   -0.000023939
   7   C   :   -0.000056843    0.000013981    0.000054032
   8   H   :    0.000001029   -0.000075236    0.000003104
   9   H   :   -0.000004419    0.000018263   -0.000100661
  10   H   :   -0.000014797    0.000052912    0.000039254
  11   H   :   -0.000009118    0.000000998    0.000010598
  12   H   :    0.000012440   -0.000014021   -0.000001699
  13   H   :    0.000001551    0.000002210    0.000011021
  14   H   :   -0.000008182    0.000002137   -0.000016109
  15   H   :   -0.000008792   -0.000002187   -0.000009510

Difference to translation invariance:
           :   -0.0000000000    0.0000000000   -0.0000000000

Difference to rotation invariance:
           :   -0.0001185863    0.0000772296   -0.0000605350

Norm of the Cartesian gradient     ...    0.0004086018
RMS gradient                       ...    0.0000609108
MAX gradient                       ...    0.0002269441

-------
TIMINGS
-------

Total SCF gradient time     ....        4.694 sec

Densities                   ....       0.000 sec  (  0.0%)
One electron gradient       ....       0.151 sec  (  3.2%)
RI-J Coulomb gradient       ....       0.928 sec  ( 19.8%)
XC gradient                 ....       3.578 sec  ( 76.2%)

Maximum memory used throughout the entire SCFGRAD-calculation: 33.2 MB

------------------------------------------------------------------------------
                              ORCA PROPERTY CALCULATIONS
------------------------------------------------------------------------------

GBWName                                 ... xtb_opt.gbw
Number of atoms                         ...     15
Number of basis functions               ...    183
Max core memory                         ...   1024 MB

Electric properties:
Dipole moment                           ... YES
Quadrupole moment                       ...  NO
Static polarizability (Dipole/Dipole)   ...  NO
Static polarizability (Dipole/Quad.)    ...  NO
Static polarizability (Quad./Quad.)     ...  NO
Static polarizability (Velocity)        ...  NO

Atomic electric properties:
Dipole moment                           ...  NO
Quadrupole moment                       ...  NO
Static polarizability                   ...  NO

Choice of electric origin               ... Center of mass
Position of electric origin             ...    -0.002917    -0.019391    -0.038523

General magnetic properties:
Magnetizability                         ...  NO

EPR properties:
g-Tensor (aka g-matrix)                 ...  NO
Zero-Field splitting spin-orbit         ...  NO
Zero-field splitting spin-spin          ...  NO
Hyperfine couplings                     ...  NO (   0 nuclei)
Quadrupole couplings                    ...  NO (   0 nuclei)
Contact density                         ...  NO (   0 nuclei)

NMR properties:
Chemical shifts                         ...  NO (   0 nuclei)
Spin-rotation constants                 ...  NO (   0 nuclei)
Spin-spin couplings                     ...  NO (   0 nuclei,    0 pairs)

Choice of magnetic origin               ... GIAO
Position of magnetic origin             ...     0.000000     0.000000     0.000000

Properties with geometric perturbations:
SCF Hessian                             ...  NO
IR spectrum                             ...  NO
VCD spectrum                            ...  NO
X-ray spectroscopy properties:
SCF XES/XAS/RIXS spectra                ...  NO


-------------
DIPOLE MOMENT
-------------

Method             : SCF
Type of density    : Electron Density
Multiplicity       :   1
Irrep              :   0
Energy             :  -345.7048154500046167 Eh
Relativity type    : 
Basis              : AO
                                X                 Y                 Z
Electronic contribution:     -1.141412545       2.930431050      -0.173350213
Nuclear contribution   :      1.405021387      -3.767614779       0.227377425
                        -----------------------------------------
Total Dipole Moment    :      0.263608841      -0.837183729       0.054027211
                        -----------------------------------------
Magnitude (a.u.)       :      0.879366338
Magnitude (Debye)      :      2.235171599



--------------------
Rotational spectrum 
--------------------
 
Rotational constants in cm-1:             0.172856             0.064641             0.053390 
Rotational constants in MHz :          5182.098916          1937.901599          1600.588642 

Dipole components along the rotational axes: 
x,y,z [a.u.] :     0.384242    -0.790973    -0.002189 
x,y,z [Debye]:     0.976665    -2.010494    -0.005564 

 

Dipole moment calculation done in   0.3 sec 

Maximum memory used throughout the entire PROP-calculation: 11.5 MB

--------------------------------
SUGGESTED CITATIONS FOR THIS RUN
--------------------------------

Below you find a list of papers that are relevant to this ORCA run
We neither can nor want to force you to cite these papers, but we appreciate if you do
You receive ORCA, which is the product of decades of hard work by many enthusiastic individuals, for free
The only thing we kindly ask in return is that you cite our papers,
We deeply appreciate it, if you show your appreciation for ORCA by not just citing the generic ORCA reference.

Please note that relegating all ORCA citations to the supporting information does *not* help us.
SI sections are not indexed - citations you put there will not count into any citation statistics
But we need these citations in order to attract the funding resources that allow us to do what we are doing

Therefore, if you are a happy ORCA user, please consider citing a few of the papers listed below in the main body of your paper

In addition to the list printed below, the program has created the file xtb_opt.bibtex that contains the list in bibtex format
You can import this file easily into all common literature databanks and citation aid programs


List of essential papers. We consider these as the minimum necessary citations

  1. Neese,F.
     Software update: the ORCA program system, version 5.0
     WIRES Comput. Molec. Sci., 2022 12(1)e1606
     doi.org/10.1002/wcms.1606
  2. Grimme,S.; Hansen,A.; Ehlert,S.; Mewes,J.
     r2SCAN-3c: A 'Swiss army knife' composite electronic-structure method
     J. Chem. Phys., 2021 154 064103
     doi.org/10.1063/5.0040021

List of papers to cite with high priority. The work reported in these papers was absolutely
necessary for this run to complete.
Our perspective: the developers of density functionals and basis sets usually get cited in chemistry papers
Good! But without the algorithms to do something with them, the functionals or basis sets would not do anything.
Hence, in our opinion, the algorithm design and method developments papers are equally worthy of getting cited

  1. Neese,F.
     An improvement of the resolution of the identity approximation for the formation of the Coulomb matrix
     J. Comp. Chem., 2003 24(14)1740-1747
     doi.org/10.1002/jcc.10318
  2. Neese,F.
     The SHARK Integral Generation and Digestion System
     J. Comp. Chem., 2022  1-16
     doi.org/10.1002/jcc.26942
  3. Lehtola,S.; Steigemann,C.; Oliveira,M.; Marques,M.
     Recent developments in Libxc - A comprehensive library of functionals for density functional theory
     Software X, 2018 7 
     doi.org/10.1016/j.softx.2017.11.002
  4. Caldeweyher,E.; Bannwarth,C.; Grimme,S.
     Extension of the D3 dispersion coefficient model
     J. Chem. Phys., 2017 147 034112
     doi.org/10.1063/1.4993215
  5. Caldeweyher,E.; Ehlert,S.; Hansen,A.; Neugebauer,H.; Spicher,S.; Bannwarth,C.; Grimme,S.
     A generally applicable atomic-charge dependent London dispersion correction
     J. Chem. Phys., 2019 150 154122
     doi.org/10.1063/1.5090222
  6. Caldeweyher,E.; Mewes,J.; Ehlert,S.; Grimme,S.
     Extension and evaluation of the D4 London-dispersion model for periodic systems
     Phys. Chem. Chem. Phys., 2020 22(16)8499-8512
     doi.org/10.1039/D0CP00502A
  7. Wittmann,L.; Gordiy,I.; Friede,M.; Helmich-Paris,B.; Grimme,S.; Hansen,A.; Bursch,M.
     Extension of the D3 and D4 London Dispersion Corrections to the full Actinides Series
     Phys. Chem. Chem. Phys., 2024 26(32)21379-21394
     doi.org/https://doi.org/10.1039/D4CP01514B 

List of suggested additional citations. These are papers that are important in the 'surrounding' of 
of this run, or papers that preceded the highly important papers. If you like your results we are grateful for a citation.

  1. Neese,F.
     The ORCA program system
     WIRES Comput. Molec. Sci., 2012 2(1)73-78
     doi.org/10.1002/wcms.81
  2. Neese,F.
     Software update: the ORCA program system, version 4.0
     WIRES Comput. Molec. Sci., 2018 8(1)1-6
     doi.org/10.1002/wcms.1327
  3. Neese,F.; Wennmohs,F.; Becker,U.; Riplinger,C.
     The ORCA quantum chemistry program package
     J. Chem. Phys., 2020 152 Art. No. L224108
     doi.org/10.1063/5.0004608

List of optional additional citations

  1. Neese,F.
     Approximate second-order SCF convergence for spin unrestricted wavefunctions
     Chem. Phys. Lett., 2000 325(1-3)93-98
     doi.org/10.1016/s0009-2614(00)00662-x

Timings for individual modules:

Sum of individual times          ...       11.529 sec (=   0.192 min)
Startup calculation              ...        0.624 sec (=   0.010 min)   5.4 %
SCF iterations                   ...        5.419 sec (=   0.090 min)  47.0 %
Property calculations            ...        0.349 sec (=   0.006 min)   3.0 %
SCF Gradient evaluation          ...        5.138 sec (=   0.086 min)  44.6 %
                             ****ORCA TERMINATED NORMALLY****
TOTAL RUN TIME: 0 days 0 hours 0 minutes 13 seconds 330 msec
  ------------------------------------------------------------------------
          * successful ORCA run, taking over control again...

         :::::::::::::::::::::::::::::::::::::::::::::::::::::
         ::                  ORCA SUMMARY                   ::
         :::::::::::::::::::::::::::::::::::::::::::::::::::::
         :: total energy            -345.699798201833 Eh    ::
         :: gradient norm              0.000408601758 Eh/a0 ::
         :: HOMO-LUMO gap              0.000000000000 eV    ::
         :::::::::::::::::::::::::::::::::::::::::::::::::::::

           -------------------------------------------------
          |                Property Printout                |
           -------------------------------------------------
           -------------------------------------------------
          |                Geometry Summary                 |
           -------------------------------------------------

      molecular mass/u    :      100.1160153
   center of mass at/Å    :       -0.0015578      -0.0102523      -0.0203863
  moments of inertia/u·Å² :        0.9752340E+02   0.2607809E+03   0.3157407E+03
rotational constants/cm⁻¹ :        0.1728573E+00   0.6464291E-01   0.5339074E-01

 * 15 selected distances

     #   Z          #   Z                                           value/Å
     1   6 C        2   8 O                                       1.4408696
     2   8 O        3   6 C                                       1.3595182
     3   6 C        4   8 O                                       1.2108388
     3   6 C        5   6 C                                       1.4784265
     5   6 C        6   6 C                                       1.5176513
     5   6 C        7   6 C                                       1.5178179 (max)
     6   6 C        7   6 C                                       1.4890951
     1   6 C        8   1 H                                       1.0932902
     1   6 C        9   1 H                                       1.0930017
     1   6 C       10   1 H                                       1.0900445
     5   6 C       11   1 H                                       1.0832811 (min)
     6   6 C       12   1 H                                       1.0842881
     6   6 C       13   1 H                                       1.0833498
     7   6 C       14   1 H                                       1.0842818
     7   6 C       15   1 H                                       1.0834219

 * 3 distinct bonds (by element types)

   Z      Z             #   av. dist./Å        max./Å        min./Å
   1 H    6 C           8     1.0868699     1.0932902     1.0832811
   6 C    6 C           4     1.5007477     1.5178179     1.4784265
   6 C    8 O           3     1.3370755     1.4408696     1.2108388


optimized geometry written to: xtbopt.coord


           -------------------------------------------------
          | TOTAL ENERGY             -345.699798201833 Eh   |
          | GRADIENT NORM               0.000408601758 Eh/α |
           -------------------------------------------------

------------------------------------------------------------------------
 * finished run on 2025/04/15 at 19:56:50.510     
------------------------------------------------------------------------
 total:
 * wall-time:     0 d,  0 h,  0 min, 43.785 sec
 *  cpu-time:     0 d,  0 h,  0 min,  5.065 sec
 * ratio c/w:     0.116 speedup
 SCF:
 * wall-time:     0 d,  0 h,  0 min, 13.783 sec
 *  cpu-time:     0 d,  0 h,  0 min,  2.138 sec
 * ratio c/w:     0.155 speedup
 ANC optimizer:
 * wall-time:     0 d,  0 h,  0 min, 29.976 sec
 *  cpu-time:     0 d,  0 h,  0 min,  2.693 sec
 * ratio c/w:     0.090 speedup

