
                                 *****************
                                 * O   R   C   A *
                                 *****************

                                            #,                                       
                                            ###                                      
                                            ####                                     
                                            #####                                    
                                            ######                                   
                                           ########,                                 
                                     ,,################,,,,,                         
                               ,,#################################,,                 
                          ,,##########################################,,             
                       ,#########################################, ''#####,          
                    ,#############################################,,   '####,        
                  ,##################################################,,,,####,       
                ,###########''''           ''''###############################       
              ,#####''   ,,,,##########,,,,          '''####'''          '####       
            ,##' ,,,,###########################,,,                        '##       
           ' ,,###''''                  '''############,,,                           
         ,,##''                                '''############,,,,        ,,,,,,###''
      ,#''                                            '''#######################'''  
     '                                                          ''''####''''         
             ,#######,   #######,   ,#######,      ##                                
            ,#'     '#,  ##    ##  ,#'     '#,    #''#        ,####,   ,####,        
            ##       ##  ##   ,#'  ##            #'  '#       #'       #'  '#        
            ##       ##  #######   ##           ,######,      #####,   #    #        
            '#,     ,#'  ##    ##  '#,     ,#' ,#      #,     #,   #   #,  ,#        
             '#######'   ##     ##  '#######'  #'      '#     '####' # '####'        



                #########################################################
                #                        -***-                          #
                #          Department of theory and spectroscopy        #
                #                                                       #
                #                      Frank Neese                      #
                #                                                       #
                #     Directorship, Architecture, Infrastructure        #
                #                    SHARK, DRIVERS                     #
                #        Core code/Algorithms in most modules           #
                #                                                       #
                #        Max Planck Institute fuer Kohlenforschung      #
                #                Kaiser Wilhelm Platz 1                 #
                #                 D-45470 Muelheim/Ruhr                 #
                #                      Germany                          #
                #                                                       #
                #                  All rights reserved                  #
                #                        -***-                          #
                #########################################################


                         Program Version 6.0.1  -  RELEASE   -


 With contributions from (in alphabetic order):
[Max-Planck-Institut fuer Kohlenforschung]                               
  Daniel Aravena         : Magnetic Suceptibility                        
  Michael Atanasov       : Ab Initio Ligand Field Theory (pilot matlab implementation)
  Alexander A. Auer      : GIAO ZORA, VPT2 properties, NMR spectrum      
  Ute Becker             : All parallelization in ORCA, NUMFREQ, NUMCALC 
  Giovanni Bistoni       : ED, misc. LED, open-shell LED, HFLD           
  Martin Brehm           : Molecular dynamics                            
  Dmytro Bykov           : pre 5.0 version of the SCF Hessian            
  Marcos Casanova-Páez   : Triplet and SCS-CIS(D). UHF-(DLPNO)-IP/EA/STEOM-CCSD. UHF-CVS-IP/STEOM-CCSD   
  Vijay G. Chilkuri      : MRCI spin determinant printing, contributions to CSF-ICE 
  Pauline Colinet        : FMM embedding                                 
  Dipayan Datta          : RHF DLPNO-CCSD density                        
  Achintya Kumar Dutta   : EOM-CC, STEOM-CC                              
  Nicolas Foglia         : Exact transition moments, OPA infrastructure, MCD improvements    
  Dmitry Ganyushin       : Spin-Orbit,Spin-Spin,Magnetic field MRCI      
  Miquel Garcia-Rates    : C-PCM and meta-GGA Hessian, CCSD/C-PCM, Gaussian charge scheme 
  Tiago L. C. Gouveia    : GS-ROHF, GS-ROCIS                             
  Yang Guo               : DLPNO-NEVPT2, F12-NEVPT2, CIM, IAO-localization        
  Andreas Hansen         : Spin unrestricted coupled pair/coupled cluster methods 
  Ingolf Harden          : AUTO-CI MPn and infrastructure                
  Benjamin Helmich-Paris : MC-RPA, TRAH-(SCF,CASSCF), AVAS, COSX integrals, SCF dyn. polar. 
  Lee Huntington         : MR-EOM, pCC                                   
  Robert Izsak           : Overlap fitted RIJCOSX, COSX-SCS-MP3, EOM     
  Riya Kayal             : Wick's Theorem for AUTO-CI, AUTO-CI UHF-CCSDT 
  Emily Kempfer          : AUTO-CI, RHF CISDT and CCSDT                  
  Christian Kollmar      : KDIIS, OOCD, Brueckner-CCSD(T), CCSD density, CASPT2, CASPT2-K, improved NEVPT2 
  Axel Koslowski         : Symmetry handling                             
  Simone Kossmann        : meta-GGA functionals, TD-DFT gradient, OOMP2, (MP2 Hessian; deprecated post 5.0) 
  Lucas Lang             : DCDCAS                                        
  Marvin Lechner         : AUTO-CI (C++ implementation), FIC-MRCC        
  Spencer Leger          : CASSCF response                               
  Dagmar Lenk            : GEPOL surface, SMD, ORCA-2-JSON               
  Dimitrios Liakos       : Extrapolation schemes; Compound Job, initial MDCI parallelization 
  Dimitrios Manganas     : Further ROCIS development; embedding schemes. LFT, Crystal Embedding 
  Dimitrios Pantazis     : SARC Basis sets                               
  Anastasios Papadopoulos: AUTO-CI, single reference methods and gradients 
  Taras Petrenko         : pre 6.0 DFT Hessian and TD-DFT gradient, (ASA, deprecated), ECA, 1-Electron XAS/XES, NRVS 
  Peter Pinski           : DLPNO-MP2, DLPNO-MP2 Gradient                 
  Christoph Reimann      : Effective Core Potentials                     
  Marius Retegan         : Local ZFS, SOC                                
  Christoph Riplinger    : Optimizer, TS searches, QM/MM, DLPNO-CCSD(T), (RO)-DLPNO pert. Triples 
  Michael Roemelt        : Original ROCIS implementation                 
  Masaaki Saitow         : Open-shell DLPNO-CCSD energy and density      
  Barbara Sandhoefer     : DKH picture change effects                    
  Kantharuban Sivalingam : CASSCF convergence/infrastructure, NEVPT2 and variants, FIC-MRCI 
  Bernardo de Souza      : ESD, SOC TD-DFT                               
  Georgi L. Stoychev     : AutoAux, RI-MP2 NMR, DLPNO-MP2 response, X2C  
  Van Anh Tran           : RI-MP2 g-tensors                              
  Willem Van den Heuvel  : Paramagnetic NMR                              
  Zikuan Wang            : NOTCH, Electric field optimization            
  Frank Wennmohs         : Technical directorship and infrastructure     
  Hang Xu                : AUTO-CI-Response properties                   
                                                                         
[FACCTs GmbH]                                                            
  Markus Bursch, Miquel Garcia-Rates, Christoph Riplinger, Bernardo de Souza, Georgi L. Stoychev 
                                                                 
  APM, Basis sets (HGBS, AHGBS, def-TZVP (Ac-Lr), def2-XVPD (La-Lu)), CI-OPT, improved COSX, DLPNO-Multilevel,           
  DOCKER, DRACO, updates on ESD, GOAT, IRC, LR-CPCM, MBIS, meta-GGA TD-DFT gradient, ML-optimized integration grids, 
  MM, NACMEs, nearIR, NEB, NEB-TS, NL-DFT gradient (VV10), 2- and 3-layer-ONIOM, interface openCOSMO-RS, QMMM,   
  Crystal-QMMM, SF, symmetry and pop. for TD-DFT, r2SCAN hybrids, SOLVATOR                                   
                                                                         
[Other institutions]                                                     
  V. Asgeirsson          : NEB                                           
  Christoph Bannwarth    : sTDA-DFT, sTD-DFT, PBEh-3c, B97-3c, D3        
  Sebastian Ehlert       : rSCAN, r2SCAN, r2SCAN-3c, D4, dhf basis sets  
  Marvin Friede          : D4 for Fr, Ra, Ac-Lr                          
  Lars Goerigk           : TD-DFT with DH, B97 family of functionals     
  Stefan Grimme          : VdW corrections, initial TS optimization, DFT functionals, gCP, sTDA/sTD-DF 
  Waldemar Hujo          : DFT-NL                                        
  H. Jonsson             : NEB                                           
  Holger Kruse           : gCP                                           
  Marcel Mueller         : wB97X-3c, vDZP basis set                      
  Hagen Neugebauer       : wr2SCAN                                       
  Tobias Risthaus        : range-separated hybrid DFT                    
  Lukas Wittmann         : regularized MP2, r2SCAN double-hybrids, wr2SCAN        
                                                                         
We gratefully acknowledge several colleagues who have allowed us to      
interface, adapt or use parts of their codes:                            
  Ed Valeev, F. Pavosevic, A. Kumar             : LibInt (2-el integral package), F12 methods 
  Garnet Chan, S. Sharma, J. Yang, R. Olivares  : DMRG                   
  Ulf Ekstrom                                   : XCFun DFT Library      
  Mihaly Kallay                                 : mrcc  (arbitrary order and MRCC methods)
  Frank Weinhold                                : gennbo (NPA and NBO analysis)           
  Simon Mueller                                 : openCOSMO-RS                            
  Christopher J. Cramer and Donald G. Truhlar   : smd solvation model                     
  S Lehtola, MJT Oliveira, MAL Marques          : LibXC Library                           
  Liviu Ungur et al                             : ANISO software                          


 Your calculation uses the libint2 library for the computation of 2-el integrals
 For citations please refer to: http://libint.valeyev.net

 Your ORCA version has been built with support for libXC version: 6.2.2
 For citations please refer to: https://libxc.gitlab.io

 This ORCA versions uses:
   CBLAS   interface :  Fast vector & matrix operations
   LAPACKE interface :  Fast linear algebra routines
   SCALAPACK package :  Parallel linear algebra routines
   Shared memory     :  Shared parallel matrices
   BLAS/LAPACK       :  OpenBLAS 0.3.27  USE64BITINT DYNAMIC_ARCH NO_AFFINITY Zen SINGLE_THREADED
        Core in use  :  Zen
   Copyright (c) 2011-2014, The OpenBLAS Project


Your calculation utilizes the geometrical counterpoise correction gCP
Please cite in your paper:
H.Kruse, S. Grimme J.Chem.Phys., 136, (2012), 154101 
   

Your calculation utilizes the atom-pairwise dispersion correction
based on EEQ partial charges (D4)


================================================================================

----- Orbital basis set information -----
Your calculation utilizes the basis: def2-SV(P)
   F. Weigend and R. Ahlrichs, Phys. Chem. Chem. Phys. 7, 3297 (2005).

----- AuxJ basis set information -----
Your calculation utilizes the auxiliary basis: def2/J
   F. Weigend, Phys. Chem. Chem. Phys. 8, 1057 (2006).

================================================================================
                                        WARNINGS
                       Please study these warnings very carefully!
================================================================================


================================================================================
                                       INPUT FILE
================================================================================
NAME = sp.inp
|  1> ! pbe def2-sv(p) def2/J RI DEFGRID1 loosescf d4 GCP(DFT/SV(P)) printgap
|  2> %output
|  3>     printlevel normal
|  4> end
|  5> * xyz 0 1
|  6> C -2.3272102823 0.8769848088 0.2792193501
|  7> C -1.9165718982 -0.5141847701 -0.220657855
|  8> C -0.6295014705 -1.0109053024 0.4116172471
|  9> Br 0.8944540139 0.1107514168 -0.0897314935
| 10> H -3.2913574498 0.8457323748 0.7795515646
| 11> H -1.5981953643 1.2677018413 0.9854523693
| 12> H -2.3969489589 1.5835230088 -0.5431369265
| 13> H -1.7982999537 -0.5061398767 -1.305963443
| 14> H -2.6933196015 -1.2459407222 0.0161065966
| 15> H -0.3801816307 -2.0180459378 0.079000449
| 16> H -0.6777359303 -0.9835713192 1.4996436076
| 17> *
| 18> 
| 19>                          ****END OF INPUT****
================================================================================

                       ****************************
                       * Single Point Calculation *
                       ****************************

---------------------------------
CARTESIAN COORDINATES (ANGSTROEM)
---------------------------------
  C     -2.327210    0.876985    0.279219
  C     -1.916572   -0.514185   -0.220658
  C     -0.629501   -1.010905    0.411617
  Br     0.894454    0.110751   -0.089731
  H     -3.291357    0.845732    0.779552
  H     -1.598195    1.267702    0.985452
  H     -2.396949    1.583523   -0.543137
  H     -1.798300   -0.506140   -1.305963
  H     -2.693320   -1.245941    0.016107
  H     -0.380182   -2.018046    0.079000
  H     -0.677736   -0.983571    1.499644

----------------------------
CARTESIAN COORDINATES (A.U.)
----------------------------
  NO LB      ZA    FRAG     MASS         X           Y           Z
   0 C     6.0000    0    12.011   -4.397790    1.657261    0.527648
   1 C     6.0000    0    12.011   -3.621796   -0.971668   -0.416983
   2 C     6.0000    0    12.011   -1.189585   -1.910334    0.777844
   3 Br   35.0000    0    79.900    1.690273    0.209290   -0.169568
   4 H     1.0000    0     1.008   -6.219764    1.598203    1.473139
   5 H     1.0000    0     1.008   -3.020152    2.395609    1.862235
   6 H     1.0000    0     1.008   -4.529577    2.992425   -1.026380
   7 H     1.0000    0     1.008   -3.398294   -0.956466   -2.467913
   8 H     1.0000    0     1.008   -5.089636   -2.354487    0.030437
   9 H     1.0000    0     1.008   -0.718439   -3.813554    0.149289
  10 H     1.0000    0     1.008   -1.280735   -1.858680    2.833916

--------------------------------
INTERNAL COORDINATES (ANGSTROEM)
--------------------------------
 C      0   0   0     0.000000000000     0.00000000     0.00000000
 C      1   0   0     1.534227460298     0.00000000     0.00000000
 C      2   1   0     1.517581423781   112.83269651     0.00000000
 Br     3   2   1     1.957525140033   111.46955605   295.53945926
 H      1   2   3     1.086687075517   111.18649085   241.42825857
 H      1   2   3     1.087606375285   110.97191842     1.43560765
 H      1   2   3     1.086429729314   111.11551502   121.00500239
 H      2   1   3     1.091760593038   110.25530496   237.93325536
 H      2   1   3     1.093097055872   110.25808949   119.64459916
 H      3   2   1     1.089553383901   111.68072854   177.34774923
 H      3   2   1     1.089437961011   111.73607841    53.95953179

---------------------------
INTERNAL COORDINATES (A.U.)
---------------------------
 C      0   0   0     0.000000000000     0.00000000     0.00000000
 C      1   0   0     2.899269727104     0.00000000     0.00000000
 C      2   1   0     2.867813276872   112.83269651     0.00000000
 Br     3   2   1     3.699186414928   111.46955605   295.53945926
 H      1   2   3     2.053540965999   111.18649085   241.42825857
 H      1   2   3     2.055278190795   110.97191842     1.43560765
 H      1   2   3     2.053054652153   111.11551502   121.00500239
 H      2   1   3     2.063128524648   110.25530496   237.93325536
 H      2   1   3     2.065654073395   110.25808949   119.64459916
 H      3   2   1     2.058957503860   111.68072854   177.34774923
 H      3   2   1     2.058739386209   111.73607841    53.95953179

---------------------
BASIS SET INFORMATION
---------------------
There are 3 groups of distinct atoms

 Group   1 Type C   : 7s4p1d contracted to 3s2p1d pattern {511/31/1}
 Group   2 Type Br  : 14s10p6d contracted to 5s4p3d pattern {63311/5311/411}
 Group   3 Type H   : 4s contracted to 2s pattern {31}

Atom   0C    basis set group =>   1
Atom   1C    basis set group =>   1
Atom   2C    basis set group =>   1
Atom   3Br   basis set group =>   2
Atom   4H    basis set group =>   3
Atom   5H    basis set group =>   3
Atom   6H    basis set group =>   3
Atom   7H    basis set group =>   3
Atom   8H    basis set group =>   3
Atom   9H    basis set group =>   3
Atom  10H    basis set group =>   3
---------------------------------
AUXILIARY/J BASIS SET INFORMATION
---------------------------------
There are 3 groups of distinct atoms

 Group   1 Type C   : 12s5p4d2f1g contracted to 6s4p3d1f1g pattern {711111/2111/211/2/1}
 Group   2 Type Br  : 19s5p5d3f1g contracted to 8s4p3d2f1g pattern {121111111/2111/311/21/1}
 Group   3 Type H   : 5s2p1d contracted to 3s1p1d pattern {311/2/1}

Atom   0C    basis set group =>   1
Atom   1C    basis set group =>   1
Atom   2C    basis set group =>   1
Atom   3Br   basis set group =>   2
Atom   4H    basis set group =>   3
Atom   5H    basis set group =>   3
Atom   6H    basis set group =>   3
Atom   7H    basis set group =>   3
Atom   8H    basis set group =>   3
Atom   9H    basis set group =>   3
Atom  10H    basis set group =>   3
------------------------------------------------------------------------------
                             ORCA STARTUP CALCULATIONS
                           -- RI-GTO INTEGRALS CHOSEN --
------------------------------------------------------------------------------
------------------------------------------------------------------------------
                   ___                                                        
                  /   \      - P O W E R E D   B Y -                         
                 /     \                                                     
                 |  |  |   _    _      __       _____    __    __             
                 |  |  |  | |  | |    /  \     |  _  \  |  |  /  |          
                  \  \/   | |  | |   /    \    | | | |  |  | /  /          
                 / \  \   | |__| |  /  /\  \   | |_| |  |  |/  /          
                |  |  |   |  __  | /  /__\  \  |    /   |      \           
                |  |  |   | |  | | |   __   |  |    \   |  |\   \          
                \     /   | |  | | |  |  |  |  | |\  \  |  | \   \       
                 \___/    |_|  |_| |__|  |__|  |_| \__\ |__|  \__/        
                                                                              
                      - O R C A' S   B I G   F R I E N D -                    
                                      &                                       
                       - I N T E G R A L  F E E D E R -                       
                                                                              
 v1 FN, 2020, v2 2021, v3 2022-2024                                           
------------------------------------------------------------------------------


----------------------
SHARK INTEGRAL PACKAGE
----------------------

Number of atoms                             ...     11
Number of basis functions                   ...     88
Number of shells                            ...     44
Maximum angular momentum                    ...      2
Integral batch strategy                     ... SHARK/LIBINT Hybrid
RI-J (if used) integral strategy            ... SPLIT-RIJ (Revised 2003 algorithm where possible)
Printlevel                                  ...      1
Contraction scheme used                     ... SEGMENTED contraction
Prescreening option                         ... SCHWARTZ
   Thresh                                   ... 1.000e-09
   Tcut                                     ... 1.000e-10
   Tpresel                                  ... 1.000e-10 
Coulomb Range Separation                    ... NOT USED
Exchange Range Separation                   ... NOT USED
Multipole approximations                    ... NOT USED
Finite Nucleus Model                        ... NOT USED
CABS basis                                  ... NOT available
Auxiliary Coulomb fitting basis             ... AVAILABLE
   # of basis functions in Aux-J            ...    282
   # of shells in Aux-J                     ...     98
   Maximum angular momentum in Aux-J        ...      4
Auxiliary J/K fitting basis                 ... NOT available
Auxiliary Correlation fitting basis         ... NOT available
Auxiliary 'external' fitting basis          ... NOT available

Checking pre-screening integrals            ... done (  0.0 sec) Dimension = 44
Check shell pair data                       ... done (  0.0 sec)
Shell pair information
Shell pair cut-off parameter TPreSel        ...   1.0e-10
Total number of shell pairs                 ...       990
Shell pairs after pre-screening             ...       958
Total number of primitive shell pairs       ...      4565
Primitive shell pairs kept                  ...      3292
          la=0 lb=0:    391 shell pairs
          la=1 lb=0:    272 shell pairs
          la=1 lb=1:     55 shell pairs
          la=2 lb=0:    160 shell pairs
          la=2 lb=1:     59 shell pairs
          la=2 lb=2:     21 shell pairs

Calculating one electron integrals          ... done (  0.0 sec)
Calculating RI/J V-Matrix + Cholesky decomp.... done (  0.0 sec)
Calculating Nuclear repulsion               ... done (  0.0 sec) ENN=    245.912772205024 Eh

Diagonalization of the overlap matrix:
Smallest eigenvalue                        ... 2.679e-03
Time for diagonalization                   ...    0.001 sec
Threshold for overlap eigenvalues          ... 1.000e-07
Number of eigenvalues below threshold      ... 0
Time for construction of square roots      ...    0.002 sec
Total time needed                          ...    0.004 sec

-------------------
DFT GRID GENERATION
-------------------

General Integration Accuracy     IntAcc      ... 4.159
Radial Grid Type                 RadialGrid  ... OptM3 with GC (2021)
Angular Grid (max. ang.)         AngularGrid ... 3 (Lebedev-194)
Angular grid pruning method      GridPruning ... 4 (adaptive)
Weight generation scheme         WeightScheme... mBecke (2022)
Basis function cutoff            BFCut       ... 1.0000e-10
Integration weight cutoff        WCut        ... 1.0000e-14
Partially contracted basis set               ... off
Rotationally invariant grid construction     ... off
Angular grids for H and He will be reduced by one unit
Core-polarized basis detected: some atoms will have their core
                               angular grid increased.

Total number of grid points                  ...    25214
Total number of batches                      ...      399
Average number of points per batch           ...       63
Average number of grid points per atom       ...     2292
Initializing property integral containers    ... done (  0.0 sec)

SHARK setup successfully completed in   0.2 seconds

Maximum memory used throughout the entire STARTUP-calculation: 14.8 MB
-------------------------------------------------------------------------------
                                 ORCA GUESS
                   Start orbitals & Density for SCF / CASSCF
-------------------------------------------------------------------------------

------------
SCF SETTINGS
------------
Hamiltonian:
 Density Functional     Method          .... DFT(GTOs)
 Exchange Functional    Exchange        .... PBE
   PBE kappa parameter   XKappa         ....  0.804000
   PBE mue parameter    XMuePBE         ....  0.219520
 Correlation Functional Correlation     .... PBE
   PBE beta parameter  CBetaPBE         ....  0.066725
 LDA part of GGA corr.  LDAOpt          .... PW91-LDA
 Gradients option       PostSCFGGA      .... off
   NL short-range parameter             ....  6.400000
 RI-approximation to the Coulomb term is turned on
   Number of AuxJ basis functions       .... 282


General Settings:
 Integral files         IntName         .... sp
 Hartree-Fock type      HFTyp           .... RHF
 Total Charge           Charge          ....    0
 Multiplicity           Mult            ....    1
 Number of Electrons    NEL             ....   60
 Basis Dimension        Dim             ....   88
 Nuclear Repulsion      ENuc            ....    245.9127722050 Eh

Convergence Acceleration:
 AO-DIIS                CNVDIIS         .... on
   Start iteration      DIISMaxIt       ....    12
   Startup error        DIISStart       ....  0.200000
   # of expansion vecs  DIISMaxEq       ....     5
   Bias factor          DIISBfac        ....   1.050
   Max. coefficient     DIISMaxC        ....  10.000
 MO-DIIS                CNVKDIIS        .... off
 Trust-Rad. Augm. Hess. CNVTRAH         .... auto
   Auto Start mean grad. ratio tolernc. ....  1.125000
   Auto Start start iteration           ....    50
   Auto Start num. interpolation iter.  ....    10
   Max. Number of Micro iterations      ....    24
   Max. Number of Macro iterations      .... Maxiter - #DIIS iter
   Number of Davidson start vectors     ....     2
   Converg. threshold    (grad. norm)   ....   1.000e-04
   Grad. Scal. Fac. for Micro threshold ....   0.100
   Minimum threshold for Micro iter.    ....   1.000e-02
   NR start threshold (gradient norm)   ....   1.000e-04
   Initial trust radius                 ....   0.400
   Minimum AH scaling param. (alpha)    ....   1.000
   Maximum AH scaling param. (alpha)    .... 1000.000
   Quad. conv. algorithm                .... NR
   White noise on init. David. guess    .... on
   Maximum white noise                  ....   0.010
   Pseudo random numbers                .... off
   Inactive MOs                         .... canonical
   Orbital update algorithm             .... Taylor
   Preconditioner                       .... Diag
   Full preconditioner red. dimension   ....   250
 SOSCF                  CNVSOSCF        .... on
   Start iteration      SOSCFMaxIt      ....   150
   Startup grad/error   SOSCFStart      ....  0.003300
   Hessian update       SOSCFHessUp     .... L-BFGS
 Level Shifting         CNVShift        .... on
   Level shift para.    LevelShift      ....    0.2500
   Turn off err/grad.   ShiftErr        ....    0.0010
 Zerner damping         CNVZerner       .... off
 Static damping         CNVDamp         .... on
   Fraction old density DampFac         ....    0.7000
   Max. Damping (<1)    DampMax         ....    0.9800
   Min. Damping (>=0)   DampMin         ....    0.0000
   Turn off err/grad.   DampErr         ....    0.1000

SCF Procedure:
 Maximum # iterations   MaxIter         ....   125
 SCF integral mode      SCFMode         .... Direct
   Integral package                     .... SHARK and LIBINT hybrid scheme
 Reset frequency        DirectResetFreq ....    20
 Integral Threshold     Thresh          ....  1.000e-09 Eh
 Primitive CutOff       TCut            ....  1.000e-10 Eh

Convergence Tolerance:
 Convergence Check Mode ConvCheckMode   .... Total+1el-Energy
 Convergence forced     ConvForced      .... 0
 Energy Change          TolE            ....  1.000e-05 Eh
 1-El. energy change                    ....  1.000e-02 Eh
 Orbital Gradient       TolG            ....  1.000e-04
 Orbital Rotation angle TolX            ....  1.000e-04
 DIIS Error             TolErr          ....  5.000e-04

------------------------------
INITIAL GUESS: MODEL POTENTIAL
------------------------------
Loading Hartree-Fock densities                     ... done
Calculating cut-offs                               ... done
Initializing the effective Hamiltonian             ... done
Setting up the integral package (SHARK)            ... done
Starting the Coulomb interaction                   ... done (   0.1 sec)
Making the grid                                    ... done (   0.1 sec)
Mapping shells                                     ... done
Starting the XC term evaluation                    ... done (   0.0 sec)
  promolecular density results
     # of electrons  =     59.998534074
     EX              =   -106.681456850
     EC              =     -2.518517629
     EX+EC           =   -109.199974479
Transforming the Hamiltonian                       ... done (   0.0 sec)
Diagonalizing the Hamiltonian                      ... done (   0.0 sec)
Back transforming the eigenvectors                 ... done (   0.0 sec)
Now organizing SCF variables                       ... done
                      ------------------
                      INITIAL GUESS DONE (   0.2 sec)
                      ------------------
             **** ENERGY FILE WAS UPDATED (sp.en.tmp) ****
Finished Guess after   0.3 sec
Maximum memory used throughout the entire GUESS-calculation: 13.0 MB

-------------------------------------------------------------------------------------------
                                      ORCA LEAN-SCF
                              memory conserving SCF solver
-------------------------------------------------------------------------------------------

----------------------------------------D-I-I-S--------------------------------------------
Iteration    Energy (Eh)           Delta-E    RMSDP     MaxDP     DIISErr   Damp  Time(sec)
-------------------------------------------------------------------------------------------
               ***  Starting incremental Fock matrix formation  ***
    1    -2691.6161992274383010     0.00e+00  4.17e-03  8.22e-02  1.57e-01  0.700   0.2
    2    -2691.6645024958347676    -4.83e-02  2.94e-03  4.71e-02  7.30e-02  0.700   0.2
                               ***Turning on AO-DIIS***
    3    -2691.6805234418775399    -1.60e-02  1.23e-03  1.48e-02  1.92e-02  0.700   0.2
    4    -2691.6900980111608987    -9.57e-03  1.91e-03  2.71e-02  8.48e-03  0.000   0.2
    5    -2691.7122967130471807    -2.22e-02  4.91e-04  5.42e-03  6.93e-03  0.000   0.2
                              *** Initializing SOSCF ***
---------------------------------------S-O-S-C-F--------------------------------------
Iteration    Energy (Eh)           Delta-E    RMSDP     MaxDP     MaxGrad    Time(sec)
--------------------------------------------------------------------------------------
    6    -2691.7125355732950993    -2.39e-04  1.76e-04  1.91e-03  1.72e-03     0.2
               *** Restarting incremental Fock matrix formation ***
    7    -2691.7125536806511263    -1.81e-05  1.15e-04  1.06e-03  2.53e-04     0.2
    8    -2691.7125534694887392     2.11e-07  3.77e-05  5.43e-04  2.45e-04     0.1
                 **** Energy Check signals convergence ****

               *****************************************************
               *                     SUCCESS                       *
               *           SCF CONVERGED AFTER   8 CYCLES          *
               *****************************************************

             **** ENERGY FILE WAS UPDATED (sp.en.tmp) ****

----------------
TOTAL SCF ENERGY
----------------

Total Energy       :      -2691.71255346948874 Eh          -73245.22230 eV

Components:
Nuclear Repulsion  :        245.91277220502360 Eh            6691.62673 eV
Electronic Energy  :      -2937.62532567451217 Eh          -79936.84902 eV
One Electron Energy:      -4229.46466600592430 Eh         -115089.58460 eV
Two Electron Energy:       1291.83934033141236 Eh           35152.73558 eV

Virial components:
Potential Energy   :      -5379.42579088514321 Eh         -146381.61767 eV
Kinetic Energy     :       2687.71323741565493 Eh           73136.39537 eV
Virial Ratio       :          2.00148799953736

DFT components:
N(Alpha)           :       29.999952001685 electrons
N(Beta)            :       29.999952001685 electrons
N(Total)           :       59.999904003370 electrons
E(X)               :     -107.113761370303 Eh       
E(C)               :       -2.527612279438 Eh       
E(XC)              :     -109.641373649741 Eh       

---------------
SCF CONVERGENCE
---------------

  Last Energy change         ...   -2.1116e-07  Tolerance :   1.0000e-05
  Last MAX-Density change    ...    5.4284e-04  Tolerance :   1.0000e-03
  Last RMS-Density change    ...    3.7672e-05  Tolerance :   1.0000e-04
  Last DIIS Error            ...    1.7238e-03  Tolerance :   5.0000e-04
  Last Orbital Gradient      ...    2.4459e-04  Tolerance :   1.0000e-04
  Last Orbital Rotation      ...    3.0787e-04  Tolerance :   1.0000e-04


----------------
ORBITAL ENERGIES
----------------

  NO   OCC          E(Eh)            E(eV) 
   0   2.0000    -480.919403    -13086.4823 
   1   2.0000     -61.761700     -1680.6213 
   2   2.0000     -55.692299     -1515.4645 
   3   2.0000     -55.689261     -1515.3818 
   4   2.0000     -55.689112     -1515.3778 
   5   2.0000      -9.939131      -270.4575 
   6   2.0000      -9.900702      -269.4118 
   7   2.0000      -9.878585      -268.8100 
   8   2.0000      -8.386825      -228.2171 
   9   2.0000      -6.268667      -170.5791 
  10   2.0000      -6.254479      -170.1930 
  11   2.0000      -6.254364      -170.1899 
  12   2.0000      -2.469801       -67.2067 
  13   2.0000      -2.466370       -67.1134 
  14   2.0000      -2.466243       -67.1099 
  15   2.0000      -2.455591       -66.8200 
  16   2.0000      -2.455577       -66.8196 
  17   2.0000      -0.748302       -20.3623 
  18   2.0000      -0.680716       -18.5232 
  19   2.0000      -0.604512       -16.4496 
  20   2.0000      -0.526808       -14.3352 
  21   2.0000      -0.424190       -11.5428 
  22   2.0000      -0.417441       -11.3592 
  23   2.0000      -0.375900       -10.2288 
  24   2.0000      -0.348286        -9.4773 
  25   2.0000      -0.318217        -8.6591 
  26   2.0000      -0.314700        -8.5634 
  27   2.0000      -0.297183        -8.0868 
  28   2.0000      -0.233807        -6.3622 
  29   2.0000      -0.232093        -6.3156 
  30   0.0000      -0.021595        -0.5876 
  31   0.0000       0.037178         1.0117 
  32   0.0000       0.071989         1.9589 
  33   0.0000       0.077442         2.1073 
  34   0.0000       0.082026         2.2320 
  35   0.0000       0.102057         2.7771 
  36   0.0000       0.114452         3.1144 
  37   0.0000       0.162124         4.4116 
  38   0.0000       0.184065         5.0087 
  39   0.0000       0.199496         5.4286 
  40   0.0000       0.304930         8.2976 
*Only the first 10 virtual orbitals were printed.

                    ********************************
                    * MULLIKEN POPULATION ANALYSIS *
                    ********************************

-----------------------
MULLIKEN ATOMIC CHARGES
-----------------------
   0 C :   -0.289259
   1 C :   -0.164033
   2 C :   -0.252193
   3 Br:   -0.126104
   4 H :    0.104432
   5 H :    0.116727
   6 H :    0.111617
   7 H :    0.109383
   8 H :    0.103456
   9 H :    0.141302
  10 H :    0.144672
Sum of atomic charges:   -0.0000000

--------------------------------
MULLIKEN REDUCED ORBITAL CHARGES
--------------------------------
  0 C s       :     3.101170  s :     3.101170
      pz      :     1.070661  p :     3.159964
      px      :     1.072697
      py      :     1.016607
      dz2     :     0.002327  d :     0.028125
      dxz     :     0.006664
      dyz     :     0.008304
      dx2y2   :     0.006985
      dxy     :     0.003845

  1 C s       :     3.061162  s :     3.061162
      pz      :     1.058635  p :     3.066767
      px      :     0.976524
      py      :     1.031608
      dz2     :     0.011003  d :     0.036104
      dxz     :     0.004074
      dyz     :     0.004518
      dx2y2   :     0.005665
      dxy     :     0.010845

  2 C s       :     3.183579  s :     3.183579
      pz      :     1.080558  p :     3.030472
      px      :     0.924631
      py      :     1.025282
      dz2     :     0.011964  d :     0.038142
      dxz     :     0.005358
      dyz     :     0.003169
      dx2y2   :     0.009582
      dxy     :     0.008070

  3 Brs       :     7.970063  s :     7.970063
      pz      :     5.914068  p :    17.114612
      px      :     5.494910
      py      :     5.705634
      dz2     :     2.006061  d :    10.041430
      dxz     :     2.007427
      dyz     :     2.003921
      dx2y2   :     2.008755
      dxy     :     2.015266

  4 H s       :     0.895568  s :     0.895568

  5 H s       :     0.883273  s :     0.883273

  6 H s       :     0.888383  s :     0.888383

  7 H s       :     0.890617  s :     0.890617

  8 H s       :     0.896544  s :     0.896544

  9 H s       :     0.858698  s :     0.858698

 10 H s       :     0.855328  s :     0.855328


------------------------
MULLIKEN OVERLAP CHARGES
------------------------
B(  0-C ,  1-C ) :   0.8654 B(  0-C ,  2-C ) :  -0.1146 B(  0-C ,  4-H ) :   0.7425 
B(  0-C ,  5-H ) :   0.7963 B(  0-C ,  6-H ) :   0.7509 B(  0-C ,  7-H ) :  -0.0586 
B(  1-C ,  2-C ) :   0.8475 B(  1-C ,  3-Br) :  -0.1666 B(  1-C ,  5-H ) :  -0.0830 
B(  1-C ,  7-H ) :   0.7301 B(  1-C ,  8-H ) :   0.6774 B(  1-C , 10-H ) :  -0.0511 
B(  2-C ,  3-Br) :   0.5483 B(  2-C ,  7-H ) :  -0.0529 B(  2-C ,  9-H ) :   0.7194 
B(  2-C , 10-H ) :   0.7295 B(  3-Br,  9-H ) :  -0.0619 B(  3-Br, 10-H ) :  -0.0741 
B(  9-H , 10-H ) :  -0.0559 


                     *******************************
                     * LOEWDIN POPULATION ANALYSIS *
                     *******************************

----------------------
LOEWDIN ATOMIC CHARGES
----------------------
   0 C :   -0.351115
   1 C :   -0.253224
   2 C :   -0.278153
   3 Br:    0.007104
   4 H :    0.121966
   5 H :    0.121089
   6 H :    0.126497
   7 H :    0.123846
   8 H :    0.126844
   9 H :    0.127886
  10 H :    0.127260

-------------------------------
LOEWDIN REDUCED ORBITAL CHARGES
-------------------------------
  0 C s       :     2.947149  s :     2.947149
      pz      :     1.130965  p :     3.335625
      px      :     1.127528
      py      :     1.077132
      dz2     :     0.005222  d :     0.068341
      dxz     :     0.016306
      dyz     :     0.020018
      dx2y2   :     0.017783
      dxy     :     0.009012

  1 C s       :     2.914465  s :     2.914465
      pz      :     1.106894  p :     3.251015
      px      :     1.065103
      py      :     1.079019
      dz2     :     0.026369  d :     0.087743
      dxz     :     0.010182
      dyz     :     0.010179
      dx2y2   :     0.015449
      dxy     :     0.025564

  2 C s       :     2.989281  s :     2.989281
      pz      :     1.126818  p :     3.202555
      px      :     1.005536
      py      :     1.070200
      dz2     :     0.027147  d :     0.086317
      dxz     :     0.012582
      dyz     :     0.006634
      dx2y2   :     0.021670
      dxy     :     0.018283

  3 Brs       :     7.835529  s :     7.835529
      pz      :     5.904479  p :    17.103594
      px      :     5.494854
      py      :     5.704261
      dz2     :     2.007941  d :    10.053773
      dxz     :     2.008832
      dyz     :     2.004886
      dx2y2   :     2.010847
      dxy     :     2.021266

  4 H s       :     0.878034  s :     0.878034

  5 H s       :     0.878911  s :     0.878911

  6 H s       :     0.873503  s :     0.873503

  7 H s       :     0.876154  s :     0.876154

  8 H s       :     0.873156  s :     0.873156

  9 H s       :     0.872114  s :     0.872114

 10 H s       :     0.872740  s :     0.872740


---------------------------------
LOEWDIN BOND ORDERS (THRESH 0.050000)
---------------------------------
B(  0-C ,  1-C ) :   1.1119 B(  0-C ,  2-C ) :   0.0562 B(  0-C ,  4-H ) :   0.9438 
B(  0-C ,  5-H ) :   0.9381 B(  0-C ,  6-H ) :   0.9438 B(  1-C ,  2-C ) :   1.1381 
B(  1-C ,  3-Br) :   0.0726 B(  1-C ,  7-H ) :   0.9087 B(  1-C ,  8-H ) :   0.8957 
B(  2-C ,  3-Br) :   1.1580 B(  2-C ,  9-H ) :   0.9230 B(  2-C , 10-H ) :   0.9223 


------------------------------------------
LOEWDIN REDUCED ORBITAL POPULATIONS PER MO
-------------------------------------------
THRESHOLD FOR PRINTING IS 0.1%%
                      0         1         2         3         4         5   
                 -480.91940 -61.76170 -55.69230 -55.68926 -55.68911  -9.93913
                   2.00000   2.00000   2.00000   2.00000   2.00000   2.00000
                  --------  --------  --------  --------  --------  --------
 2 C  s               0.0       0.0       0.0       0.0       0.0      99.7
 3 Br s             100.0     100.0       0.0       0.0       0.0       0.0
 3 Br pz              0.0       0.0       8.2      77.8      13.9       0.0
 3 Br px              0.0       0.0      57.0       0.1      42.9       0.0
 3 Br py              0.0       0.0      34.8      22.1      43.1       0.0

                      6         7         8         9        10        11   
                  -9.90070  -9.87859  -8.38682  -6.26867  -6.25448  -6.25436
                   2.00000   2.00000   2.00000   2.00000   2.00000   2.00000
                  --------  --------  --------  --------  --------  --------
 0 C  s               0.0      99.7       0.0       0.0       0.0       0.0
 1 C  s              99.6       0.0       0.0       0.0       0.0       0.0
 3 Br s               0.0       0.0      99.9       0.0       0.0       0.0
 3 Br pz              0.0       0.0       0.0       7.3      27.9      64.8
 3 Br px              0.0       0.0       0.0      59.8      38.1       2.1
 3 Br py              0.0       0.0       0.0      32.9      34.0      33.0

                     12        13        14        15        16        17   
                  -2.46980  -2.46637  -2.46624  -2.45559  -2.45558  -0.74830
                   2.00000   2.00000   2.00000   2.00000   2.00000   2.00000
                  --------  --------  --------  --------  --------  --------
 0 C  s               0.0       0.0       0.0       0.0       0.0       4.9
 0 C  pz              0.0       0.0       0.0       0.0       0.0       0.1
 0 C  px              0.0       0.0       0.0       0.0       0.0       0.4
 0 C  py              0.0       0.0       0.0       0.0       0.0       1.3
 1 C  s               0.0       0.0       0.0       0.0       0.0      14.9
 1 C  pz              0.0       0.0       0.0       0.0       0.0       0.6
 1 C  px              0.0       0.0       0.0       0.0       0.0       2.0
 2 C  s               0.0       0.0       0.0       0.0       0.0      24.6
 2 C  pz              0.0       0.0       0.0       0.0       0.0       0.7
 2 C  py              0.0       0.0       0.0       0.0       0.0       1.8
 3 Br s               0.0       0.0       0.0       0.0       0.0      29.0
 3 Br pz              0.0       0.0       0.0       0.0       0.0       0.1
 3 Br px              0.0       0.0       0.0       0.0       0.0       1.4
 3 Br py              0.0       0.0       0.0       0.0       0.0       0.6
 3 Br dz2            15.1       8.1      12.4      23.8      40.6       0.1
 3 Br dxz            13.3       9.2      40.1      10.8      26.6       0.0
 3 Br dyz             7.3      23.5       6.9      50.3      11.9       0.0
 3 Br dx2y2           5.3      58.8      26.9       1.2       7.8       0.0
 3 Br dxy            59.1       0.3      13.6      13.9      13.0       0.2
 4 H  s               0.0       0.0       0.0       0.0       0.0       0.7
 5 H  s               0.0       0.0       0.0       0.0       0.0       1.3
 6 H  s               0.0       0.0       0.0       0.0       0.0       0.8
 7 H  s               0.0       0.0       0.0       0.0       0.0       2.7
 8 H  s               0.0       0.0       0.0       0.0       0.0       2.6
 9 H  s               0.0       0.0       0.0       0.0       0.0       4.4
10 H  s               0.0       0.0       0.0       0.0       0.0       4.5

                     18        19        20        21        22        23   
                  -0.68072  -0.60451  -0.52681  -0.42419  -0.41744  -0.37590
                   2.00000   2.00000   2.00000   2.00000   2.00000   2.00000
                  --------  --------  --------  --------  --------  --------
 0 C  s              16.0      19.6       5.8       0.4       0.2       0.1
 0 C  pz              0.1       0.0       2.2       5.9       0.4      20.4
 0 C  px              0.0       0.2       0.0       0.1      18.0       1.3
 0 C  py              1.3       1.0       5.5       6.9       0.0       1.3
 0 C  dx2y2           0.0       0.0       0.1       0.0       0.0       0.1
 1 C  s              16.0       1.0      12.8       0.2       0.1       0.1
 1 C  pz              0.1       0.0       5.4      18.9       0.2       5.5
 1 C  px              0.8       3.8       1.9       2.6      17.7       6.4
 1 C  py              1.0       9.4       1.5       0.2       8.3       6.5
 1 C  dxz             0.0       0.1       0.1       0.0       0.1       0.0
 1 C  dx2y2           0.0       0.2       0.0       0.0       0.0       0.1
 1 C  dxy             0.0       0.0       0.1       0.1       0.0       0.0
 2 C  s               0.0      15.1       8.5       0.2       0.0       0.0
 2 C  pz              0.0       0.1       6.3      17.5       0.3      19.4
 2 C  px             10.2       1.7       2.7       5.1       0.9       6.7
 2 C  py              0.2       2.5       1.6       6.6      20.2       0.7
 2 C  dz2             0.0       0.0       0.1       0.0       0.0       0.3
 2 C  dxz             0.1       0.0       0.1       0.0       0.0       0.0
 2 C  dyz             0.0       0.0       0.0       0.0       0.1       0.0
 2 C  dx2y2           0.0       0.0       0.1       0.1       0.0       0.0
 2 C  dxy             0.2       0.1       0.0       0.0       0.0       0.0
 3 Br s              37.5      15.0       4.9       0.8       1.3       0.3
 3 Br pz              0.0       0.1       0.7       0.7       0.1       3.4
 3 Br px              0.0       0.9       1.2       0.9       5.5       0.3
 3 Br py              0.1       0.8       1.1       2.4       0.1       0.8
 3 Br dxz             0.0       0.0       0.1       0.0       0.0       0.1
 3 Br dyz             0.0       0.0       0.0       0.0       0.0       0.1
 3 Br dx2y2           0.0       0.0       0.0       0.0       0.3       0.0
 3 Br dxy             0.0       0.1       0.1       0.1       0.0       0.0
 4 H  s               3.4       5.9       2.8       0.0       7.5       0.8
 5 H  s               2.7       5.3       4.5       0.1       1.7       7.8
 6 H  s               3.1       6.1       2.3       6.1       0.0       3.0
 7 H  s               3.0       0.2       8.6       6.1       0.4       2.8
 8 H  s               3.6       0.5       6.8       3.1       9.5       0.0
 9 H  s               0.0       5.6       4.2       8.6       6.8       1.3
10 H  s               0.0       4.2       7.7       5.9       0.0      10.2

                     24        25        26        27        28        29   
                  -0.34829  -0.31822  -0.31470  -0.29718  -0.23381  -0.23209
                   2.00000   2.00000   2.00000   2.00000   2.00000   2.00000
                  --------  --------  --------  --------  --------  --------
 0 C  s               0.0       0.5       0.1       0.0       0.1       0.0
 0 C  pz              4.4       0.3      14.4       7.9       0.0       0.2
 0 C  px              8.6      15.2       8.7       3.6       0.1       0.1
 0 C  py             12.3      17.5       2.5       3.6       0.2       0.4
 0 C  dxz             0.2       0.1       0.3       0.2       0.0       0.0
 0 C  dyz             0.1       0.2       0.3       0.2       0.0       0.0
 0 C  dx2y2           0.1       0.2       0.0       0.3       0.0       0.0
 0 C  dxy             0.0       0.0       0.3       0.0       0.0       0.0
 1 C  s               0.0       0.2       0.1       0.0       0.6       0.0
 1 C  pz              0.3       2.4      11.0      10.6       0.2       0.0
 1 C  px              0.4       3.5       5.7       5.5       2.7       0.1
 1 C  py              2.6      16.6       3.1       4.3       0.1       0.1
 1 C  dz2             0.0       0.1       0.3       0.7       0.0       0.0
 1 C  dyz             0.1       0.1       0.0       0.1       0.0       0.0
 1 C  dx2y2           0.1       0.4       0.0       0.0       0.0       0.0
 1 C  dxy             0.0       0.0       0.6       0.3       0.0       0.0
 2 C  s               0.1       0.3       0.8       0.0       0.0       0.0
 2 C  pz              5.4       0.2       2.1       2.4       0.4       1.7
 2 C  px              9.2       2.6       8.6       1.4       0.9       0.0
 2 C  py              5.6      11.2       0.1       1.5       0.8       0.6
 2 C  dz2             0.1       0.1       0.0       0.3       0.0       0.3
 2 C  dxz             0.0       0.1       0.0       0.0       0.1       0.1
 2 C  dx2y2           0.0       0.2       0.0       0.1       0.4       0.1
 2 C  dxy             0.0       0.2       0.1       0.1       0.0       0.0
 3 Br s               2.4       0.1       0.3       0.4       0.0       0.0
 3 Br pz              0.5       0.6       4.5       0.9      21.7      62.0
 3 Br px             14.6       3.8       1.2       8.2      35.6       1.1
 3 Br py             11.1       0.5       1.6       5.2      33.5      27.4
 3 Br dz2             0.1       0.0       0.0       0.0       0.0       0.0
 3 Br dx2y2           0.0       0.2       0.0       0.0       0.0       0.0
 3 Br dxy             0.4       0.0       0.0       0.0       0.0       0.0
 4 H  s               7.7       6.9       0.9       7.2       0.0       0.1
 5 H  s               2.0       0.7      17.3       0.0       0.1       0.2
 6 H  s               7.8       3.0       3.4       7.8       0.1       0.0
 7 H  s               0.2       1.5       6.9      11.0       0.1       0.3
 8 H  s               0.1       0.5       3.8      12.5       0.6       0.1
 9 H  s               0.2       9.1       0.1       0.2       1.0       2.2
10 H  s               3.0       0.9       0.8       3.3       0.4       2.6

                     30        31        32        33        34        35   
                  -0.02159   0.03718   0.07199   0.07744   0.08203   0.10206
                   0.00000   0.00000   0.00000   0.00000   0.00000   0.00000
                  --------  --------  --------  --------  --------  --------
 0 C  s               0.0       7.5       2.6       3.9      10.7       4.0
 0 C  pz              0.0       0.2       6.0       0.9       0.8       2.1
 0 C  px              0.1       1.0       0.3       4.7       3.9       1.1
 0 C  py              0.3       0.9       2.1       2.1       0.6       0.9
 0 C  dxz             0.0       0.0       0.2       0.5       0.2       0.1
 0 C  dyz             0.0       0.2       0.5       0.0       0.2       0.6
 0 C  dx2y2           0.0       0.2       0.4       0.2       0.0       0.0
 0 C  dxy             0.0       0.0       0.0       0.1       0.0       0.0
 1 C  s               0.2       8.3       0.8       2.3       0.4       2.4
 1 C  pz              0.3       0.5       9.1       0.1       0.8       0.7
 1 C  px              0.5       2.1       2.3       3.0       0.2       1.8
 1 C  py              0.0       2.0       0.6       1.0       1.4       0.2
 1 C  dz2             0.2       0.0       1.3       0.1       0.0       0.0
 1 C  dxz             0.0       0.1       0.0       0.0       0.0       1.0
 1 C  dyz             0.1       0.0       0.0       0.0       0.6       0.1
 1 C  dx2y2           0.5       0.1       0.1       0.3       0.0       0.2
 1 C  dxy             0.1       0.5       0.1       0.7       0.0       0.0
 2 C  s              11.3       3.9       2.1       0.6       4.9       0.0
 2 C  pz              1.8       1.4       1.6       9.8       0.5       7.7
 2 C  px             18.5       0.3       0.0       0.0       0.1       2.4
 2 C  py              9.9       4.6       0.1       0.5       8.7       6.7
 2 C  dz2             0.2       0.0       0.3       0.4       0.0       0.7
 2 C  dxz             0.1       0.1       0.2       0.0       0.0       0.0
 2 C  dyz             0.1       0.1       0.1       0.1       0.4       0.2
 2 C  dx2y2           0.0       0.3       0.1       0.1       0.0       0.4
 2 C  dxy             0.5       0.2       0.0       0.0       0.0       0.0
 3 Br s               3.3       1.7       0.0       0.4       0.3       0.1
 3 Br pz              2.5       0.0       0.2       0.3       0.0       0.2
 3 Br px             19.2       1.7       0.0       0.1       0.5       0.0
 3 Br py             10.7       0.1       0.0       0.0       0.7       0.2
 3 Br dz2             2.0       0.1       0.0       0.0       0.1       0.0
 3 Br dxz             1.8       0.0       0.0       0.0       0.1       1.8
 3 Br dyz             0.9       0.2       0.0       0.5       0.0       0.0
 3 Br dx2y2           0.6       0.4       0.1       0.1       0.0       0.2
 3 Br dxy             7.6       0.0       0.1       0.0       0.1       1.4
 4 H  s               0.0      10.7       2.0       1.5      26.6       1.7
 5 H  s               0.1       2.4       0.0      23.3       2.0      11.1
 6 H  s               0.1       5.4      24.0       2.9       3.6       0.8
 7 H  s               1.5       6.1      26.4       2.2       2.9       4.1
 8 H  s               1.2      19.3       6.7      13.0       1.1       3.3
 9 H  s               1.6      10.3       0.6       1.4      23.4      25.6
10 H  s               1.8       7.2       8.7      22.7       4.1      16.3

                     36        37        38        39        40        41   
                   0.11445   0.16212   0.18406   0.19950   0.30493   0.36081
                   0.00000   0.00000   0.00000   0.00000   0.00000   0.00000
                  --------  --------  --------  --------  --------  --------
 0 C  s               0.8       0.2       1.5       0.6       0.1       1.2
 0 C  pz              5.3       9.1       0.8       3.3       4.9       1.4
 0 C  px              3.8       4.4       7.3       3.2       4.6       6.4
 0 C  py              1.6       1.8      19.9       8.7       0.3       6.1
 0 C  dz2             0.1       0.3       0.8       0.1       0.0       0.1
 0 C  dxz             1.0       0.0       0.1       0.0       0.7       0.4
 0 C  dyz             0.1       0.0       1.3       0.8       0.2       2.1
 0 C  dx2y2           0.5       0.1       1.8       1.5       0.6       0.0
 0 C  dxy             0.6       0.1       1.1       0.0       0.1       0.1
 1 C  s              14.9       0.0       3.8       0.0       0.8       0.8
 1 C  pz              1.2       6.8       8.5       0.2       1.1       3.4
 1 C  px              3.0       2.0       0.9      16.2       4.3       1.1
 1 C  py              0.5       3.8      14.7       8.9       2.9       1.4
 1 C  dz2             0.4       0.0       0.5       0.1       0.9       1.7
 1 C  dxz             0.7       0.0       0.4       1.4       0.1       0.1
 1 C  dyz             0.1       0.0       2.0       0.5       0.3       0.1
 1 C  dx2y2           0.1       0.2       0.8       2.6       0.2       0.0
 1 C  dxy             1.4       0.0       0.7       0.0       0.4       1.3
 2 C  s               6.5       0.1       0.3       1.0       0.6       0.3
 2 C  pz              0.7       0.3       0.4       4.3       1.3       2.9
 2 C  px              6.4       0.8       1.9      10.7       1.3       4.8
 2 C  py              0.8       0.2       1.9       1.8       0.7       3.5
 2 C  dz2             0.1       0.0       0.3       0.2       0.4       2.6
 2 C  dxz             0.8       0.0       0.0       2.5       0.2       0.1
 2 C  dyz             0.2       0.2       0.8       0.2       0.0       0.5
 2 C  dx2y2           0.5       0.3       0.2       1.1       0.5       2.4
 2 C  dxy             0.9       0.0       1.0       0.3       0.0       0.1
 3 Br s               0.1       0.7       1.1       4.7      43.5       0.2
 3 Br pz              0.1       0.0       0.0       0.3       0.4       0.2
 3 Br px              0.1       0.1       0.0       0.1       0.3       0.3
 3 Br py              0.6       0.1       0.1       0.3       0.5       0.3
 3 Br dz2             0.0       0.0       0.0       0.3       0.0       0.0
 3 Br dxz             0.1       0.0       1.1       0.5       4.9       6.7
 3 Br dyz             1.0       0.0       0.1       1.7       1.7       0.1
 3 Br dx2y2           0.8       0.2       0.5       1.9       1.2      12.5
 3 Br dxy             0.0       0.0       0.0       1.3       6.0       4.5
 4 H  s               4.0      17.8       4.0       3.0       3.6       1.1
 5 H  s              12.3       0.0       4.6      10.3       1.4       2.6
 6 H  s               7.9      19.9       5.6       0.1       2.4       4.4
 7 H  s               5.7      15.7       4.7       0.0       2.3       4.8
 8 H  s               8.3      13.8       3.2       0.9       3.3       0.6
 9 H  s               3.8       0.0       0.7       1.6       0.1      11.7
10 H  s               2.1       0.5       0.8       2.9       0.5       5.2

                     42        43        44        45        46        47   
                   0.36859   0.40856   0.41355   0.42893   0.46776   0.49331
                   0.00000   0.00000   0.00000   0.00000   0.00000   0.00000
                  --------  --------  --------  --------  --------  --------
 0 C  s               0.3       0.5       0.0       1.6       0.1       0.3
 0 C  pz              3.6       9.0       1.4       0.2       0.3      13.3
 0 C  px              0.5       1.2       0.3       0.4      13.8       1.1
 0 C  py              6.9       0.0       0.5      19.0       1.6       1.8
 0 C  dz2             0.1       0.1       0.1       0.7       0.3       0.5
 0 C  dxz             0.7       0.1       0.0       0.7       4.0       0.2
 0 C  dyz             0.1       1.1       0.1       1.5       0.1       0.8
 0 C  dx2y2           0.1       2.5       0.2       0.3       0.0       1.6
 0 C  dxy             0.5       0.2       0.4       0.6       0.0       0.0
 1 C  s               0.3       0.0       1.7       0.6       0.3       2.4
 1 C  pz              0.4       5.1       1.5       5.9       0.0       1.4
 1 C  px             12.5       0.7       4.7       1.4       3.0       1.9
 1 C  py              2.7       3.9       2.9      11.5       1.9       0.4
 1 C  dz2             0.1       2.0       0.2       1.0       0.0       0.1
 1 C  dxz             2.1       0.0       0.0       0.4       0.9       0.3
 1 C  dyz             0.3       0.4       1.0       0.7       0.1       0.7
 1 C  dx2y2           1.3       0.1       0.2       1.3       0.0       0.3
 1 C  dxy             0.5       0.9       0.4       0.2       0.0       0.4
 2 C  s               1.2       0.9       1.1       0.1       0.7       2.5
 2 C  pz             10.3       1.5       5.6       3.5       1.0       0.4
 2 C  px             10.3       1.0       7.5       1.5       0.7       9.2
 2 C  py              0.1       0.1      22.7       0.3       0.2       0.5
 2 C  dz2             2.1       0.0       1.4       0.3       0.0       0.3
 2 C  dxz             0.7       0.6       0.6       0.5       0.3       0.1
 2 C  dyz             0.0       0.1       2.6       0.1       0.2       0.1
 2 C  dx2y2           0.2       0.2       0.4       0.2       0.2       0.1
 2 C  dxy             0.3       0.7       3.2       1.5       0.0       0.2
 3 Br s               3.4      21.4       1.4       0.5       0.5       0.3
 3 Br pz              0.4       0.1       0.2       0.4       0.0       0.5
 3 Br px              0.7      11.0       0.0       0.5       2.0       0.1
 3 Br py              0.0       0.3       1.2       0.3       2.0       2.4
 3 Br dz2             5.3       1.3       8.6      10.1      17.4       1.6
 3 Br dxz             5.0       0.5       0.5      12.1       9.5      13.4
 3 Br dyz             6.7       3.2       6.7       4.2       2.3      24.2
 3 Br dx2y2           5.0       3.8       0.9       6.4      24.3       0.2
 3 Br dxy             1.3       1.1       2.5       0.2       1.6       8.8
 4 H  s               0.2       4.5       0.1       0.2       4.4       2.0
 5 H  s               5.0       1.8       0.5       1.8       5.7       2.3
 6 H  s               0.0       5.7       1.0       3.5       0.0       3.1
 7 H  s               0.0       5.0       1.2       2.6       0.1       0.0
 8 H  s               2.0       5.3       1.1       0.4       0.1       0.3
 9 H  s               0.1       0.9       6.8       0.2       0.3       0.0
10 H  s               6.7       1.3       6.7       0.9       0.3       0.2

                     48        49        50        51        52        53   
                   0.51967   0.54560   0.55827   0.56600   0.58962   0.61086
                   0.00000   0.00000   0.00000   0.00000   0.00000   0.00000
                  --------  --------  --------  --------  --------  --------
 0 C  s               0.4       2.8       3.6       3.7       1.6       2.2
 0 C  pz              1.9       0.2       0.1       1.1      10.1       0.8
 0 C  px              3.5       0.8       1.6       2.1       4.1       2.6
 0 C  py              0.2       2.3       4.0       7.6       3.1       1.6
 0 C  dz2             0.1       0.3       0.0       0.0       1.9       0.0
 0 C  dxz             1.6       0.0       1.0       0.1       1.0       0.0
 0 C  dyz             0.3       0.0       0.1       0.0       0.4       0.0
 0 C  dx2y2           0.1       0.1       0.0       0.2       0.2       0.7
 1 C  s               0.4       0.2       0.3       7.5       3.8       1.9
 1 C  pz              2.2       0.3       3.6       8.3       3.5       0.6
 1 C  px              1.1       0.2       4.7       0.9       0.7       6.3
 1 C  py              0.2       4.6       5.3       4.8       3.7      15.2
 1 C  dz2             0.0       0.1       0.0       0.0       1.4       0.0
 1 C  dxz             0.2       0.0       0.6       0.8       0.4       0.1
 1 C  dyz             0.1       0.1       0.1       0.2       0.0       0.5
 1 C  dx2y2           0.0       0.0       0.0       0.0       0.3       0.0
 1 C  dxy             0.2       0.2       0.0       0.2       0.1       0.4
 2 C  s               1.9       9.1       0.3       1.2       0.0       4.1
 2 C  pz              0.2       1.5       1.7       0.5       0.9       0.1
 2 C  px              0.7       0.7       8.8      10.0       1.3       8.4
 2 C  py              4.5       2.2       0.0       0.6       3.7       6.3
 2 C  dz2             0.1       0.0       0.9       0.2       0.0       0.0
 2 C  dxz             0.1       0.3       0.1       0.3       0.2       0.1
 2 C  dyz             0.1       0.7       0.3       0.2       2.5       0.0
 2 C  dx2y2           0.1       0.0       0.0       0.2       0.2       0.1
 2 C  dxy             0.0       0.0       0.1       0.0       0.0       0.3
 3 Br s               0.3       0.1       0.2       0.1       0.1       0.8
 3 Br pz              0.3       0.2      19.1      16.2      23.1       2.1
 3 Br px             13.3       4.0      11.2       0.8       2.5       4.0
 3 Br py              1.3      27.8       2.6       0.3       0.0       4.6
 3 Br dz2            35.5       1.4       1.1       0.0       0.1       0.2
 3 Br dxz             4.2       2.6       1.1       7.0       0.8       1.3
 3 Br dyz             0.1      19.9       6.1       1.2       1.0       0.2
 3 Br dx2y2           4.1       0.4       6.9       0.6       4.2       0.0
 3 Br dxy            11.3       9.3       6.3       0.7       5.0       1.6
 4 H  s               3.4       1.7       0.5       1.1       1.1       8.7
 5 H  s               1.4       0.3       2.6       0.3       0.2       1.5
 6 H  s               0.3       0.0       0.2       1.6       3.5       1.3
 7 H  s               0.0       0.2       1.5       2.6       8.2       1.3
 8 H  s               1.4       0.2       0.2      12.4       0.0       8.0
 9 H  s               0.4       4.0       1.3       2.9       4.2       9.6
10 H  s               2.2       1.2       2.0       1.5       0.7       2.0

                     54        55        56        57        58        59   
                   0.62378   0.63558   0.64930   0.65373   0.65977   0.67174
                   0.00000   0.00000   0.00000   0.00000   0.00000   0.00000
                  --------  --------  --------  --------  --------  --------
 0 C  s              15.6       0.9       6.0       1.0      11.4       7.3
 0 C  pz              1.5       9.3       8.0       3.9       0.6       9.6
 0 C  px              1.1       4.2       0.0       2.3       5.2      16.4
 0 C  py              2.3       0.3       3.7       4.3       5.5       9.2
 0 C  dz2             0.1       0.0       0.0       2.0       0.0       0.0
 0 C  dxz             0.0       0.6       0.1       0.4       0.3       0.3
 0 C  dyz             0.2       0.3       0.5       0.0       0.3       1.0
 0 C  dx2y2           0.1       0.7       0.2       1.0       0.0       0.0
 0 C  dxy             0.0       0.0       0.0       0.6       0.6       0.1
 1 C  s              12.4       0.6      10.0       2.2       1.6       5.5
 1 C  pz              6.8       2.2       3.1       4.2       0.2       8.7
 1 C  px              2.6      18.1       6.0       3.2       0.2       0.4
 1 C  py              0.3       0.5       0.7       7.6       2.6       3.5
 1 C  dz2             0.2       0.2       0.2       3.7       0.0       0.2
 1 C  dxz             0.1       0.3       0.0       0.0       0.0       0.0
 1 C  dx2y2           0.0       0.2       0.2       0.0       0.0       0.0
 1 C  dxy             0.2       0.4       0.0       1.0       0.1       0.1
 2 C  s              13.4       1.2       7.3       1.5       2.0       0.1
 2 C  pz             15.9       4.5       4.3       1.3      15.6       0.1
 2 C  px              1.3      13.9       0.8       0.4       3.8       0.0
 2 C  py              1.8       1.6       9.7       5.8       5.3       1.1
 2 C  dz2             0.2       0.6       0.0       0.1       1.4       0.0
 2 C  dxz             0.0       0.2       0.0       0.3       0.0       0.0
 2 C  dyz             0.1       0.2       0.1       0.8       0.0       0.0
 2 C  dx2y2           0.0       0.1       0.2       0.5       0.1       0.0
 2 C  dxy             0.0       0.0       0.1       0.3       0.1       0.0
 3 Br s               0.7       0.2       0.1       0.3       0.1       0.0
 3 Br pz              0.4       0.0       4.0       4.7       1.6       0.4
 3 Br px              0.0       3.2       5.3       0.3       0.0       0.1
 3 Br py              1.9       5.9       7.0       3.8       3.5       0.0
 3 Br dz2             0.7       0.2       0.2       1.0       0.8       0.0
 3 Br dxz             0.2       1.5       0.0       0.9       0.3       0.0
 3 Br dyz             1.4       2.0       0.0       0.4       2.1       0.5
 3 Br dx2y2           0.6       1.9       0.3       0.0       0.0       0.0
 3 Br dxy             0.1       0.3       0.2       0.3       0.3       0.2
 4 H  s               3.4       4.9       3.4       8.5       0.3       5.2
 5 H  s               0.3       1.0       1.7       1.2      11.0       3.3
 6 H  s               1.8       6.7       3.5       1.7       0.3      16.2
 7 H  s               3.7       3.3       2.7      10.9       0.9       7.6
 8 H  s               0.7       3.1       0.4      16.0       0.2       1.6
 9 H  s               0.1       0.1       7.2       0.3       6.6       1.2
10 H  s               7.6       4.3       2.7       1.0      14.8       0.0

                     60        61        62        63        64        65   
                   0.68097   0.69716   0.72170   0.77738   0.79446   0.88621
                   0.00000   0.00000   0.00000   0.00000   0.00000   0.00000
                  --------  --------  --------  --------  --------  --------
 0 C  s               1.0      10.5       0.8       0.3       1.6      20.3
 0 C  pz              0.3      16.6       3.4       0.9       3.5       1.9
 0 C  px             20.1       8.8       1.0       1.6       0.3       2.2
 0 C  py              9.2       0.5       5.5       1.0       0.5       2.0
 0 C  dz2             0.3       0.1       1.1       1.4       0.3       0.5
 0 C  dxz             0.4       0.6       0.7       0.0       0.6       0.3
 0 C  dyz             0.0       0.4       0.1       0.0       0.0       0.0
 0 C  dx2y2           0.0       0.0       0.0       0.0       0.3       0.0
 0 C  dxy             0.2       0.5       0.1       1.5       2.4       0.0
 1 C  s               0.7       0.5       8.6       1.8       0.8       1.5
 1 C  pz             21.3       1.3       6.7      11.5       1.0       0.1
 1 C  px              3.1       8.2       1.1       7.1       1.0       4.5
 1 C  py              0.1       3.0       0.5      15.5       3.2       0.2
 1 C  dz2             0.0       0.2       0.3       1.0       0.0       0.1
 1 C  dxz             0.0       0.0       0.0       0.0       2.8       0.0
 1 C  dyz             0.1       0.1       0.0       0.3       0.9       0.3
 1 C  dx2y2           0.0       0.0       0.0       0.0       0.9       0.5
 1 C  dxy             0.0       0.0       0.5       1.2       0.9       0.0
 2 C  s               0.0       0.0      15.3       4.9       0.3      20.2
 2 C  pz              5.1       1.9       0.6       1.8      20.7       1.1
 2 C  px              0.5       2.2       3.1       3.6       0.1       0.1
 2 C  py              5.9       5.1       1.1       4.8       8.8       1.9
 2 C  dz2             0.0       0.0       0.1       0.0       4.3       0.0
 2 C  dxz             0.1       0.3       0.0       0.1       0.4       0.0
 2 C  dyz             0.0       0.0       0.0       0.1       0.1       0.4
 2 C  dx2y2           0.2       0.2       0.6       0.2       0.7       0.0
 2 C  dxy             0.0       0.1       0.0       0.5       0.8       0.1
 3 Br s               0.0       0.2       0.5       0.4       0.0       1.4
 3 Br pz              7.4       1.8       0.5       5.6       9.8       0.0
 3 Br px              0.3       5.8       1.9       0.1       0.2      15.2
 3 Br py              0.0      11.9       7.9       6.7       2.5       0.6
 3 Br dz2             0.4       1.0       0.0       0.2       3.1       1.2
 3 Br dxz             0.1       0.3       0.5       3.4      13.5       0.0
 3 Br dyz             0.0       2.5       0.4       4.4       2.6       0.4
 3 Br dx2y2           0.0       0.1       2.5       8.3       1.8       2.9
 3 Br dxy             0.7       0.1       4.2       5.0       2.5       0.9
 4 H  s               3.4       1.3       1.1       1.9       0.7       5.1
 5 H  s               8.2       1.9      13.6       0.2       1.1       3.6
 6 H  s               0.4       5.8       4.7       0.7       0.2       3.3
 7 H  s               4.2       1.5       2.5       0.4       0.1       0.6
 8 H  s               1.2       2.1       5.8       0.9       0.1       0.3
 9 H  s               3.2       1.1       2.2       0.2       0.9       2.9
10 H  s               1.5       1.2       0.4       0.4       3.6       3.3

                     66        67        68        69        70        71   
                   1.01528   1.05351   1.35772   1.43866   1.65151   1.77605
                   0.00000   0.00000   0.00000   0.00000   0.00000   0.00000
                  --------  --------  --------  --------  --------  --------
 0 C  s               0.0      20.7       0.0       0.1       1.2       0.3
 0 C  pz              0.5       0.0       0.3       0.1       0.0       0.3
 0 C  px              1.0       0.0       0.0       0.2       0.6       0.3
 0 C  py              0.1       0.1       0.0       0.1       0.8       0.6
 0 C  dz2             0.2       0.0      17.8       0.0       8.2       0.4
 0 C  dxz             0.0       0.0       1.3       2.0       0.9       5.5
 0 C  dyz             0.0       0.0       5.0       1.1       1.0       1.1
 0 C  dx2y2           0.6       0.0       0.0       5.5       0.3      11.2
 0 C  dxy             0.4       0.0       1.7      13.6      29.0       0.9
 1 C  s               0.8      44.6       0.0       0.1       0.2       0.3
 1 C  pz              0.1       0.4       0.1       0.1       0.1       0.8
 1 C  px              2.5       1.4       0.0       0.1       1.4       1.3
 1 C  py              1.3       0.4       0.0       0.0       2.4       1.0
 1 C  dz2             0.1       0.1       0.4       3.2       0.2       0.9
 1 C  dxz             0.0       0.0       2.6      17.8       0.3      12.7
 1 C  dyz             0.0       0.0      20.9       3.9       4.2       3.3
 1 C  dx2y2           0.3       0.0      16.4       0.9       7.4      12.3
 1 C  dxy             0.2       0.0       1.6      11.0       0.0       1.4
 2 C  s              19.1       3.2       0.5       0.7       0.8       1.0
 2 C  pz              0.2       0.2       0.2       2.4       0.1       0.8
 2 C  px              1.4       1.0       0.8       0.3       0.7       1.5
 2 C  py              0.2       1.9       0.2       2.5       1.5       0.1
 2 C  dz2             0.5       0.0       0.5       0.0       1.4       0.9
 2 C  dxz             0.2       0.0       0.5      16.7       8.6      33.7
 2 C  dyz             0.0       0.1      13.5       2.7       7.1       0.1
 2 C  dx2y2           0.0       0.0      11.5       1.7       0.3       3.1
 2 C  dxy             1.8       0.3       0.3       6.8      19.8       0.8
 3 Br s              14.3       0.3       0.3       0.1       0.0       0.2
 3 Br pz              0.7       0.0       0.1       0.5       0.1       0.0
 3 Br px             15.9       1.0       0.3       0.1       0.0       0.1
 3 Br py              4.4       0.2       0.5       0.1       0.0       0.1
 3 Br dz2             5.4       0.0       0.0       0.4       0.1       0.2
 3 Br dxz             1.9       0.4       0.3       1.8       0.2       0.0
 3 Br dyz             0.6       0.2       0.2       0.4       0.1       0.0
 3 Br dx2y2           2.0       1.8       0.9       1.0       0.0       0.0
 3 Br dxy            12.5       0.1       0.7       0.2       0.0       0.4
 4 H  s               0.1       1.9       0.0       0.2       0.0       0.0
 5 H  s               0.4       3.4       0.0       0.1       0.5       1.0
 6 H  s               0.1       2.3       0.3       0.1       0.0       0.0
 7 H  s               0.0       6.7       0.0       0.2       0.1       0.7
 8 H  s               0.0       6.0       0.1       0.1       0.0       0.0
 9 H  s               5.9       0.9       0.0       0.4       0.0       0.2
10 H  s               4.5       0.0       0.1       0.9       0.0       0.7

                     72        73        74        75        76        77   
                   1.78779   1.84379   1.91580   1.94415   2.00788   2.09206
                   0.00000   0.00000   0.00000   0.00000   0.00000   0.00000
                  --------  --------  --------  --------  --------  --------
 0 C  s               0.0       0.9       0.1       0.2       0.0       0.0
 0 C  pz              0.3       0.7       1.6       0.0       1.0       1.0
 0 C  px              0.1       0.1       0.2       2.2       0.2       1.9
 0 C  py              0.1       0.9       1.1       0.0       0.1       0.0
 0 C  dz2            14.6       0.4      29.0       0.0       3.9       0.4
 0 C  dxz             2.8       0.7       0.2       8.1       2.9      44.8
 0 C  dyz             3.7      19.5       1.2       1.1       7.7       9.9
 0 C  dx2y2           2.8      11.5       0.0       0.1      18.3       0.7
 0 C  dxy             3.7       1.9       2.4      11.4       0.3       2.0
 1 C  s               0.1       2.6       0.5       0.2       0.2       0.5
 1 C  pz              4.2       2.3       0.1       0.5       0.4       0.1
 1 C  px              2.6       0.1       0.2       0.2       0.5       0.4
 1 C  py              2.1       1.0       0.1       0.4       0.4       0.1
 1 C  dz2             0.7       7.4       7.4       0.0      14.4       0.3
 1 C  dxz             0.3       6.0       3.4       9.8       1.9       0.0
 1 C  dyz             1.5      15.3       4.1       0.9       0.4       1.7
 1 C  dx2y2           0.8       1.3       6.1       1.2       0.5       1.7
 1 C  dxy             3.2       7.2       0.0      10.7       5.5       0.3
 2 C  s               0.0       0.2       0.1       0.0       0.2       0.1
 2 C  pz              1.0       0.1       0.6       1.4       1.4       0.2
 2 C  px              0.9       0.6       0.2       0.0       0.1       0.4
 2 C  py              0.9       0.1       0.7       1.8       0.3       0.9
 2 C  dz2             0.0       0.1      10.3       9.3      13.1       0.7
 2 C  dxz             1.5       1.5       0.5       4.3       0.6       1.2
 2 C  dyz            22.4       0.2      13.4      14.4       6.0       2.0
 2 C  dx2y2          19.6       0.1       3.7      12.4       0.3      15.4
 2 C  dxy             3.9      11.2       3.9       0.0       3.8       0.2
 3 Br s               0.2       0.2       0.5       0.1       0.7       0.0
 3 Br px              0.2       0.1       0.4       0.1       0.4       0.0
 3 Br py              0.0       0.1       0.2       0.0       0.1       0.0
 3 Br dz2             0.1       0.0       0.4       0.1       0.4       0.1
 3 Br dxz             0.1       0.2       0.0       0.0       0.0       0.0
 3 Br dyz             0.1       0.1       0.0       0.0       0.0       0.1
 3 Br dx2y2           0.5       0.0       0.2       0.0       0.7       0.0
 3 Br dxy             0.1       0.5       1.0       0.0       0.3       0.1
 4 H  s               0.1       0.7       0.7       1.1       2.7       2.1
 5 H  s               0.0       0.1       0.0       0.9       0.1       6.8
 6 H  s               0.0       0.5       2.3       0.0       3.3       1.2
 7 H  s               1.3       2.5       0.6       0.1       1.9       0.1
 8 H  s               3.2       0.8       0.0       0.1       2.6       0.0
 9 H  s               0.0       0.1       0.9       5.1       0.0       2.2
10 H  s               0.2       0.0       1.6       1.9       2.3       0.3

                     78        79        80        81        82        83   
                   2.15322   2.24448   2.25266   2.44415   2.55033   3.34238
                   0.00000   0.00000   0.00000   0.00000   0.00000   0.00000
                  --------  --------  --------  --------  --------  --------
 0 C  s               0.0       0.2       0.0       0.4       1.2       0.0
 0 C  pz              0.0       0.1       0.5       0.2       0.3       0.0
 0 C  px              0.1       0.2       0.1       0.1       0.2       0.1
 0 C  py              0.0       0.3       0.3       1.3       2.3       0.0
 0 C  dz2             4.3       1.9       4.0       0.5       2.9       0.0
 0 C  dxz             0.0       0.1      10.3       0.6       1.6       0.0
 0 C  dyz             5.2       2.7       8.7      16.0       1.9       0.0
 0 C  dx2y2           2.5       3.2      12.8       8.6       7.1       0.0
 0 C  dxy             0.3      14.5       1.2       0.0       6.3       0.0
 1 C  s               0.1       0.9       0.1       2.3       0.0       0.0
 1 C  pz              0.1       0.8       1.1       0.6       0.0       0.0
 1 C  px              0.1       1.5       0.0       0.2       2.8       0.0
 1 C  py              0.0       0.9       0.1       0.5       3.0       0.0
 1 C  dz2             3.2       3.3      28.9      11.9       0.0       0.0
 1 C  dxz             4.8      14.0       1.2       1.0      10.7       0.0
 1 C  dyz            13.8      10.6       0.2       0.1       9.1       0.0
 1 C  dx2y2          14.2       0.1       0.2       0.6      24.7       0.0
 1 C  dxy             0.2       0.1      12.2      31.9       0.2       0.0
 2 C  s               0.0       0.3       0.0       0.4       1.5       0.0
 2 C  pz              0.1       0.5       0.1       0.3       0.4       0.0
 2 C  px              0.2       0.4       0.1       0.9       2.3       0.0
 2 C  py              0.2       0.3       0.1       0.0       0.6       0.0
 2 C  dz2            25.9      15.0       1.9       0.1       1.5       0.0
 2 C  dxz             4.0       0.0       0.6      10.2       5.3       0.0
 2 C  dyz             2.7       0.7       0.3       0.2       2.1       0.0
 2 C  dx2y2           5.0       1.0       1.8       7.3       4.5       0.0
 2 C  dxy             7.7      19.3       1.2       0.0       6.2       0.0
 3 Br s               0.3       0.2       0.1       0.0       0.1       0.0
 3 Br px              0.2       0.2       0.0       0.0       0.1       0.0
 3 Br py              0.2       0.0       0.0       0.0       0.0       0.0
 3 Br dz2             0.2       0.0       0.0       0.1       0.0      66.8
 3 Br dxz             0.3       0.0       0.1       0.0       0.0       2.7
 3 Br dyz             0.3       0.1       0.0       0.0       0.1       2.3
 3 Br dx2y2           0.1       0.4       0.0       0.0       0.0       3.7
 3 Br dxy             0.6       0.2       0.0       0.0       0.0      24.1
 4 H  s               0.0       0.1       2.6       0.5       0.1       0.0
 5 H  s               0.3       0.9       0.1       0.2       0.4       0.0
 6 H  s               0.1       0.3       2.5       0.5       0.1       0.0
 7 H  s               0.2       0.1       3.5       0.9       0.0       0.0
 8 H  s               0.1       1.3       2.5       0.9       0.0       0.0
 9 H  s               0.1       1.8       0.2       0.4       0.2       0.0
10 H  s               2.2       1.8       0.3       0.0       0.1       0.0

                     84        85        86        87   
                   3.34964   3.42611   3.42887   3.64982
                   0.00000   0.00000   0.00000   0.00000
                  --------  --------  --------  --------
 1 C  s               0.2       0.0       0.0       0.0
 1 C  px              0.1       0.1       0.0       0.0
 1 C  py              0.0       0.1       0.1       0.0
 2 C  s               0.1       0.0       0.0       1.2
 2 C  pz              0.0       0.0       0.6       0.0
 2 C  px              0.0       0.2       0.0       0.4
 2 C  py              0.0       0.2       0.2       0.2
 2 C  dxz             0.0       0.0       0.2       0.1
 2 C  dyz             0.0       0.2       0.1       0.1
 2 C  dx2y2           0.0       0.3       0.0       0.0
 2 C  dxy             0.0       0.0       0.1       0.5
 3 Br s               0.0       0.0       0.0       1.8
 3 Br px              0.0       0.1       0.0       0.9
 3 Br py              0.0       0.1       0.0       0.4
 3 Br dz2             0.1       1.4      14.2      15.9
 3 Br dxz            27.8       0.6      55.9      11.2
 3 Br dyz            67.7       7.0      16.8       5.0
 3 Br dx2y2           3.4      82.1       2.0       6.8
 3 Br dxy             0.3       7.2       9.4      55.3


                      *****************************
                      * MAYER POPULATION ANALYSIS *
                      *****************************

  NA   - Mulliken gross atomic population
  ZA   - Total nuclear charge
  QA   - Mulliken gross atomic charge
  VA   - Mayer's total valence
  BVA  - Mayer's bonded valence
  FA   - Mayer's free valence

  ATOM       NA         ZA         QA         VA         BVA        FA
  0 C      6.2893     6.0000    -0.2893     3.9991     3.9991    -0.0000
  1 C      6.1640     6.0000    -0.1640     4.0717     4.0717    -0.0000
  2 C      6.2522     6.0000    -0.2522     4.0221     4.0221    -0.0000
  3 Br    35.1261    35.0000    -0.1261     1.0950     1.0950    -0.0000
  4 H      0.8956     1.0000     0.1044     0.9511     0.9511    -0.0000
  5 H      0.8833     1.0000     0.1167     0.9696     0.9696    -0.0000
  6 H      0.8884     1.0000     0.1116     0.9549     0.9549    -0.0000
  7 H      0.8906     1.0000     0.1094     0.9521     0.9521    -0.0000
  8 H      0.8965     1.0000     0.1035     0.9443     0.9443    -0.0000
  9 H      0.8587     1.0000     0.1413     0.9348     0.9348    -0.0000
 10 H      0.8553     1.0000     0.1447     0.9309     0.9309    -0.0000

  Mayer bond orders larger than 0.100000
B(  0-C ,  1-C ) :   1.1148 B(  0-C ,  4-H ) :   0.9574 B(  0-C ,  5-H ) :   0.9603 
B(  0-C ,  6-H ) :   0.9593 B(  1-C ,  2-C ) :   1.1144 B(  1-C ,  7-H ) :   0.9336 
B(  1-C ,  8-H ) :   0.9174 B(  2-C ,  3-Br) :   1.0348 B(  2-C ,  9-H ) :   0.9270 
B(  2-C , 10-H ) :   0.9257 

-------
TIMINGS
-------

Total SCF time: 0 days 0 hours 0 min 4 sec 

Total time                  ....       4.866 sec
Sum of individual times     ....       4.839 sec  ( 99.4%)

SCF preparation             ....       1.024 sec  ( 21.0%)
Fock matrix formation       ....       1.143 sec  ( 23.5%)
  Startup                   ....       0.006 sec  (  0.5% of F)
  Split-RI-J                ....       0.397 sec  ( 34.8% of F)
  XC integration            ....       0.674 sec  ( 59.0% of F)
    XC Preparation          ....       0.000 sec  (  0.0% of XC)
    Basis function eval.    ....       0.279 sec  ( 41.3% of XC)
    Density eval.           ....       0.112 sec  ( 16.6% of XC)
    XC-Functional eval.     ....       0.072 sec  ( 10.7% of XC)
    XC-Potential eval.      ....       0.125 sec  ( 18.5% of XC)
Diagonalization             ....       0.000 sec  (  0.0%)
Density matrix formation    ....       0.022 sec  (  0.5%)
Total Energy calculation    ....       0.001 sec  (  0.0%)
Population analysis         ....       2.591 sec  ( 53.2%)
Orbital Transformation      ....       0.008 sec  (  0.2%)
Orbital Orthonormalization  ....       0.000 sec  (  0.0%)
DIIS solution               ....       0.038 sec  (  0.8%)
  MO trafo                  ....       0.000 sec  (  0.0 % of DIIS)
  Orb grad                  ....       0.000 sec  (  0.0 % of DIIS)
  Energy W gradient         ....       0.000 sec  (  0.0 % of DIIS)
  DIIS error                ....       0.001 sec  (  1.7 % of DIIS)
  DIIS work                 ....       0.033 sec  ( 85.9 % of DIIS)
  Form Q                    ....       0.000 sec  (  0.0 % of DIIS)
  Form QpQm                 ....       0.000 sec  (  0.0 % of DIIS)
  Exp/Cayley                ....       0.000 sec  (  0.0 % of DIIS)
  Orb update                ....       0.000 sec  (  0.0 % of DIIS)
  Wake-sleep                ....       0.001 sec  (  2.0 % of DIIS)
SOSCF solution              ....       0.011 sec  (  0.2%)
  MO trafo                  ....       0.007 sec  ( 59.7 % of SOSCF)
  Orb grad                  ....       0.000 sec  (  1.1 % of SOSCF)
  Rot update                ....       0.001 sec  ( 13.0 % of SOSCF)
  Step                      ....       0.003 sec  ( 26.0 % of SOSCF)
Finished LeanSCF after   6.9 sec

Maximum memory used throughout the entire LEANSCF-calculation: 8.8 MB


-------------------------------------------------------------------------------
                          DFT DISPERSION CORRECTION                            
                                                                               
                                DFTD4 V3.4.0                                   
-------------------------------------------------------------------------------
The PBE functional is recognized
Active option DFTDOPT                   ...         5   

-------------------------   ----------------
Dispersion correction           -0.007557406
-------------------------   ----------------

------------------   -----------------
gCP correction             0.050411447
------------------   -----------------

-------------------------   --------------------
FINAL SINGLE POINT ENERGY     -2691.669699428707
-------------------------   --------------------


------------------------------------------------------------------------------
                              ORCA PROPERTY CALCULATIONS
------------------------------------------------------------------------------

GBWName                                 ... sp.gbw
Number of atoms                         ...     11
Number of basis functions               ...     88
Max core memory                         ...   1024 MB

Electric properties:
Dipole moment                           ... YES
Quadrupole moment                       ...  NO
Static polarizability (Dipole/Dipole)   ...  NO
Static polarizability (Dipole/Quad.)    ...  NO
Static polarizability (Quad./Quad.)     ...  NO
Static polarizability (Velocity)        ...  NO

Atomic electric properties:
Dipole moment                           ...  NO
Quadrupole moment                       ...  NO
Static polarizability                   ...  NO

Choice of electric origin               ... Center of mass
Position of electric origin             ...    -0.000075    -0.000008     0.000008

General magnetic properties:
Magnetizability                         ...  NO

EPR properties:
g-Tensor (aka g-matrix)                 ...  NO
Zero-Field splitting spin-orbit         ...  NO
Zero-field splitting spin-spin          ...  NO
Hyperfine couplings                     ...  NO (   0 nuclei)
Quadrupole couplings                    ...  NO (   0 nuclei)
Contact density                         ...  NO (   0 nuclei)

NMR properties:
Chemical shifts                         ...  NO (   0 nuclei)
Spin-rotation constants                 ...  NO (   0 nuclei)
Spin-spin couplings                     ...  NO (   0 nuclei,    0 pairs)

Choice of magnetic origin               ... GIAO
Position of magnetic origin             ...     0.000000     0.000000     0.000000

Properties with geometric perturbations:
SCF Hessian                             ...  NO
IR spectrum                             ...  NO
VCD spectrum                            ...  NO
X-ray spectroscopy properties:
SCF XES/XAS/RIXS spectra                ...  NO


-------------
DIPOLE MOMENT
-------------

Method             : SCF
Type of density    : Electron Density
Multiplicity       :   1
Irrep              :   0
Energy             : -2691.7125534694887392 Eh
Relativity type    : 
Basis              : AO
                                X                 Y                 Z
Electronic contribution:     19.709309394       1.666395509      -2.108626159
Nuclear contribution   :    -20.347585842      -2.019748654       2.250428741
                        -----------------------------------------
Total Dipole Moment    :     -0.638276448      -0.353353145       0.141802583
                        -----------------------------------------
Magnitude (a.u.)       :      0.743211438
Magnitude (Debye)      :      1.889093347



--------------------
Rotational spectrum 
--------------------
 
Rotational constants in cm-1:             0.362075             0.077212             0.068307 
Rotational constants in MHz :         10854.727435          2314.769216          2047.785749 

Dipole components along the rotational axes: 
x,y,z [a.u.] :     0.646679     0.357607    -0.079293 
x,y,z [Debye]:     1.643726     0.908964    -0.201548 

 

Dipole moment calculation done in   1.1 sec 

Maximum memory used throughout the entire PROP-calculation: 6.0 MB

--------------------------------
SUGGESTED CITATIONS FOR THIS RUN
--------------------------------

Below you find a list of papers that are relevant to this ORCA run
We neither can nor want to force you to cite these papers, but we appreciate if you do
You receive ORCA, which is the product of decades of hard work by many enthusiastic individuals, for free
The only thing we kindly ask in return is that you cite our papers,
We deeply appreciate it, if you show your appreciation for ORCA by not just citing the generic ORCA reference.

Please note that relegating all ORCA citations to the supporting information does *not* help us.
SI sections are not indexed - citations you put there will not count into any citation statistics
But we need these citations in order to attract the funding resources that allow us to do what we are doing

Therefore, if you are a happy ORCA user, please consider citing a few of the papers listed below in the main body of your paper

In addition to the list printed below, the program has created the file sp.bibtex that contains the list in bibtex format
You can import this file easily into all common literature databanks and citation aid programs


List of essential papers. We consider these as the minimum necessary citations

  1. Neese,F.
     Software update: the ORCA program system, version 5.0
     WIRES Comput. Molec. Sci., 2022 12(1)e1606
     doi.org/10.1002/wcms.1606

List of papers to cite with high priority. The work reported in these papers was absolutely
necessary for this run to complete.
Our perspective: the developers of density functionals and basis sets usually get cited in chemistry papers
Good! But without the algorithms to do something with them, the functionals or basis sets would not do anything.
Hence, in our opinion, the algorithm design and method developments papers are equally worthy of getting cited

  1. Neese,F.
     An improvement of the resolution of the identity approximation for the formation of the Coulomb matrix
     J. Comp. Chem., 2003 24(14)1740-1747
     doi.org/10.1002/jcc.10318
  2. Neese,F.
     The SHARK Integral Generation and Digestion System
     J. Comp. Chem., 2022  1-16
     doi.org/10.1002/jcc.26942
  3. Caldeweyher,E.; Bannwarth,C.; Grimme,S.
     Extension of the D3 dispersion coefficient model
     J. Chem. Phys., 2017 147 034112
     doi.org/10.1063/1.4993215
  4. Caldeweyher,E.; Ehlert,S.; Hansen,A.; Neugebauer,H.; Spicher,S.; Bannwarth,C.; Grimme,S.
     A generally applicable atomic-charge dependent London dispersion correction
     J. Chem. Phys., 2019 150 154122
     doi.org/10.1063/1.5090222
  5. Caldeweyher,E.; Mewes,J.; Ehlert,S.; Grimme,S.
     Extension and evaluation of the D4 London-dispersion model for periodic systems
     Phys. Chem. Chem. Phys., 2020 22(16)8499-8512
     doi.org/10.1039/D0CP00502A
  6. Wittmann,L.; Gordiy,I.; Friede,M.; Helmich-Paris,B.; Grimme,S.; Hansen,A.; Bursch,M.
     Extension of the D3 and D4 London Dispersion Corrections to the full Actinides Series
     Phys. Chem. Chem. Phys., 2024 26(32)21379-21394
     doi.org/https://doi.org/10.1039/D4CP01514B 

List of suggested additional citations. These are papers that are important in the 'surrounding' of 
of this run, or papers that preceded the highly important papers. If you like your results we are grateful for a citation.

  1. Neese,F.
     The ORCA program system
     WIRES Comput. Molec. Sci., 2012 2(1)73-78
     doi.org/10.1002/wcms.81
  2. Neese,F.
     Software update: the ORCA program system, version 4.0
     WIRES Comput. Molec. Sci., 2018 8(1)1-6
     doi.org/10.1002/wcms.1327
  3. Neese,F.; Wennmohs,F.; Becker,U.; Riplinger,C.
     The ORCA quantum chemistry program package
     J. Chem. Phys., 2020 152 Art. No. L224108
     doi.org/10.1063/5.0004608

List of optional additional citations

  1. Neese,F.
     Approximate second-order SCF convergence for spin unrestricted wavefunctions
     Chem. Phys. Lett., 2000 325(1-3)93-98
     doi.org/10.1016/s0009-2614(00)00662-x

Timings for individual modules:

Sum of individual times          ...        8.602 sec (=   0.143 min)
Startup calculation              ...        0.257 sec (=   0.004 min)   3.0 %
SCF iterations                   ...        7.226 sec (=   0.120 min)  84.0 %
Property calculations            ...        1.119 sec (=   0.019 min)  13.0 %
                             ****ORCA TERMINATED NORMALLY****
TOTAL RUN TIME: 0 days 0 hours 0 minutes 12 seconds 42 msec
