      -----------------------------------------------------------      
     |                   =====================                   |     
     |                           x T B                           |     
     |                   =====================                   |     
     |                         S. Grimme                         |     
     |          Mulliken Center for Theoretical Chemistry        |     
     |                    University of Bonn                     |     
      -----------------------------------------------------------      

   * xtb version 6.7.1 (edcfbbe) compiled by 'albert@albert-system' on 2024-07-22

   xtb is free software: you can redistribute it and/or modify it under
   the terms of the GNU Lesser General Public License as published by
   the Free Software Foundation, either version 3 of the License, or
   (at your option) any later version.
   
   xtb is distributed in the hope that it will be useful,
   but WITHOUT ANY WARRANTY; without even the implied warranty of
   MERCHANTABILITY or FITNESS FOR A PARTICULAR PURPOSE.  See the
   GNU Lesser General Public License for more details.
   
   Cite this work as:
   * C. Bannwarth, E. Caldeweyher, S. Ehlert, A. Hansen, P. Pracht,
     J. Seibert, S. Spicher, S. Grimme, WIREs Comput. Mol. Sci., 2020, 11,
     e01493. DOI: 10.1002/wcms.1493
   
   for GFN2-xTB:
   * C. Bannwarth, S. Ehlert and S. Grimme., J. Chem. Theory Comput., 2019,
     15, 1652-1671. DOI: 10.1021/acs.jctc.8b01176
   for GFN1-xTB:
   * S. Grimme, C. Bannwarth, P. Shushkov, J. Chem. Theory Comput., 2017,
     13, 1989-2009. DOI: 10.1021/acs.jctc.7b00118
   for GFN0-xTB:
   * P. Pracht, E. Caldeweyher, S. Ehlert, S. Grimme, ChemRxiv, 2019, preprint.
     DOI: 10.26434/chemrxiv.8326202.v1
   for GFN-FF:
   * S. Spicher and S. Grimme, Angew. Chem. Int. Ed., 2020, 59, 15665-15673.
     DOI: 10.1002/anie.202004239
   
   for ALPB and GBSA implicit solvation:
   * S. Ehlert, M. Stahn, S. Spicher, S. Grimme, J. Chem. Theory Comput.,
     2021, 17, 4250-4261. DOI: 10.1021/acs.jctc.1c00471
   
   for ddCOSMO and CPCM-X implicit solvation:
   * M. Stahn, S. Ehlert, S. Grimme, J. Phys. Chem. A,
     2023, XX, XXXX-XXXX. DOI: 10.1021/acs.jpca.3c04382
   
   for DFT-D4:
   * E. Caldeweyher, C. Bannwarth and S. Grimme, J. Chem. Phys., 2017,
     147, 034112. DOI: 10.1063/1.4993215
   * E. Caldeweyher, S. Ehlert, A. Hansen, H. Neugebauer, S. Spicher,
     C. Bannwarth and S. Grimme, J. Chem. Phys., 2019, 150, 154122.
     DOI: 10.1063/1.5090222
   * E. Caldeweyher, J.-M. Mewes, S. Ehlert and S. Grimme, Phys. Chem. Chem. Phys.
     2020, 22, 8499-8512. DOI: 10.1039/D0CP00502A
   
   for sTDA-xTB:
   * S. Grimme and C. Bannwarth, J. Chem. Phys., 2016, 145, 054103.
     DOI: 10.1063/1.4959605
   
   in the mass-spec context:
   * V. Asgeirsson, C. Bauer and S. Grimme, Chem. Sci., 2017, 8, 4879.
     DOI: 10.1039/c7sc00601b
   * J. Koopman and S. Grimme, ACS Omega 2019, 4, 12, 15120-15133.
     DOI: 10.1021/acsomega.9b02011
   
   for metadynamics refer to:
   * S. Grimme, J. Chem. Theory Comput., 2019, 155, 2847-2862
     DOI: 10.1021/acs.jctc.9b00143
   
   for SPH calculations refer to:
   * S. Spicher and S. Grimme, J. Chem. Theory Comput., 2021, 17, 1701-1714
     DOI: 10.1021/acs.jctc.0c01306
   
   for ONIOM refer to:
   * C. Plett, A. Katbashev, S. Ehlert, S. Grimme, M. Bursch,
     Phys. Chem. Chem. Phys., 2023, 25, 17860-17868. DOI: 10.1039/D3CP02178E
   
   for DIPRO refer to:
   * J. Kohn, N. Gildemeister, S. Grimme, D. Fazzi, A. Hansen,
     J. Chem. Phys., 2023, just accepted.
   
   for PTB refer to:
   * S. Grimme, M. Mueller, A. Hansen, J. Chem. Phys., 2023, 158, 124111.
     DOI: 10.1063/5.0137838
   
   with help from (in alphabetical order)
   P. Atkinson, C. Bannwarth, F. Bohle, G. Brandenburg, E. Caldeweyher
   M. Checinski, S. Dohm, S. Ehlert, S. Ehrlich, I. Gerasimov, C. Hölzer
   A. Katbashev, J. Kohn, J. Koopman, C. Lavigne, S. Lehtola, F. März, M. Müller,
   F. Musil, H. Neugebauer, J. Pisarek, C. Plett, P. Pracht, F. Pultar,
   J. Seibert, P. Shushkov, S. Spicher, M. Stahn, M. Steiner, T. Strunk,
   J. Stückrath, T. Rose, and J. Unsleber
   
 * started run on 2025/04/16 at 10:29:14.252     
   ID    Z sym.   atoms
    1    6 C      1, 3, 6-15
    2    7 N      2
    3    8 O      4, 5
    4    1 H      16-26

           -------------------------------------------------
          |                Calculation Setup                |
           -------------------------------------------------

          program call               : /software/projects/pawsey0265/mwang1/xtb/bin/xtb xtb_rrho.coord --gfn2 --bhess vtight --chrg 0 --enso --norestart -I rrho-xcontrol-inp --parallel 1
          hostname                   : nid002818
          coordinate file            : xtb_rrho.coord
          omp threads                :                     1


           -------------------------------------------------
          |                 G F N 2 - x T B                 |
           -------------------------------------------------

        Reference                      10.1021/acs.jctc.8b01176
      * Hamiltonian:
        H0-scaling (s, p, d)           1.850000    2.230000    2.230000
        zeta-weighting                 0.500000
      * Dispersion:
        s8                             2.700000
        a1                             0.520000
        a2                             5.000000
        s9                             5.000000
      * Repulsion:
        kExp                           1.500000    1.000000
        rExp                           1.000000
      * Coulomb:
        alpha                          2.000000
        third order                    shell-resolved
        anisotropic                    true
        a3                             3.000000
        a5                             4.000000
        cn-shift                       1.200000
        cn-exp                         4.000000
        max-rad                        5.000000


          ...................................................
          :                      SETUP                      :
          :.................................................:
          :  # basis functions                  71          :
          :  # atomic orbitals                  71          :
          :  # shells                           41          :
          :  # electrons                        76          :
          :  max. iterations                   250          :
          :  Hamiltonian                  GFN2-xTB          :
          :  restarted?                      false          :
          :  GBSA solvation                  false          :
          :  PC potential                    false          :
          :  electronic temp.          300.0000000     K    :
          :  accuracy                    1.0000000          :
          :  -> integral cutoff          0.2500000E+02      :
          :  -> integral neglect         0.1000000E-07      :
          :  -> SCF convergence          0.1000000E-05 Eh   :
          :  -> wf. convergence          0.1000000E-03 e    :
          :  Broyden damping             0.4000000          :
          :  net charge                          0          :
          :  unpaired electrons                  0          :
          ...................................................

 iter      E             dE          RMSdq      gap      omega  full diag
   1    -42.9279173 -0.429279E+02  0.467E+00    3.00       0.0  T
   2    -42.9956250 -0.677076E-01  0.265E+00    3.08       1.0  T
   3    -42.9917136  0.391135E-02  0.120E+00    3.11       1.0  T
   4    -42.9958656 -0.415193E-02  0.510E-01    3.11       1.0  T
   5    -43.0011190 -0.525346E-02  0.109E-01    3.10       1.0  T
   6    -43.0012445 -0.125474E-03  0.592E-02    3.11       1.0  T
   7    -43.0012823 -0.378340E-04  0.249E-02    3.10       1.0  T
   8    -43.0012836 -0.130452E-05  0.102E-02    3.10       1.9  T
   9    -43.0012849 -0.124867E-05  0.318E-03    3.10       6.2  T
  10    -43.0012849 -0.175777E-07  0.139E-03    3.10      14.1  T
  11    -43.0012849 -0.197121E-07  0.614E-04    3.10      32.0  T
  12    -43.0012849 -0.160768E-08  0.213E-04    3.10      92.2  T

   *** convergence criteria satisfied after 12 iterations ***

         #    Occupation            Energy/Eh            Energy/eV
      -------------------------------------------------------------
         1        2.0000           -0.7338694             -19.9696
       ...           ...                  ...                  ...
        32        2.0000           -0.4409827             -11.9997
        33        2.0000           -0.4326717             -11.7736
        34        2.0000           -0.4256053             -11.5813
        35        2.0000           -0.4209743             -11.4553
        36        2.0000           -0.4160142             -11.3203
        37        2.0000           -0.4127505             -11.2315
        38        2.0000           -0.3895931             -10.6014 (HOMO)
        39                         -0.2755041              -7.4968 (LUMO)
        40                         -0.2466779              -6.7124
        41                         -0.2075250              -5.6470
        42                         -0.1992370              -5.4215
        43                         -0.1630582              -4.4370
       ...                                ...                  ...
        71                          0.6639964              18.0683
      -------------------------------------------------------------
                  HL-Gap            0.1140890 Eh            3.1045 eV
             Fermi-level           -0.3325486 Eh           -9.0491 eV

 SCC (total)                   0 d,  0 h,  0 min,  0.063 sec
 SCC setup                      ...        0 min,  0.000 sec (  0.535%)
 Dispersion                     ...        0 min,  0.000 sec (  0.497%)
 classical contributions        ...        0 min,  0.000 sec (  0.106%)
 integral evaluation            ...        0 min,  0.006 sec (  9.191%)
 iterations                     ...        0 min,  0.047 sec ( 75.300%)
 molecular gradient             ...        0 min,  0.009 sec ( 14.104%)
 printout                       ...        0 min,  0.000 sec (  0.227%)

         :::::::::::::::::::::::::::::::::::::::::::::::::::::
         ::                     SUMMARY                     ::
         :::::::::::::::::::::::::::::::::::::::::::::::::::::
         :: total energy             -42.375542789521 Eh    ::
         :: gradient norm              0.033926487155 Eh/a0 ::
         :: HOMO-LUMO gap              3.104519892353 eV    ::
         ::.................................................::
         :: SCC energy               -43.000994334930 Eh    ::
         :: -> isotropic ES            0.056976981971 Eh    ::
         :: -> anisotropic ES          0.003302135084 Eh    ::
         :: -> anisotropic XC          0.017331829174 Eh    ::
         :: -> dispersion             -0.026220841759 Eh    ::
         :: repulsion energy           0.625451545409 Eh    ::
         :: add. restraining           0.000000000000 Eh    ::
         :: total charge               0.000000000000 e     ::
         :::::::::::::::::::::::::::::::::::::::::::::::::::::

metadynamics with 1 initial structures loaded
           -------------------------------------------------
          |           Optimal kpush determination           |
           -------------------------------------------------
      ----------------------------------------------------------- 
     |                   =====================                   |
     |                        A N C O P T                        |
     |                   =====================                   |
     |               Approximate Normal Coordinate               |
     |                Rational Function Optimizer                |
      ----------------------------------------------------------- 
target rmsd / Å         0.100000
unbiased initial rmsd   0.107033
 
iter. min.        max.        rmsd       kpush
      ----------------------------------------------------------- 
     |                   =====================                   |
     |                        A N C O P T                        |
     |                   =====================                   |
     |               Approximate Normal Coordinate               |
     |                Rational Function Optimizer                |
      ----------------------------------------------------------- 
 1    0.000000    1.181818    0.010701   -0.590909
      ----------------------------------------------------------- 
     |                   =====================                   |
     |                        A N C O P T                        |
     |                   =====================                   |
     |               Approximate Normal Coordinate               |
     |                Rational Function Optimizer                |
      ----------------------------------------------------------- 
 2    0.000000    0.590909    0.013169   -0.295455
      ----------------------------------------------------------- 
     |                   =====================                   |
     |                        A N C O P T                        |
     |                   =====================                   |
     |               Approximate Normal Coordinate               |
     |                Rational Function Optimizer                |
      ----------------------------------------------------------- 
 3    0.000000    0.295455    0.016324   -0.147727
      ----------------------------------------------------------- 
     |                   =====================                   |
     |                        A N C O P T                        |
     |                   =====================                   |
     |               Approximate Normal Coordinate               |
     |                Rational Function Optimizer                |
      ----------------------------------------------------------- 
 4    0.000000    0.147727    0.020553   -0.073864
      ----------------------------------------------------------- 
     |                   =====================                   |
     |                        A N C O P T                        |
     |                   =====================                   |
     |               Approximate Normal Coordinate               |
     |                Rational Function Optimizer                |
      ----------------------------------------------------------- 
 5    0.000000    0.073864    0.026336   -0.036932
      ----------------------------------------------------------- 
     |                   =====================                   |
     |                        A N C O P T                        |
     |                   =====================                   |
     |               Approximate Normal Coordinate               |
     |                Rational Function Optimizer                |
      ----------------------------------------------------------- 
 6    0.000000    0.036932    0.033853   -0.018466
      ----------------------------------------------------------- 
     |                   =====================                   |
     |                        A N C O P T                        |
     |                   =====================                   |
     |               Approximate Normal Coordinate               |
     |                Rational Function Optimizer                |
      ----------------------------------------------------------- 
 7    0.000000    0.018466    0.043396   -0.009233
      ----------------------------------------------------------- 
     |                   =====================                   |
     |                        A N C O P T                        |
     |                   =====================                   |
     |               Approximate Normal Coordinate               |
     |                Rational Function Optimizer                |
      ----------------------------------------------------------- 
 8    0.000000    0.009233    0.055071   -0.004616
      ----------------------------------------------------------- 
     |                   =====================                   |
     |                        A N C O P T                        |
     |                   =====================                   |
     |               Approximate Normal Coordinate               |
     |                Rational Function Optimizer                |
      ----------------------------------------------------------- 
 9    0.000000    0.004616    0.068512   -0.002308
      ----------------------------------------------------------- 
     |                   =====================                   |
     |                        A N C O P T                        |
     |                   =====================                   |
     |               Approximate Normal Coordinate               |
     |                Rational Function Optimizer                |
      ----------------------------------------------------------- 
10    0.000000    0.002308    0.079668   -0.001154
final kpush: -0.001154
           -------------------------------------------------
          |            Biased Numerical Hessian             |
           -------------------------------------------------
kpush                :  -0.00115
alpha                :   1.00000
step length          :   0.00500
SCC accuracy         :   0.30000
Hessian scale factor :   1.00000
frozen atoms in %    :   0.00000    0
RMS gradient         :   0.00009
estimated CPU  time      0.05 min
estimated wall time      0.05 min

writing file <hessian>.

 projected vibrational frequencies (cm⁻¹)
eigval :       -0.00    -0.00     0.00     0.00     0.00     0.00
eigval :       33.94    54.37    67.26   109.96   132.64   144.05
eigval :      162.55   234.09   265.47   283.76   366.07   388.99
eigval :      413.44   434.00   450.71   486.17   518.02   528.74
eigval :      576.01   608.84   644.85   673.38   719.04   744.58
eigval :      771.68   775.29   816.93   857.93   878.02   891.69
eigval :      917.00   920.13   923.08   930.94  1049.76  1082.82
eigval :     1096.98  1107.31  1113.30  1123.01  1165.81  1174.86
eigval :     1177.57  1186.45  1214.75  1230.91  1252.11  1334.85
eigval :     1362.71  1394.19  1395.32  1409.88  1418.33  1447.35
eigval :     1463.08  1482.77  1505.50  1563.03  1597.99  1608.82
eigval :     1786.86  2969.15  2984.96  3038.17  3075.29  3081.62
eigval :     3083.55  3089.54  3093.97  3098.06  3105.51  3448.49
           -------------------------------------------------
          |                Property Printout                |
           -------------------------------------------------

    * Orbital Energies and Occupations

         #    Occupation            Energy/Eh            Energy/eV
      -------------------------------------------------------------
         1        2.0000           -0.7399304             -20.1345
       ...           ...                  ...                  ...
        26        2.0000           -0.4920220             -13.3886
        27        2.0000           -0.4798267             -13.0567
        28        2.0000           -0.4771337             -12.9835
        29        2.0000           -0.4679693             -12.7341
        30        2.0000           -0.4629221             -12.5968
        31        2.0000           -0.4570751             -12.4376
        32        2.0000           -0.4402138             -11.9788
        33        2.0000           -0.4332589             -11.7896
        34        2.0000           -0.4266934             -11.6109
        35        2.0000           -0.4189535             -11.4003
        36        2.0000           -0.4176363             -11.3645
        37        2.0000           -0.4089666             -11.1285
        38        2.0000           -0.3905191             -10.6266 (HOMO)
        39                         -0.2753535              -7.4928 (LUMO)
        40                         -0.2454801              -6.6799
        41                         -0.2070798              -5.6349
        42                         -0.1901533              -5.1743
        43                         -0.1603501              -4.3633
        44                         -0.0745355              -2.0282
        45                         -0.0061470              -0.1673
        46                          0.0328119               0.8929
        47                          0.0991627               2.6984
        48                          0.1128362               3.0704
        49                          0.1171190               3.1870
       ...                                ...                  ...
        71                          0.6822534              18.5651
      -------------------------------------------------------------
                  HL-Gap            0.1151656 Eh            3.1338 eV
             Fermi-level           -0.3329363 Eh           -9.0597 eV

     #   Z          covCN         q      C6AA      α(0)
     1   6 C        3.690    -0.042    21.511     6.637
     2   7 N        2.681    -0.204    25.436     7.490
     3   6 C        2.646     0.407    20.136     7.341
     4   8 O        0.858    -0.431    22.317     6.334
     5   8 O        1.708    -0.279    18.638     5.829
     6   6 C        2.861     0.127    25.205     8.229
     7   6 C        2.914    -0.053    29.305     8.877
     8   6 C        2.916    -0.031    28.785     8.798
     9   6 C        2.918    -0.041    29.026     8.835
    10   6 C        2.986     0.012    27.731     8.638
    11   6 C        2.985    -0.007    28.188     8.709
    12   6 C        2.916    -0.029    28.722     8.788
    13   6 C        2.917    -0.027    28.688     8.783
    14   6 C        2.915    -0.027    28.675     8.781
    15   6 C        2.919    -0.033    28.833     8.805
    16   1 H        0.924     0.052     2.294     2.369
    17   1 H        0.924     0.052     2.301     2.372
    18   1 H        0.925     0.089     1.889     2.149
    19   1 H        0.860     0.170     1.275     1.769
    20   1 H        0.926     0.053     2.278     2.360
    21   1 H        0.926     0.044     2.400     2.423
    22   1 H        0.926     0.042     2.423     2.434
    23   1 H        0.926     0.044     2.397     2.421
    24   1 H        0.926     0.039     2.468     2.457
    25   1 H        0.926     0.037     2.488     2.467
    26   1 H        0.926     0.038     2.480     2.463

 Mol. C6AA /au·bohr⁶  :       8586.631214
 Mol. C8AA /au·bohr⁸  :     207773.677456
 Mol. α(0) /au        :        146.557848


Wiberg/Mayer (AO) data.
largest (>0.10) Wiberg bond orders for each atom

 ---------------------------------------------------------------------------
     #   Z sym  total        # sym  WBO       # sym  WBO       # sym  WBO
 ---------------------------------------------------------------------------
     1   6 C    3.960 --     2 N    1.005    17 H    0.978    16 H    0.978
                            18 H    0.975
     2   7 N    3.395 --     3 C    1.202     1 C    1.005    19 H    0.935
                             4 O    0.172
     3   6 C    3.939 --     4 O    1.658     2 N    1.202     5 O    1.021
     4   8 O    2.008 --     3 C    1.658     2 N    0.172     5 O    0.118
     5   8 O    2.288 --     3 C    1.021     6 C    0.981     4 O    0.118
     6   6 C    3.922 --     7 C    1.499    11 C    1.230     5 O    0.981
                             9 C    0.108
     7   6 C    3.988 --     6 C    1.499     8 C    1.324    20 H    0.967
     8   6 C    3.990 --     9 C    1.555     7 C    1.324    21 H    0.970
     9   6 C    3.989 --     8 C    1.555    10 C    1.276    22 H    0.968
                             6 C    0.108
    10   6 C    3.990 --    15 C    1.281     9 C    1.276    11 C    1.253
    11   6 C    3.989 --    12 C    1.288    10 C    1.253     6 C    1.230
    12   6 C    3.992 --    13 C    1.551    11 C    1.288    23 H    0.966
                            15 C    0.119
    13   6 C    3.992 --    12 C    1.551    14 C    1.324    24 H    0.971
    14   6 C    3.992 --    15 C    1.555    13 C    1.324    25 H    0.971
    15   6 C    3.991 --    14 C    1.555    10 C    1.281    26 H    0.968
                            12 C    0.119
    16   1 H    0.997 --     1 C    0.978
    17   1 H    0.997 --     1 C    0.978
    18   1 H    0.992 --     1 C    0.975
    19   1 H    0.971 --     2 N    0.935
    20   1 H    0.997 --     7 C    0.967
    21   1 H    0.997 --     8 C    0.970
    22   1 H    0.998 --     9 C    0.968
    23   1 H    0.998 --    12 C    0.966
    24   1 H    0.998 --    13 C    0.971
    25   1 H    0.998 --    14 C    0.971
    26   1 H    0.998 --    15 C    0.968
 ---------------------------------------------------------------------------

Topologies differ in total number of bonds
Writing topology from bond orders to xtbtopo.mol

molecular dipole:
                 x           y           z       tot (Debye)
 q only:        1.159       0.297       1.583
   full:        1.379       0.451       1.747       5.774
molecular quadrupole (traceless):
                xx          xy          yy          xz          yz          zz
 q only:       -4.893      -2.125       5.502     -10.675      -2.255      -0.609
  q+dip:       -6.321      -5.273      10.178      -8.942      -1.467      -3.857
   full:       -7.088      -4.855       7.986     -11.434      -2.038      -0.898

           -------------------------------------------------
          |                Geometry Summary                 |
           -------------------------------------------------

      molecular mass/u    :      201.2216921
   center of mass at/Å    :        0.0032002      -0.0078034      -0.0008743
  moments of inertia/u·Å² :        0.5342932E+03   0.1019895E+04   0.1306001E+04
rotational constants/cm⁻¹ :        0.3155128E-01   0.1652880E-01   0.1290782E-01

 * 27 selected distances

     #   Z          #   Z                                           value/Å
     1   6 C        2   7 N                                       1.4415146 (max)
     2   7 N        3   6 C                                       1.3542759
     3   6 C        4   8 O                                       1.2009788
     3   6 C        5   8 O                                       1.3600021
     5   8 O        6   6 C                                       1.3847702
     6   6 C        7   6 C                                       1.3714948
     7   6 C        8   6 C                                       1.4020752
     8   6 C        9   6 C                                       1.3661952
     9   6 C       10   6 C                                       1.4110699
     6   6 C       11   6 C                                       1.4216515
    10   6 C       11   6 C                                       1.4202605
    11   6 C       12   6 C                                       1.4105071
    12   6 C       13   6 C                                       1.3670825
    13   6 C       14   6 C                                       1.4030730
    10   6 C       15   6 C                                       1.4106825
    14   6 C       15   6 C                                       1.3667510
     1   6 C       16   1 H                                       1.0916608
     1   6 C       17   1 H                                       1.0916837
     1   6 C       18   1 H                                       1.0884327
     2   7 N       19   1 H                                       1.0081781 (min)
     7   6 C       20   1 H                                       1.0789952
     8   6 C       21   1 H                                       1.0793857
     9   6 C       22   1 H                                       1.0800353
    12   6 C       23   1 H                                       1.0801235
    13   6 C       24   1 H                                       1.0796662
    14   6 C       25   1 H                                       1.0799797
    15   6 C       26   1 H                                       1.0804511

 * 5 distinct bonds (by element types)

   Z      Z             #   av. dist./Å        max./Å        min./Å
   1 H    6 C          10     1.0830414     1.0916837     1.0789952
   6 C    6 C          11     1.3955312     1.4216515     1.3661952
   1 H    7 N           1     1.0081781     1.0081781     1.0081781
   6 C    7 N           2     1.3978952     1.4415146     1.3542759
   6 C    8 O           3     1.3152504     1.3847702     1.2009788

           -------------------------------------------------
          |               Frequency Printout                |
           -------------------------------------------------
 projected vibrational frequencies (cm⁻¹)
eigval :       -0.00    -0.00     0.00     0.00     0.00     0.00
eigval :       33.94    54.37    67.26   109.96   132.64   144.05
eigval :      162.55   234.09   265.47   283.76   366.07   388.99
eigval :      413.44   434.00   450.71   486.17   518.02   528.74
eigval :      576.01   608.84   644.85   673.38   719.04   744.58
eigval :      771.68   775.29   816.93   857.93   878.02   891.69
eigval :      917.00   920.13   923.08   930.94  1049.76  1082.82
eigval :     1096.98  1107.31  1113.30  1123.01  1165.81  1174.86
eigval :     1177.57  1186.45  1214.75  1230.91  1252.11  1334.85
eigval :     1362.71  1394.19  1395.32  1409.88  1418.33  1447.35
eigval :     1463.08  1482.77  1505.50  1563.03  1597.99  1608.82
eigval :     1786.86  2969.15  2984.96  3038.17  3075.29  3081.62
eigval :     3083.55  3089.54  3093.97  3098.06  3105.51  3448.49
 reduced masses (amu)
   1: 11.79   2: 12.13   3: 12.19   4: 11.30   5: 12.24   6: 11.48   7: 10.76   8: 13.00
   9: 10.63  10:  7.44  11:  8.90  12:  7.52  13:  9.99  14: 10.34  15: 12.69  16: 10.98
  17: 13.45  18:  9.31  19:  3.59  20:  9.33  21: 10.68  22: 11.48  23: 10.65  24: 11.46
  25: 10.94  26: 12.21  27: 11.69  28: 12.14  29: 10.49  30:  9.88  31:  6.76  32: 10.80
  33:  3.89  34: 10.82  35:  3.64  36:  4.09  37:  5.54  38:  9.48  39:  3.57  40:  3.26
  41: 10.81  42:  6.88  43:  8.32  44:  6.17  45:  3.49  46:  9.86  47:  4.39  48:  5.58
  49:  2.31  50:  2.77  51:  5.75  52:  9.33  53:  4.49  54:  9.19  55:  8.92  56: 10.03
  57:  2.62  58:  9.09  59:  9.33  60:  9.84  61:  1.55  62:  1.97  63: 10.75  64: 11.72
  65: 11.47  66: 11.40  67: 13.32  68:  1.96  69:  1.43  70:  1.73  71:  1.77  72:  1.78
  73:  1.78  74:  1.86  75:  1.85  76:  1.91  77:  1.88  78:  1.83
 IR intensities (km·mol⁻¹)
   1:  0.73   2:  0.62   3:  0.16   4:  0.43   5:  0.85   6:  0.77   7:  0.30   8:  8.88
   9:  1.97  10:  1.99  11:  1.32  12:  1.64  13:  0.80  14:  0.42  15:  1.43  16:  5.39
  17:  9.38  18:  7.03  19: 87.86  20:  3.80  21:  9.67  22:  1.84  23:  0.67  24:  2.17
  25:  2.33  26:  2.19  27: 10.50  28: 27.09  29:  0.04  30:  9.02  31:  4.80  32:  0.10
  33: 39.00  34:  3.97  35:  0.27  36:  1.13  37:  9.52  38: 23.78  39:  0.26  40:  0.02
  41: 82.77  42: 14.23  43:287.15  44: 25.10  45:  1.96  46: 65.81  47: 48.16  48: 88.74
  49: 10.44  50:  7.39  51: 42.86  52: 49.08  53: 12.22  54:  5.02  55: 43.15  56:  3.93
  57: 10.80  58:322.29  59: 16.76  60: 20.48  61: 11.92  62: 16.29  63: 10.77  64: 17.39
  65:  9.54  66:  0.64  67:733.62  68: 29.47  69: 39.51  70:  2.25  71:  3.14  72:  0.54
  73: 11.39  74: 44.65  75: 49.32  76: 37.94  77: 18.66  78:  3.42
 Raman intensities (Ä⁴*amu⁻¹)
   1:  0.00   2:  0.00   3:  0.00   4:  0.00   5:  0.00   6:  0.00   7:  0.00   8:  0.00
   9:  0.00  10:  0.00  11:  0.00  12:  0.00  13:  0.00  14:  0.00  15:  0.00  16:  0.00
  17:  0.00  18:  0.00  19:  0.00  20:  0.00  21:  0.00  22:  0.00  23:  0.00  24:  0.00
  25:  0.00  26:  0.00  27:  0.00  28:  0.00  29:  0.00  30:  0.00  31:  0.00  32:  0.00
  33:  0.00  34:  0.00  35:  0.00  36:  0.00  37:  0.00  38:  0.00  39:  0.00  40:  0.00
  41:  0.00  42:  0.00  43:  0.00  44:  0.00  45:  0.00  46:  0.00  47:  0.00  48:  0.00
  49:  0.00  50:  0.00  51:  0.00  52:  0.00  53:  0.00  54:  0.00  55:  0.00  56:  0.00
  57:  0.00  58:  0.00  59:  0.00  60:  0.00  61:  0.00  62:  0.00  63:  0.00  64:  0.00
  65:  0.00  66:  0.00  67:  0.00  68:  0.00  69:  0.00  70:  0.00  71:  0.00  72:  0.00
  73:  0.00  74:  0.00  75:  0.00  76:  0.00  77:  0.00  78:  0.00
 output can be read by thermo (or use thermo option).
 writing <g98.out> molden fake output.
 recommended (thermochemical) frequency scaling factor: 1.0
           -------------------------------------------------
          |             Thermodynamic Functions             |
           -------------------------------------------------

Molecule has no symmetry elements
It seems to be the C1 point group
c1  symmetry found (for desy threshold:  0.10E+00) used in thermo

          ...................................................
          :                      SETUP                      :
          :.................................................:
          :  # frequencies                          72      :
          :  # imaginary freq.                       0      :
          :  linear?                             false      :
          :  only rotor calc.                    false      :
          :  symmetry                               c1      :
          :  rotational number                       1      :
          :  scaling factor                  1.0000000      :
          :  rotor cutoff                    0.0000000 cm⁻¹ :
          :  imag. cutoff                 -100.0000000 cm⁻¹ :
          :.................................................:

    mode    ω/cm⁻¹     T·S(HO)/kcal·mol⁻¹    T·S(FR)/kcal·mol⁻¹   T·S(vib)
   ------------------------------------------------------------------------
       1     33.94    -1.66506 (100.00%)    -1.17116 (  0.00%)    -1.66506
       2     54.37    -1.38693 (100.00%)    -1.03164 (  0.00%)    -1.38693
       3     67.26    -1.26176 (100.00%)    -0.96862 (  0.00%)    -1.26176
       4    109.96    -0.97485 (100.00%)    -0.82304 (  0.00%)    -0.97485
       5    132.64    -0.86684 (100.00%)    -0.76749 (  0.00%)    -0.86684
       6    144.05    -0.81971 (100.00%)    -0.74304 (  0.00%)    -0.81971
       7    162.55    -0.75130 (100.00%)    -0.70725 (  0.00%)    -0.75130
       8    234.09    -0.55079 (100.00%)    -0.59922 (  0.00%)    -0.55079
       9    265.47    -0.48465 (100.00%)    -0.56196 (  0.00%)    -0.48465
      10    283.76    -0.45048 (100.00%)    -0.54223 (  0.00%)    -0.45048
   ------------------------------------------------------------------------

   temp. (K)  partition function   enthalpy   heat capacity  entropy
                                   cal/mol     cal/K/mol   cal/K/mol   J/K/mol
 298.15  VIB  0.241E+05             6582.972     45.012     42.134
         ROT  0.204E+07              888.752      2.981     31.851
         INT  0.492E+11             7471.724     47.993     73.985
         TR   0.276E+28             1481.254      4.968     41.783
         TOT                        8952.9781    52.9612   115.7683   484.3745

       T/K    H(0)-H(T)+PV         H(T)/Eh          T*S/Eh         G(T)/Eh
   ------------------------------------------------------------------------
    298.15    0.142675E-01    0.213694E+00    0.550052E-01    0.158689E+00
   ------------------------------------------------------------------------

         :::::::::::::::::::::::::::::::::::::::::::::::::::::
         ::                  THERMODYNAMIC                  ::
         :::::::::::::::::::::::::::::::::::::::::::::::::::::
         :: total free energy         -42.219937968631 Eh   ::
         ::.................................................::
         :: total energy              -42.378627128203 Eh   ::
         :: zero point energy           0.199426929005 Eh   ::
         :: G(RRHO) w/o ZPVE           -0.040737769434 Eh   ::
         :: G(RRHO) contrib.            0.158689159571 Eh   ::
         :::::::::::::::::::::::::::::::::::::::::::::::::::::

optimized geometry written to: xtbopt.coord


           -------------------------------------------------
          | TOTAL ENERGY              -42.378627128203 Eh   |
          | TOTAL ENTHALPY            -42.164932720404 Eh   |
          | TOTAL FREE ENERGY         -42.219937968631 Eh   |
          | GRADIENT NORM               0.000091100407 Eh/α |
          | HOMO-LUMO GAP               3.133815614144 eV   |
           -------------------------------------------------

------------------------------------------------------------------------
 * finished run on 2025/04/16 at 10:29:21.060     
------------------------------------------------------------------------
 total:
 * wall-time:     0 d,  0 h,  0 min,  6.808 sec
 *  cpu-time:     0 d,  0 h,  0 min,  6.738 sec
 * ratio c/w:     0.990 speedup
 SCF:
 * wall-time:     0 d,  0 h,  0 min,  0.063 sec
 *  cpu-time:     0 d,  0 h,  0 min,  0.033 sec
 * ratio c/w:     0.522 speedup
 analytical hessian:
 * wall-time:     0 d,  0 h,  0 min,  2.682 sec
 *  cpu-time:     0 d,  0 h,  0 min,  2.680 sec
 * ratio c/w:     0.999 speedup

