18
 energy: -26.541992046437 gnorm: 0.022378802270 xtb: 6.7.1 (edcfbbe)
C           -2.81961791157377        0.77494235613305       -0.67458846155992
O           -2.08426041474857        0.53226723040844        0.52691517586439
C           -0.82523387482652        0.00961891991765        0.29324002569442
C           -0.64765824820889       -1.37071680370678        0.25610063308603
C            0.63695188641538       -1.86749155103259        0.05597199025479
C            1.71961511196176       -1.01404151431285       -0.10838329823368
C            1.53460510320682        0.37490664032488       -0.07068272186717
C            0.24489771851279        0.88062542400150        0.13106481938273
N            2.62526684829348        1.23922792490340       -0.16275694531461
H           -2.96723911689605       -0.15476524226701       -1.24101862840185
H           -2.30139077675722        1.50357141006364       -1.31338952651166
H           -3.78875936788024        1.17772741584157       -0.37309719386722
H           -1.49914654234361       -2.02659810096533        0.39691965086269
H            0.79963354353407       -2.94039529849634        0.03140244140101
H            2.71655995517369       -1.41943700335645       -0.25363726560180
H            0.06721193564218        1.95074754126512        0.18555498176282
H            2.40257345662559        2.16783806829604       -0.48557965194578
H            3.42353171775613        0.85881357218272       -0.64681612949788
18
 energy: -26.542786516260 gnorm: 0.009955921757 xtb: 6.7.1 (edcfbbe)
C           -2.81802102087857        0.77321411873028       -0.67259553396904
O           -2.08785207808953        0.53487376693632        0.51972061866851
C           -0.82488436568373        0.01230692242528        0.29351850498085
C           -0.64001599884418       -1.36432481561098        0.25608579352498
C            0.63789564020311       -1.86225093727110        0.06155051892921
C            1.71333780288060       -1.01140306898526       -0.10716113559362
C            1.53001430543395        0.37196761701622       -0.07499533403678
C            0.24616201744689        0.87637375045255        0.12679318171851
N            2.61668883779894        1.23163014727576       -0.16712430094946
H           -2.96490904430610       -0.15523915215514       -1.23567103169529
H           -2.30185832106049        1.49997904628052       -1.31025230327376
H           -3.78287282195075        1.17399812077816       -0.36629310150689
H           -1.48656622455765       -2.02055977463813        0.38969499901510
H            0.79812104753134       -2.93151054127740        0.03261040281391
H            2.70560762916870       -1.41345920171531       -0.25956567794248
H            0.07447510659938        1.94312559727621        0.17035850364994
H            2.39752669894911        2.16815280779490       -0.47298214290726
H            3.42469181324600        0.84996658588777       -0.63647206591916
18
 energy: -26.542961103820 gnorm: 0.004860398707 xtb: 6.7.1 (edcfbbe)
C           -2.81840280166232        0.77188809765443       -0.66912692052839
O           -2.09041213039082        0.53691139734211        0.51579207705884
C           -0.82527698736931        0.01456444185740        0.29174919205530
C           -0.63626400216420       -1.36070705335386        0.25605488398787
C            0.63827848686802       -1.86119892272241        0.06106589427351
C            1.71180683847519       -1.01138293375627       -0.10898640429263
C            1.52930528408540        0.37045917073296       -0.07846320380005
C            0.24693526665224        0.87475577552862        0.12102242873222
N            2.61216520489569        1.22695406769404       -0.17259714965835
H           -2.96801393380363       -0.15486740679711       -1.23326594736369
H           -2.30752647697158        1.49802440196259       -1.31093622963114
H           -3.78175443625964        1.17172668835186       -0.36064110954680
H           -1.48028370247884       -2.01771683846801        0.39013989764138
H            0.79649452265177       -2.92902362621373        0.03641200374708
H            2.70294913285396       -1.41119007535500       -0.26342308073240
H            0.08023413312563        1.94100948443830        0.15659740955455
H            2.39750830212776        2.17080460011670       -0.45880829717349
H            3.42979832325168        0.84582972018804       -0.62536554881652
18
 energy: -26.543016078572 gnorm: 0.003250582350 xtb: 6.7.1 (edcfbbe)
C           -2.82043108845010        0.77107717700669       -0.66649156453638
O           -2.09084061328204        0.53823119373857        0.51417813673367
C           -0.82525795798525        0.01590496342152        0.28922472508875
C           -0.63528958539199       -1.35930809486866        0.25672255862016
C            0.63869112129826       -1.86166461581557        0.06157806546389
C            1.71255080164977       -1.01241066565290       -0.11062145542150
C            1.53030629917874        0.36995500968655       -0.08179813617666
C            0.24734101579789        0.87482176982434        0.11558006722698
N            2.61111520423387        1.22489833854262       -0.17709910116756
H           -2.97283086886719       -0.15527950104208       -1.23189817613183
H           -2.31393939337368        1.49727835222520       -1.31292601366082
H           -3.78395956709246        1.17079613643321       -0.35709267237948
H           -1.47893095035908       -2.01676756321103        0.39274570613426
H            0.79503989225383       -2.92954810612777        0.03767478709990
H            2.70393714643223       -1.41161132571161       -0.26562306290260
H            0.08339469386860        1.94175044619088        0.14751180063383
H            2.40078712626112        2.17352474307424       -0.44803101921587
H            3.43585774771452        0.84519273148644       -0.61641474990147
18
 energy: -26.543047948645 gnorm: 0.002271724602 xtb: 6.7.1 (edcfbbe)
C           -2.82382751168699        0.77029616432059       -0.66425044813479
O           -2.08994326617181        0.53962725637018        0.51297560558393
C           -0.82468541924783        0.01709146693064        0.28570796142008
C           -0.63532213366203       -1.35844786136979        0.25671560493727
C            0.63876547792249       -1.86212603652766        0.06074064551889
C            1.71367432726711       -1.01369402051200       -0.11300937565190
C            1.53193436689113        0.36969244833541       -0.08554411412813
C            0.24785915375398        0.87553656497290        0.10932655555779
N            2.61139242692117        1.22329306261930       -0.18189399329756
H           -2.97900284361310       -0.15662855532657       -1.22975168366146
H           -2.32166329544818        1.49660611783599       -1.31547822698123
H           -3.78767887248307        1.17000339067292       -0.35326052991110
H           -1.47902436599253       -2.01595328385309        0.39663653261608
H            0.79387040026910       -2.93055187681400        0.03947805284494
H            2.70564890753922       -1.41321364030072       -0.26671600828002
H            0.08572040983332        1.94333379903823        0.13864380923971
H            2.40639747794627        2.17641470790544       -0.43662697857822
H            3.44342578384875        0.84556128490289       -0.60647351358701
18
 energy: -26.543055977670 gnorm: 0.001417600879 xtb: 6.7.1 (edcfbbe)
C           -2.82607077893306        0.76971865643629       -0.66377889263960
O           -2.08872096353419        0.54083240959069        0.51249873173918
C           -0.82407504272757        0.01778522039611        0.28362826145675
C           -0.63576633674813       -1.35802763145834        0.25626823812972
C            0.63856286255392       -1.86190198671635        0.06039204265713
C            1.71399960480864       -1.01409683748025       -0.11402994078727
C            1.53276677505228        0.36969341043425       -0.08746499985058
C            0.24834249705111        0.87619099276654        0.10625245486275
N            2.61213677899138        1.22258513621761       -0.18415558397548
H           -2.98211292050373       -0.15829938637835       -1.22753097216413
H           -2.32563735590987        1.49559991791259       -1.31699849912991
H           -3.78959183982545        1.16941099481788       -0.35104005785800
H           -1.47974222482480       -2.01506686676646        0.39785050264271
H            0.79344289909822       -2.93064091616641        0.03995044826367
H            2.70603197184870       -1.41437145331516       -0.26679100968309
H            0.08630393464298        1.94417953033086        0.13504703438465
H            2.41016729858497        2.17754562189169       -0.43150470974094
H            3.44750386426160        0.84570417668744       -0.60137315280026
18
 energy: -26.543059446201 gnorm: 0.000522619307 xtb: 6.7.1 (edcfbbe)
C           -2.82847906541846        0.76862869253366       -0.66386525501686
O           -2.08696706125203        0.54318857042743        0.51215857020832
C           -0.82324178714895        0.01898122750049        0.28185969154405
C           -0.63645786680040       -1.35712341853653        0.25515533995199
C            0.63791533458799       -1.86108500670413        0.05955381729839
C            1.71386460308807       -1.01410081594125       -0.11490579713224
C            1.53356355678802        0.36982692631604       -0.08898676405821
C            0.24928650207873        0.87713524214792        0.10398061049824
N            2.61329678307007        1.22171839392408       -0.18602996340162
H           -2.98477900473779       -0.16136854760829       -1.22367208214286
H           -2.32956175867149        1.49310923765267       -1.31921358225090
H           -3.79104826041676        1.16832068836594       -0.34865743331796
H           -1.48088777319906       -2.01320668502318        0.39758258695976
H            0.79292475876044       -2.93000495303084        0.04005756495693
H            2.70558068183234       -1.41558835006602       -0.26662429927281
H            0.08671116796597        1.94500196076536        0.13254906924952
H            2.41439038645052        2.17829302593166       -0.42716349623974
H            3.45142982690979        0.84511480054565       -0.59655868232672
18
 energy: -26.543060610333 gnorm: 0.000309293844 xtb: 6.7.1 (edcfbbe)
C           -2.82872685055963        0.76781949782590       -0.66399417598712
O           -2.08652075141058        0.54476060166332        0.51221236859553
C           -0.82306877455916        0.01983618104948        0.28208051611170
C           -0.63665406035366       -1.35629799505399        0.25467068655733
C            0.63746257667487       -1.86060628543482        0.05923528173362
C            1.71361048399856       -1.01386240928491       -0.11478719120773
C            1.53380786570569        0.36998702884637       -0.08858407690457
C            0.24988006064522        0.87757750915873        0.10463794423606
N            2.61383032515670        1.22147881126243       -0.18561598654800
H           -2.98482439181894       -0.16316963332324       -1.22179350287371
H           -2.33018748085705        1.49118324103136       -1.32056827394135
H           -3.79096478816813        1.16771013346177       -0.34860459399224
H           -1.48134430937825       -2.01205866598917        0.39630829685458
H            0.79228303121648       -2.92945262920366        0.03916813904507
H            2.70504612018863       -1.41569503150269       -0.26674940787384
H            0.08725513251703        1.94533017750814        0.13351632763138
H            2.41503907575538        2.17801464636474       -0.42743005702263
H            3.45161775913384        0.84428581082087       -0.59648239890681
18
 energy: -26.543063230949 gnorm: 0.000658031091 xtb: 6.7.1 (edcfbbe)
C           -2.82947406129200        0.76514421597027       -0.66410952208967
O           -2.08504549585586        0.54980334721234        0.51239143615244
C           -0.82248247368805        0.02260932083174        0.28283715318299
C           -0.63749460138546       -1.35368298866582        0.25320019340192
C            0.63591948824538       -1.85926180035726        0.05777965543360
C            1.71298769502941       -1.01338843898261       -0.11481242604763
C            1.53482768745573        0.37048429135804       -0.08724616677959
C            0.25173893340282        0.87911716317573        0.10690823341748
N            2.61572360769528        1.22087443223179       -0.18432898015934
H           -2.98500260742730       -0.16901375672147       -1.21621372203817
H           -2.33250156967247        1.48533944964251       -1.32504186822264
H           -3.79130602332544        1.16563719670504       -0.34899892745537
H           -1.48301159252543       -2.00865424287322        0.39309708179910
H            0.78986331773968       -2.92807733833216        0.03651763682534
H            2.70381053921364       -1.41627497871151       -0.26721009888231
H            0.08949834745598        1.94678419725562        0.13698893713742
H            2.41719447092159        2.17722527273178       -0.42794771337836
H            3.45229536189950        0.84217564672982       -0.59659100678992
18
 energy: -26.543075719288 gnorm: 0.002662624875 xtb: 6.7.1 (edcfbbe)
C           -2.83453091363196        0.75205316969449       -0.66379962150236
O           -2.07752410281136        0.57415447353219        0.51254535500310
C           -0.81932246943725        0.03627933662735        0.28447259606192
C           -0.64171841724595       -1.34090043771790        0.24619404478397
C            0.62864106233694       -1.85274714846261        0.05124435194463
C            1.71039925962525       -1.01165707290841       -0.11557621603136
C            1.54026821016981        0.37261915860864       -0.08249646669399
C            0.26076594217472        0.88683100331458        0.11493720975538
N            2.62539296308261        1.21747828729228       -0.17894577784059
H           -2.98814302036751       -0.19748328302887       -1.18874430115808
H           -2.34679485897048        1.45748072935788       -1.34703892178816
H           -3.79479365674911        1.15497557355209       -0.34935717546305
H           -1.49112870727949       -1.99206543677925        0.37903176081051
H            0.77763116608092       -2.92174518979604        0.02429949514588
H            2.69847736959126       -1.41978599182717       -0.26959038231564
H            0.10160190827326        1.95444147591232        0.15054626094023
H            2.42996571986336        2.17413438073249       -0.42648852082398
H            3.45835356918195        0.83277796109655       -0.59401379532112
18
 energy: -26.542242339691 gnorm: 0.029129967436 xtb: 6.7.1 (edcfbbe)
C           -2.86548604434381        0.67431302922277       -0.66130743491422
O           -2.03287062377269        0.71820715598245        0.51211274302361
C           -0.80034553171981        0.11752659863801        0.29281953696970
C           -0.66686421717200       -1.26491794215224        0.20457952734018
C            0.58546832135773       -1.81409906657466        0.01186122936859
C            1.69533364014858       -1.00183537667947       -0.12103062084591
C            1.57294072472441        0.38502917498259       -0.05504190343562
C            0.31434074511763        0.93275168352100        0.16091038242518
N            2.68322714251988        1.19700917480506       -0.14698346799015
H           -3.00792533849100       -0.36581909717860       -1.02546043745394
H           -2.43345115905055        1.29198560210575       -1.47718212197316
H           -3.81683061006425        1.09140334514866       -0.35074456696935
H           -1.53913279805876       -1.89354669527951        0.29736889640433
H            0.70464285697072       -2.88443092479837       -0.04704263406987
H            2.66737861373380       -1.44108295801858       -0.28393948683004
H            0.17448707718536        2.00034697981683        0.22850714069302
H            2.50707602893032        2.15611550986366       -0.41478229418090
H            3.49555219587131        0.77788479579512       -0.57742459205413
18
 energy: -26.543098206153 gnorm: 0.008082590742 xtb: 6.7.1 (edcfbbe)
C           -2.84922391037199        0.71606256326941       -0.66209366985628
O           -2.06036744853178        0.63375203032677        0.50862524152889
C           -0.81137647371856        0.07345246886378        0.28727890948701
C           -0.65254966412951       -1.30514962707204        0.22719879326158
C            0.60936120723790       -1.83414174210855        0.03519439613284
C            1.70360961518432       -1.00627244945156       -0.11644938009857
C            1.55501135538383        0.37905157583711       -0.06898615507698
C            0.28469725021795        0.90843862212719        0.13732757093035
N            2.65225723310855        1.20775093332045       -0.16548153646720
H           -2.99278592244210       -0.26848060775157       -1.11901615099588
H           -2.38545576766125        1.38266824152952       -1.39817123308041
H           -3.80739551714741        1.12149436586391       -0.35057754974892
H           -1.51257333526414       -1.94575232197887        0.34061719380531
H            0.74379169353803       -2.90348676369877       -0.00780730047314
H            2.68429848185833       -1.42841229247989       -0.27501897508585
H            0.13533158072686        1.97620678132492        0.18863428604128
H            2.46612246168400        2.16460655211882       -0.42605716818792
H            3.47478818421392        0.80505265915992       -0.58799737660880
18
 energy: -26.543112700680 gnorm: 0.007294109746 xtb: 6.7.1 (edcfbbe)
C           -2.84866352900486        0.71785599845504       -0.66188565383682
O           -2.05972469289571        0.63353184641041        0.50754156634625
C           -0.81123287403898        0.07223650253044        0.28594931166814
C           -0.65207228295680       -1.30669900634154        0.22732575462068
C            0.61023428919062       -1.83533648491874        0.03495061772089
C            1.70398263390734       -1.00706577744727       -0.11727055517810
C            1.55443717286875        0.37819082306078       -0.07028468386233
C            0.28397355186698        0.90732755710245        0.13460556677838
N            2.65086216603070        1.20784134454975       -0.16551016465305
H           -2.99447336884809       -0.26656063766500       -1.11856458813930
H           -2.38686240927037        1.38534492478542       -1.39886412775206
H           -3.80634331038772        1.12347929430402       -0.34854984623979
H           -1.51156471601837       -1.94753017615384        0.34233317166506
H            0.74553253257778       -2.90473931491122       -0.00527349540805
H            2.68514514227454       -1.42848686915615       -0.27474715600177
H            0.13461794563661        1.97506067595276        0.18436683251643
H            2.46501308207765        2.16540053013404       -0.42285339361866
H            3.47467969087686        0.80698975850918       -0.58604926111859
18
 energy: -26.543145703378 gnorm: 0.005471812006 xtb: 6.7.1 (edcfbbe)
C           -2.85004329032425        0.72057907724240       -0.66053716903621
O           -2.05682351939031        0.63583744868581        0.50350683503685
C           -0.81035639208283        0.07059746391500        0.28070303025052
C           -0.65137035751344       -1.30920604179954        0.22667840041579
C            0.61195881333046       -1.83740650803000        0.03481622215954
C            1.70551647758661       -1.00913400937101       -0.11858259465212
C            1.55460057076147        0.37611716670753       -0.07327068121265
C            0.28356904592554        0.90542763401967        0.12695382450789
N            2.64980162063728        1.20778437772641       -0.16401971443438
H           -3.00123093765268       -0.26399789578187       -1.11493465109936
H           -2.39449244811833        1.38797037657015       -1.40199011846895
H           -3.80614595650087        1.12795632589162       -0.34230040763059
H           -1.50993679593204       -1.95042289958585        0.34533241091283
H            0.74818863617771       -2.90724053063559       -0.00074487884793
H            2.68758690630973       -1.42963873229970       -0.27370087675304
H            0.13484755603150        1.97328678698231        0.17313941596402
H            2.46489254141751        2.16684684667114       -0.41385868589680
H            3.47697855322386        0.81148410229209       -0.57997046570811
18
 energy: -26.543183383114 gnorm: 0.004033768861 xtb: 6.7.1 (edcfbbe)
C           -2.85528447928771        0.71929837290844       -0.65822990027550
O           -2.05211508430767        0.64363423221664        0.49790064380702
C           -0.80845788636775        0.07285357131942        0.27394511388205
C           -0.65180221723107       -1.30771272751566        0.22336937576233
C            0.61183822536792       -1.83707672725106        0.03290618143566
C            1.70719584286656       -1.01084303806372       -0.11963890110117
C            1.55752313278830        0.37470797136658       -0.07506775301583
C            0.28615511317182        0.90598599385701        0.12000662469489
N            2.65323895181754        1.20651844566355       -0.16026637698339
H           -3.01150500640148       -0.26818181183049       -1.10458186330235
H           -2.40865143956291        1.38229076153304       -1.40954006036762
H           -3.80942938368500        1.12903470826323       -0.33475957925485
H           -1.51034221404041       -1.94858046333621        0.34459806535738
H            0.74688045801457       -2.90756230651590        0.00087628911707
H            2.68952200561025       -1.43240595427339       -0.27161186928348
H            0.13951822575931        1.97428906812723        0.16354040070127
H            2.47018739635542        2.16706308669177       -0.40353080295290
H            3.48306938301921        0.81352780604004       -0.57269569271329
18
 energy: -26.543255008868 gnorm: 0.002195961070 xtb: 6.7.1 (edcfbbe)
C           -2.86656088757711        0.71207740261880       -0.65404138990526
O           -2.04373355943028        0.66092174809358        0.48827646814066
C           -0.80451789639098        0.08136389634399        0.26354994692261
C           -0.65408333607078       -1.30012983194000        0.21578612122270
C            0.60912071917849       -1.83345646760141        0.02846412533491
C            1.70945630515121       -1.01271850249181       -0.12041749113555
C            1.56488988641653        0.37378392088665       -0.07542016246915
C            0.29351434856413        0.91030257818541        0.11265994356677
N            2.66362413472156        1.20322996691359       -0.15253997357670
H           -3.02815285256769       -0.28300989205428       -1.08217538802650
H           -2.43565280452477        1.36394709320579       -1.42517992477967
H           -3.81817578948862        1.12507873940509       -0.32400128132641
H           -1.51399861414217       -1.93953426026663        0.33824996938699
H            0.73928850500633       -2.90525396736861       -0.00131809036420
H            2.69125729329520       -1.43831395927658       -0.26764650918654
H            0.15236047518236        1.97975342549209        0.15465388812289
H            2.48390840246384        2.16556133394079       -0.38822128540004
H            3.49499669409966        0.81323776511405       -0.56345907102021
18
 energy: -26.543345883423 gnorm: 0.002113166670 xtb: 6.7.1 (edcfbbe)
C           -2.87913369491214        0.69963502198979       -0.64973835869730
O           -2.03525168262471        0.68227932255549        0.47854472732980
C           -0.79995509262374        0.09481146959197        0.25486961848040
C           -0.65803151502114       -1.28735222695510        0.20649113565986
C            0.60366209299074       -1.82689608603886        0.02264955125169
C            1.71061115744951       -1.01353902466968       -0.12057010024818
C            1.57404246232248        0.37434185649466       -0.07312591968245
C            0.30358573995451        0.91812641834729        0.11048644002857
N            2.67784569436312        1.19863433156083       -0.14414155264598
H           -3.04153798411748       -0.30568127340816       -1.05520049969039
H           -2.46494327120045        1.33724609694165       -1.44306003612506
H           -3.82957763421707        1.11428611871451       -0.31608718069624
H           -1.52082093325529       -1.92422677210194        0.32699322679184
H            0.72613041012456       -2.90018896130231       -0.00811797907198
H            2.69093593752697       -1.44514433909497       -0.26397432858165
H            0.17032758984944        1.98910878905037        0.15422103312021
H            2.50202790901915        2.16243923746003       -0.37472909602901
H            3.50762383825841        0.80896101006495       -0.55829078568682
18
 energy: -26.543474401509 gnorm: 0.005336392371 xtb: 6.7.1 (edcfbbe)
C           -2.89662306679974        0.67748967351079       -0.64375854394137
O           -2.02358398030474        0.71621593562689        0.46456851282589
C           -0.79325002352337        0.11832599334816        0.24453916191657
C           -0.66491279313345       -1.26468956812846        0.19217030548795
C            0.59342015227716       -1.81522488472467        0.01312651073758
C            1.71045484204341       -1.01349984347826       -0.12092004138513
C            1.58740322248259        0.37647342371577       -0.06809275134326
C            0.31960029687535        0.93225213786098        0.11203711634686
N            2.70001689843047        1.19062155178585       -0.13255109919595
H           -3.05481597304861       -0.34443306068714       -1.01281286850982
H           -2.50734929402422        1.29242278553665       -1.46980362381006
H           -3.84694025755975        1.09198806827924       -0.30740901394422
H           -1.53312919766394       -1.89662190303973        0.30720365261988
H            0.70302421363634       -2.89054763121894       -0.02127303746332
H            2.68778988318367       -1.45479484207418       -0.26038805851104
H            0.19952330586116        2.00548394125970        0.16104500137830
H            2.53157468414451        2.15698573636240       -0.35664594673843
H            3.52533811100999        0.79839347526540       -0.55381538096311
18
 energy: -26.543513496644 gnorm: 0.014520973445 xtb: 6.7.1 (edcfbbe)
C           -2.92805940085013        0.63606901471985       -0.63219574430977
O           -2.00350176889935        0.77796534586173        0.43645067683202
C           -0.78151242898647        0.16247028743316        0.22424202453638
C           -0.67696705467989       -1.22204818389353        0.16540359143787
C            0.57451652744229       -1.79328846404831       -0.00470761788608
C            1.70900833993956       -1.01247659250052       -0.12241219445627
C            1.61042515400825        0.38091739052843       -0.06015041224975
C            0.34810711083685        0.95883413390048        0.11297877496020
N            2.73967036381803        1.17464337123722       -0.11196262491509
H           -3.07635391172766       -0.41489701941721       -0.93340916835263
H           -2.58558961527544        1.20823186365541       -1.51634302748673
H           -3.87800198057632        1.04891940023959       -0.28922770712268
H           -1.55523711672410       -1.84401530533691        0.27098258642324
H            0.66097615044928       -2.87178596540077       -0.04471929243812
H            2.68070074211714       -1.47090238731851       -0.25490650169449
H            0.25223168445092        2.03575198058757        0.17071243997978
H            2.58882938894291        2.14691111904721       -0.32201653376947
H            3.55829883960087        0.77554099990550       -0.54149937398108
18
 energy: -26.543642459863 gnorm: 0.007287661191 xtb: 6.7.1 (edcfbbe)
C           -2.91880736017004        0.64670302688227       -0.63471512435172
O           -2.01273970110417        0.75573307639998        0.44227863528976
C           -0.78589847161129        0.15071705699436        0.22912550868813
C           -0.67286157133083       -1.23279924549180        0.17273247493980
C            0.57992676058540       -1.79840935377470        0.00061058636924
C            1.70838166883396       -1.01123785652546       -0.12192863592631
C            1.60244546958625        0.38095294589630       -0.06322603850648
C            0.33869311166774        0.95250534096559        0.11167339921715
N            2.72800300142912        1.17796772521905       -0.11894062167741
H           -3.06645756440114       -0.39261980997382       -0.95810854500689
H           -2.56153801917780        1.23109002193190       -1.49620585114341
H           -3.86925553869634        1.05819907841489       -0.29343103455162
H           -1.54835502857812       -1.85706850002596        0.28108519806722
H            0.67284505981694       -2.87548679445282       -0.03776001390559
H            2.68155759375423       -1.46434335286588       -0.25633610280549
H            0.23639853175232        2.02819705416111        0.16639872639859
H            2.57605835781932        2.14910389275430       -0.33310979512921
H            3.54914472371124        0.77763668269109       -0.54292287045845
18
 energy: -26.543729503565 gnorm: 0.006591798547 xtb: 6.7.1 (edcfbbe)
C           -2.92405295698877        0.63832844991510       -0.63180086135464
O           -2.00940991255268        0.76783540992582        0.43352085642932
C           -0.78378850589160        0.16008316532752        0.22335683063379
C           -0.67430053302573       -1.22376690130233        0.16684193817161
C            0.57647284165162       -1.79376231676952       -0.00312347350427