
                                 *****************
                                 * O   R   C   A *
                                 *****************

                                            #,                                       
                                            ###                                      
                                            ####                                     
                                            #####                                    
                                            ######                                   
                                           ########,                                 
                                     ,,################,,,,,                         
                               ,,#################################,,                 
                          ,,##########################################,,             
                       ,#########################################, ''#####,          
                    ,#############################################,,   '####,        
                  ,##################################################,,,,####,       
                ,###########''''           ''''###############################       
              ,#####''   ,,,,##########,,,,          '''####'''          '####       
            ,##' ,,,,###########################,,,                        '##       
           ' ,,###''''                  '''############,,,                           
         ,,##''                                '''############,,,,        ,,,,,,###''
      ,#''                                            '''#######################'''  
     '                                                          ''''####''''         
             ,#######,   #######,   ,#######,      ##                                
            ,#'     '#,  ##    ##  ,#'     '#,    #''#        ,####,   ,####,        
            ##       ##  ##   ,#'  ##            #'  '#       #'       #'  '#        
            ##       ##  #######   ##           ,######,      #####,   #    #        
            '#,     ,#'  ##    ##  '#,     ,#' ,#      #,     #,   #   #,  ,#        
             '#######'   ##     ##  '#######'  #'      '#     '####' # '####'        



                #########################################################
                #                        -***-                          #
                #          Department of theory and spectroscopy        #
                #                                                       #
                #                      Frank Neese                      #
                #                                                       #
                #     Directorship, Architecture, Infrastructure        #
                #                    SHARK, DRIVERS                     #
                #        Core code/Algorithms in most modules           #
                #                                                       #
                #        Max Planck Institute fuer Kohlenforschung      #
                #                Kaiser Wilhelm Platz 1                 #
                #                 D-45470 Muelheim/Ruhr                 #
                #                      Germany                          #
                #                                                       #
                #                  All rights reserved                  #
                #                        -***-                          #
                #########################################################


                         Program Version 6.0.0  -   RELEASE  -


 With contributions from (in alphabetic order):
   Daniel Aravena         : Magnetic Suceptibility
   Michael Atanasov       : Ab Initio Ligand Field Theory (pilot matlab implementation)
   Alexander A. Auer      : GIAO ZORA, VPT2 properties, NMR spectrum
   Ute Becker             : All parallelization in ORCA, NUMFREQ, NUMCALC
   Giovanni Bistoni       : ED, misc. LED, open-shell LED, HFLD
   Martin Brehm           : Molecular dynamics
   Dmytro Bykov           : pre 5.0 version of the SCF Hessian
   Marcos Casanova-Páez   : Triplet and SCS-CIS(D). UHF-(DLPNO)-IP/EA/STEOM-CCSD. UHF-CVS-IP/STEOM-CCSD
   Vijay G. Chilkuri      : MRCI spin determinant printing, contributions to CSF-ICE
   Pauline Colinet        : FMM embedding
   Dipayan Datta          : RHF DLPNO-CCSD density
   Achintya Kumar Dutta   : EOM-CC, STEOM-CC
   Nicolas Foglia         : Exact transition moments, OPA infrastructure, MCD improvements
   Dmitry Ganyushin       : Spin-Orbit,Spin-Spin,Magnetic field MRCI
   Miquel Garcia          : C-PCM and meta-GGA Hessian, CCSD/C-PCM, Gaussian charge scheme
   Tiago L. C. Gouveia    : GS-ROHF, GS-ROCIS
   Yang Guo               : DLPNO-NEVPT2, F12-NEVPT2, CIM, IAO-localization
   Andreas Hansen         : Spin unrestricted coupled pair/coupled cluster methods
   Ingolf Harden          : AUTO-CI MPn and infrastructure 
   Benjamin Helmich-Paris : MC-RPA, TRAH-(SCF,CASSCF), AVAS, COSX integrals, SCF dyn. polar.
   Lee Huntington         : MR-EOM, pCC
   Robert Izsak           : Overlap fitted RIJCOSX, COSX-SCS-MP3, EOM
   Riya Kayal             : Wick's Theorem for AUTO-CI, AUTO-CI UHF-CCSDT
   Emily Kempfer          : AUTO-CI, RHF CISDT and CCSDT
   Christian Kollmar      : KDIIS, OOCD, Brueckner-CCSD(T), CCSD density, CASPT2, CASPT2-K, improved NEVPT2
   Axel Koslowski         : Symmetry handling
   Simone Kossmann        : Meta GGA functionals, TD-DFT gradient, OOMP2, (MP2 Hessian; deprecated post 5.0)
   Lucas Lang             : DCDCAS
   Marvin Lechner         : AUTO-CI (C++ implementation), FIC-MRCC
   Spencer Leger          : CASSCF response
   Dagmar Lenk            : GEPOL surface, SMD, ORCA-2-JSON
   Dimitrios Liakos       : Extrapolation schemes; Compound Job, initial MDCI parallelization
   Dimitrios Manganas     : Further ROCIS development; embedding schemes. LFT, Crystal Embedding
   Dimitrios Pantazis     : SARC Basis sets
   Anastasios Papadopoulos: AUTO-CI, single reference methods and gradients
   Taras Petrenko         : pre 6.0 DFT Hessian and TD-DFT gradient, (ASA, deprecated), ECA, 1-Electron XAS/XES, NRVS
   Peter Pinski           : DLPNO-MP2, DLPNO-MP2 Gradient
   Christoph Reimann      : Effective Core Potentials
   Marius Retegan         : Local ZFS, SOC
   Christoph Riplinger    : Optimizer, TS searches, QM/MM, DLPNO-CCSD(T), (RO)-DLPNO pert. Triples
   Michael Roemelt        : Original ROCIS implementation
   Masaaki Saitow         : Open-shell DLPNO-CCSD energy and density
   Barbara Sandhoefer     : DKH picture change effects
   Kantharuban Sivalingam : CASSCF convergence/infrastructure, NEVPT2 and variants, FIC-MRCI
   Bernardo de Souza      : ESD, SOC TD-DFT
   Georgi Stoychev        : AutoAux, RI-MP2 NMR, DLPNO-MP2 response, X2C
   Van Anh Tran           : RI-MP2 g-tensors
   Willem Van den Heuvel  : Paramagnetic NMR
   Zikuan Wang            : NOTCH, Electric field optimization 
   Frank Wennmohs         : Technical directorship and infrastructure
   Hang Xu                : AUTO-CI-Response properties 


 We gratefully acknowledge several colleagues who have allowed us to
 interface, adapt or use parts of their codes:
   Stefan Grimme, W. Hujo, H. Kruse, P. Pracht,  : VdW corrections, initial TS optimization,
                  C. Bannwarth, S. Ehlert,         DFT functionals, gCP, sTDA/sTD-DF
                  L. Wittmann, M. Mueller
   Ed Valeev, F. Pavosevic, A. Kumar             : LibInt (2-el integral package), F12 methods
   Garnet Chan, S. Sharma, J. Yang, R. Olivares  : DMRG
   Ulf Ekstrom                                   : XCFun DFT Library
   Mihaly Kallay                                 : mrcc  (arbitrary order and MRCC methods)
   Frank Weinhold                                : gennbo (NPA and NBO analysis)
   Simon Mueller                                 : openCOSMO-RS
   Christopher J. Cramer and Donald G. Truhlar   : smd solvation model
   Lars Goerigk                                  : TD-DFT with DH, B97 family of functionals
   V. Asgeirsson, H. Jonsson                     : NEB implementation
   FAccTs GmbH                                   : IRC, NEB, NEB-TS, DLPNO-Multilevel, CI-OPT
                                                   MM, QMMM, 2- and 3-layer-ONIOM, Crystal-QMMM,
                                                   LR-CPCM, SF, NACMEs, symmetry and pop. for TD-DFT,
                                                   nearIR, NL-DFT gradient (VV10), updates on ESD,
                                                   ML-optimized integration grids, MBIS, APM,
                                                   GOAT, DOCKER, SOLVATOR, interface openCOSMO-RS
   S Lehtola, MJT Oliveira, MAL Marques          : LibXC Library
   Liviu Ungur et al                             : ANISO software


 Your calculation uses the libint2 library for the computation of 2-el integrals
 For citations please refer to: http://libint.valeyev.net

 Your ORCA version has been built with support for libXC version: 6.2.2
 For citations please refer to: https://libxc.gitlab.io

 This ORCA versions uses:
   CBLAS   interface :  Fast vector & matrix operations
   LAPACKE interface :  Fast linear algebra routines
   SCALAPACK package :  Parallel linear algebra routines
   Shared memory     :  Shared parallel matrices
   BLAS/LAPACK       :  OpenBLAS 0.3.27  USE64BITINT DYNAMIC_ARCH NO_AFFINITY SkylakeX SINGLE_THREADED
        Core in use  :  SkylakeX
   Copyright (c) 2011-2014, The OpenBLAS Project




***************************************
The coordinates will be read from file: censo.xyz
***************************************


Your calculation utilizes the geometrical counterpoise correction gCP
Please cite in your paper:
H.Kruse, S. Grimme J.Chem.Phys., 136, (2012), 154101 
   

Your calculation utilizes the atom-pairwise dispersion correction
based on EEQ partial charges (D4)


================================================================================

----- Orbital basis set information -----
Your calculation utilizes the basis: def2-TZVP
   F. Weigend and R. Ahlrichs, Phys. Chem. Chem. Phys. 7, 3297 (2005).

----- AuxJ basis set information -----
Your calculation utilizes the basis: def2-mTZVPP/J
   Stefan Grimme, Andreas Hansen, Sebastian Ehlert, and Jan-Michael Mewes 
   J. Chem. Phys. 154, 000000 (2021). DOI: 10.1063/5.0040021

================================================================================
                                        WARNINGS
                       Please study these warnings very carefully!
================================================================================

Using LibXC functional ID 497 : Re-regularized SCAN exchange by Furness et al
[ 1]  J. W. Furness, A. D. Kaplan, J. Ning, J. P. Perdew, and J. Sun.,  J. Phys. Chem. Lett. 11, 8208-8215 (2020)
[ 2]  J. W. Furness, A. D. Kaplan, J. Ning, J. P. Perdew, and J. Sun.,  J. Phys. Chem. Lett. 11, 9248-9248 (2020)
Using LibXC functional ID 498 : Re-regularized SCAN correlation by Furness et al
[ 1]  J. W. Furness, A. D. Kaplan, J. Ning, J. P. Perdew, and J. Sun.,  J. Phys. Chem. Lett. 11, 8208-8215 (2020)
[ 2]  J. W. Furness, A. D. Kaplan, J. Ning, J. P. Perdew, and J. Sun.,  J. Phys. Chem. Lett. 11, 9248-9248 (2020)
Using LibXC functional ID 497 : Re-regularized SCAN exchange by Furness et al
[ 1]  J. W. Furness, A. D. Kaplan, J. Ning, J. P. Perdew, and J. Sun.,  J. Phys. Chem. Lett. 11, 8208-8215 (2020)
[ 2]  J. W. Furness, A. D. Kaplan, J. Ning, J. P. Perdew, and J. Sun.,  J. Phys. Chem. Lett. 11, 9248-9248 (2020)
Using LibXC functional ID 498 : Re-regularized SCAN correlation by Furness et al
[ 1]  J. W. Furness, A. D. Kaplan, J. Ning, J. P. Perdew, and J. Sun.,  J. Phys. Chem. Lett. 11, 8208-8215 (2020)
[ 2]  J. W. Furness, A. D. Kaplan, J. Ning, J. P. Perdew, and J. Sun.,  J. Phys. Chem. Lett. 11, 9248-9248 (2020)

================================================================================
                                       INPUT FILE
================================================================================
NAME = censo.inp
|  1> ! r2SCAN-3c DEF2-TZVP FREQ
|  2> * xyzfile 0 1 censo.xyz
|  3> 
|  4>                          ****END OF INPUT****
================================================================================

                       ****************************
                       * Single Point Calculation *
                       ****************************

---------------------------------
CARTESIAN COORDINATES (ANGSTROEM)
---------------------------------
  C     -1.941288   -1.210564    0.000029
  C     -0.551183   -1.211868    0.000151
  C      0.129053    0.000071    0.000188
  C     -0.549715    1.211409    0.000107
  C     -1.941038    1.209196   -0.000015
  C     -2.634521   -0.000632   -0.000048
  O     -4.007338   -0.056062   -0.000180
  Br     2.049492   -0.000153    0.000398
  H     -2.489715   -2.146459    0.000001
  H     -0.013362   -2.152688    0.000232
  H     -0.013150    2.152979    0.000145
  H     -2.486986    2.148158   -0.000084
  H     -4.358430    0.845688   -0.000214

----------------------------
CARTESIAN COORDINATES (A.U.)
----------------------------
  NO LB      ZA    FRAG     MASS         X           Y           Z
   0 C     6.0000    0    12.011   -3.668503   -2.287634    0.000055
   1 C     6.0000    0    12.011   -1.041584   -2.290099    0.000286
   2 C     6.0000    0    12.011    0.243874    0.000135    0.000356
   3 C     6.0000    0    12.011   -1.038810    2.289232    0.000202
   4 C     6.0000    0    12.011   -3.668030    2.285049   -0.000029
   5 C     6.0000    0    12.011   -4.978524   -0.001193   -0.000091
   6 O     8.0000    0    15.999   -7.572770   -0.105942   -0.000340
   7 Br   35.0000    0    79.900    3.872978   -0.000289    0.000752
   8 H     1.0000    0     1.008   -4.704879   -4.056220    0.000001
   9 H     1.0000    0     1.008   -0.025251   -4.067990    0.000439
  10 H     1.0000    0     1.008   -0.024850    4.068541    0.000275
  11 H     1.0000    0     1.008   -4.699723    4.059429   -0.000159
  12 H     1.0000    0     1.008   -8.236240    1.598118   -0.000404

--------------------------------
INTERNAL COORDINATES (ANGSTROEM)
--------------------------------
 C      0   0   0     0.000000000000     0.00000000     0.00000000
 C      1   0   0     1.390106412689     0.00000000     0.00000000
 C      2   1   0     1.389790590237   119.25078744     0.00000000
 C      3   2   1     1.388547434116   121.43157638     0.00000000
 C      4   3   2     1.391324850247   119.17273373     0.00000000
 C      1   2   3     1.394456399462   119.86438475     0.00000000
 O      6   1   2     1.373934826673   117.49842911   179.99943170
 Br     3   2   1     1.920439238965   119.29784532   179.99859373
 H      1   2   3     1.084744721467   120.31617705   180.00011871
 H      2   1   3     1.083693662385   119.80823391   179.99900948
 H      4   3   2     1.083723094416   121.05896215   179.99944110
 H      5   4   3     1.086144208947   120.08423693   180.00023394
 H      7   6   1     0.967687619042   108.96105257   179.99948925

---------------------------
INTERNAL COORDINATES (A.U.)
---------------------------
 C      0   0   0     0.000000000000     0.00000000     0.00000000
 C      1   0   0     2.626920416990     0.00000000     0.00000000
 C      2   1   0     2.626323599048   119.25078744     0.00000000
 C      3   2   1     2.623974374438   121.43157638     0.00000000
 C      4   3   2     2.629222930286   119.17273373     0.00000000
 C      1   2   3     2.635140700676   119.86438475     0.00000000
 O      6   1   2     2.596360548269   117.49842911   179.99943170
 Br     3   2   1     3.629104218480   119.29784532   179.99859373
 H      1   2   3     2.049870448789   120.31617705   180.00011871
 H      2   1   3     2.047884234974   119.80823391   179.99900948
 H      4   3   2     2.047939853452   121.05896215   179.99944110
 H      5   4   3     2.052515096855   120.08423693   180.00023394
 H      7   6   1     1.828664583176   108.96105257   179.99948925

---------------------
BASIS SET INFORMATION
---------------------
There are 4 groups of distinct atoms

 Group   1 Type C   : 11s6p2d1f contracted to 5s3p2d1f pattern {62111/411/11/1}
 Group   2 Type O   : 11s6p2d1f contracted to 5s3p2d1f pattern {62111/411/11/1}
 Group   3 Type Br  : 17s13p8d1f contracted to 6s5p4d1f pattern {842111/64111/5111/1}
 Group   4 Type H   : 5s1p contracted to 3s1p pattern {311/1}

Atom   0C    basis set group =>   1
Atom   1C    basis set group =>   1
Atom   2C    basis set group =>   1
Atom   3C    basis set group =>   1
Atom   4C    basis set group =>   1
Atom   5C    basis set group =>   1
Atom   6O    basis set group =>   2
Atom   7Br   basis set group =>   3
Atom   8H    basis set group =>   4
Atom   9H    basis set group =>   4
Atom  10H    basis set group =>   4
Atom  11H    basis set group =>   4
Atom  12H    basis set group =>   4
---------------------------------
AUXILIARY/J BASIS SET INFORMATION
---------------------------------
There are 4 groups of distinct atoms

 Group   1 Type C   : 8s3p3d contracted to 6s3p3d pattern {311111/111/111}
 Group   2 Type O   : 8s3p3d contracted to 6s3p3d pattern {311111/111/111}
 Group   3 Type Br  : 19s5p5d3f1g contracted to 8s4p3d2f1g pattern {121111111/2111/311/21/1}
 Group   4 Type H   : 5s2p1d contracted to 3s1p1d pattern {311/2/1}

Atom   0C    basis set group =>   1
Atom   1C    basis set group =>   1
Atom   2C    basis set group =>   1
Atom   3C    basis set group =>   1
Atom   4C    basis set group =>   1
Atom   5C    basis set group =>   1
Atom   6O    basis set group =>   2
Atom   7Br   basis set group =>   3
Atom   8H    basis set group =>   4
Atom   9H    basis set group =>   4
Atom  10H    basis set group =>   4
Atom  11H    basis set group =>   4
Atom  12H    basis set group =>   4
------------------------------------------------------------------------------
                             ORCA STARTUP CALCULATIONS
                           -- RI-GTO INTEGRALS CHOSEN --
------------------------------------------------------------------------------
------------------------------------------------------------------------------
                   ___                                                        
                  /   \      - P O W E R E D   B Y -                         
                 /     \                                                     
                 |  |  |   _    _      __       _____    __    __             
                 |  |  |  | |  | |    /  \     |  _  \  |  |  /  |          
                  \  \/   | |  | |   /    \    | | | |  |  | /  /          
                 / \  \   | |__| |  /  /\  \   | |_| |  |  |/  /          
                |  |  |   |  __  | /  /__\  \  |    /   |      \           
                |  |  |   | |  | | |   __   |  |    \   |  |\   \          
                \     /   | |  | | |  |  |  |  | |\  \  |  | \   \       
                 \___/    |_|  |_| |__|  |__|  |_| \__\ |__|  \__/        
                                                                              
                      - O R C A' S   B I G   F R I E N D -                    
                                      &                                       
                       - I N T E G R A L  F E E D E R -                       
                                                                              
 v1 FN, 2020, v2 2021, v3 2022-2024                                           
------------------------------------------------------------------------------


----------------------
SHARK INTEGRAL PACKAGE
----------------------

Number of atoms                             ...     13
Number of basis functions                   ...    295
Number of shells                            ...    113
Maximum angular momentum                    ...      3
Integral batch strategy                     ... SHARK/LIBINT Hybrid
RI-J (if used) integral strategy            ... SPLIT-RIJ (Revised 2003 algorithm where possible)
Printlevel                                  ...      1
Contraction scheme used                     ... SEGMENTED contraction
Prescreening option                         ... SCHWARTZ
   Thresh                                   ... 1.000e-10
   Tcut                                     ... 1.000e-11
   Tpresel                                  ... 1.000e-11 
Coulomb Range Separation                    ... NOT USED
Exchange Range Separation                   ... NOT USED
Multipole approximations                    ... NOT USED
Finite Nucleus Model                        ... NOT USED
CABS basis                                  ... NOT available
Auxiliary Coulomb fitting basis             ... AVAILABLE
   # of basis functions in Aux-J            ...    323
   # of shells in Aux-J                     ...    127
   Maximum angular momentum in Aux-J        ...      4
Auxiliary J/K fitting basis                 ... NOT available
Auxiliary Correlation fitting basis         ... NOT available
Auxiliary 'external' fitting basis          ... NOT available

Checking pre-screening integrals            ... done (  0.0 sec) Dimension = 113
Check shell pair data                       ... done (  0.0 sec)
Shell pair information
Shell pair cut-off parameter TPreSel        ...   1.0e-11
Total number of shell pairs                 ...      6441
Shell pairs after pre-screening             ...      5756
Total number of primitive shell pairs       ...     22180
Primitive shell pairs kept                  ...     14294
          la=0 lb=0:   1350 shell pairs
          la=1 lb=0:   1572 shell pairs
          la=1 lb=1:    465 shell pairs
          la=2 lb=0:    891 shell pairs
          la=2 lb=1:    518 shell pairs
          la=2 lb=2:    156 shell pairs
          la=3 lb=0:    403 shell pairs
          la=3 lb=1:    233 shell pairs
          la=3 lb=2:    133 shell pairs
          la=3 lb=3:     35 shell pairs

Calculating one electron integrals          ... done (  0.0 sec)
Calculating RI/J V-Matrix + Cholesky decomp.... done (  0.0 sec)
Calculating Nuclear repulsion               ... done (  0.0 sec) ENN=    520.750849914356 Eh

Diagonalization of the overlap matrix:
Smallest eigenvalue                        ... 9.553e-06
Time for diagonalization                   ...    0.017 sec
Threshold for overlap eigenvalues          ... 1.000e-07
Number of eigenvalues below threshold      ... 0
Time for construction of square roots      ...    0.021 sec
Total time needed                          ...    0.047 sec

-------------------
DFT GRID GENERATION
-------------------

General Integration Accuracy     IntAcc      ... 4.388
Radial Grid Type                 RadialGrid  ... OptM3 with GC (2021)
Angular Grid (max. ang.)         AngularGrid ... 4 (Lebedev-302)
Angular grid pruning method      GridPruning ... 4 (adaptive)
Weight generation scheme         WeightScheme... mBecke (2022)
Basis function cutoff            BFCut       ... 1.0000e-10
Integration weight cutoff        WCut        ... 1.0000e-14
Partially contracted basis set               ... off
Rotationally invariant grid construction     ... off
Angular grids for H and He will be reduced by one unit
Core-polarized basis detected: some atoms will have their core
                               angular grid increased.

Total number of grid points                  ...    69564
Total number of batches                      ...     1093
Average number of points per batch           ...       63
Average number of grid points per atom       ...     5351
Initializing property integral containers    ... done (  0.0 sec)

SHARK setup successfully completed in   1.2 seconds

Maximum memory used throughout the entire STARTUP-calculation: 46.1 MB
-------------------------------------------------------------------------------
                                 ORCA GUESS
                   Start orbitals & Density for SCF / CASSCF
-------------------------------------------------------------------------------

------------
SCF SETTINGS
------------
Hamiltonian:
 Density Functional     Method          .... DFT(GTOs)
  Functional kind                       .... Exchange
  Functional name                       .... Re-regularized SCAN exchange by Furness et al
  Functional family                     .... MGGA
  Functional refs                              
    [ 0] J. W. Furness, A. D. Kaplan, J. Ning, J. P. Perdew, and J. Sun.,  J. Phys. Chem. Lett. 11, 8208-8215 (2020), doi: 10.1021/acs.jpclett.0c02405
    [ 1] J. W. Furness, A. D. Kaplan, J. Ning, J. P. Perdew, and J. Sun.,  J. Phys. Chem. Lett. 11, 9248-9248 (2020), doi: 10.1021/acs.jpclett.0c03077
  Functional external parameters        .... 6
    Parameter  0 _c1        =  6.670000e-01 : c1 parameter        
    Parameter  1 _c2        =  8.000000e-01 : c2 parameter        
    Parameter  2 _d         =  1.240000e+00 : d parameter         
    Parameter  3 _k1        =  6.500000e-02 : k1 parameter        
    Parameter  4 _eta       =  1.000000e-03 : eta parameter       
    Parameter  5 _dp2       =  3.610000e-01 : dp2 parameter       
  Functional kind                       .... Correlation
  Functional name                       .... Re-regularized SCAN correlation by Furness et al
  Functional family                     .... MGGA
  Functional refs                              
    [ 0] J. W. Furness, A. D. Kaplan, J. Ning, J. P. Perdew, and J. Sun.,  J. Phys. Chem. Lett. 11, 8208-8215 (2020), doi: 10.1021/acs.jpclett.0c02405
    [ 1] J. W. Furness, A. D. Kaplan, J. Ning, J. P. Perdew, and J. Sun.,  J. Phys. Chem. Lett. 11, 9248-9248 (2020), doi: 10.1021/acs.jpclett.0c03077
  Functional external parameters        .... 1
    Parameter  0 _eta       =  1.000000e-03 : Regularization parameter
 Gradients option       PostSCFGGA      .... off
 RI-approximation to the Coulomb term is turned on
   Number of AuxJ basis functions       .... 323


General Settings:
 Integral files         IntName         .... censo
 Hartree-Fock type      HFTyp           .... RHF
 Total Charge           Charge          ....    0
 Multiplicity           Mult            ....    1
 Number of Electrons    NEL             ....   84
 Basis Dimension        Dim             ....  295
 Nuclear Repulsion      ENuc            ....    520.7508499144 Eh

Convergence Acceleration:
 AO-DIIS                CNVDIIS         .... on
   Start iteration      DIISMaxIt       ....    12
   Startup error        DIISStart       ....  0.200000
   # of expansion vecs  DIISMaxEq       ....     5
   Bias factor          DIISBfac        ....   1.050
   Max. coefficient     DIISMaxC        ....  10.000
 MO-DIIS                CNVKDIIS        .... off
 Trust-Rad. Augm. Hess. CNVTRAH         .... auto
   Auto Start mean grad. ratio tolernc. ....  1.125000
   Auto Start start iteration           ....    50
   Auto Start num. interpolation iter.  ....    10
   Max. Number of Micro iterations      ....    24
   Max. Number of Macro iterations      .... Maxiter - #DIIS iter
   Number of Davidson start vectors     ....     2
   Converg. threshold    (grad. norm)   ....   5.000e-05
   Grad. Scal. Fac. for Micro threshold ....   0.100
   Minimum threshold for Micro iter.    ....   1.000e-02
   NR start threshold (gradient norm)   ....   1.000e-04
   Initial trust radius                 ....   0.400
   Minimum AH scaling param. (alpha)    ....   1.000
   Maximum AH scaling param. (alpha)    .... 1000.000
   Quad. conv. algorithm                .... NR
   White noise on init. David. guess    .... on
   Maximum white noise                  ....   0.010
   Pseudo random numbers                .... off
   Inactive MOs                         .... canonical
   Orbital update algorithm             .... Taylor
   Preconditioner                       .... Diag
   Full preconditioner red. dimension   ....   250
   COSX micro iterations for RIJONX calc.... off
 SOSCF                  CNVSOSCF        .... on
   Start iteration      SOSCFMaxIt      ....   150
   Startup grad/error   SOSCFStart      ....  0.003300
   Hessian update       SOSCFHessUp     .... L-BFGS
 Level Shifting         CNVShift        .... on
   Level shift para.    LevelShift      ....    0.2500
   Turn off err/grad.   ShiftErr        ....    0.0010
 Zerner damping         CNVZerner       .... off
 Static damping         CNVDamp         .... on
   Fraction old density DampFac         ....    0.7000
   Max. Damping (<1)    DampMax         ....    0.9800
   Min. Damping (>=0)   DampMin         ....    0.0000
   Turn off err/grad.   DampErr         ....    0.1000

SCF Procedure:
 Maximum # iterations   MaxIter         ....   125
 SCF integral mode      SCFMode         .... Direct
   Integral package                     .... SHARK and LIBINT hybrid scheme
 Reset frequency        DirectResetFreq ....    20
 Integral Threshold     Thresh          ....  1.000e-10 Eh
 Primitive CutOff       TCut            ....  1.000e-11 Eh

Convergence Tolerance:
 Convergence Check Mode ConvCheckMode   .... Total+1el-Energy
 Convergence forced     ConvForced      .... 0
 Energy Change          TolE            ....  1.000e-06 Eh
 1-El. energy change                    ....  1.000e-03 Eh
 Orbital Gradient       TolG            ....  5.000e-05
 Orbital Rotation angle TolX            ....  5.000e-05
 DIIS Error             TolErr          ....  1.000e-06

------------------------------
INITIAL GUESS: MODEL POTENTIAL
------------------------------
Loading Hartree-Fock densities                     ... done
Calculating cut-offs                               ... done
Initializing the effective Hamiltonian             ... done
Setting up the integral package (SHARK)            ... done
Starting the Coulomb interaction                   ... done (   0.3 sec)
Making the grid                                    ... done (   0.2 sec)
Mapping shells                                     ... done
Starting the XC term evaluation                    ... done (   0.4 sec)
  promolecular density results
     # of electrons  =     83.999177766
     EX              =   -129.602489883
     EC              =     -3.352397260
     EX+EC           =   -132.954887142
Transforming the Hamiltonian                       ... done (   0.0 sec)
Diagonalizing the Hamiltonian                      ... done (   0.0 sec)
Back transforming the eigenvectors                 ... done (   0.0 sec)
Now organizing SCF variables                       ... done
                      ------------------
                      INITIAL GUESS DONE (   1.0 sec)
                      ------------------
             **** ENERGY FILE WAS UPDATED (censo.en.tmp) ****
Finished Guess after   1.2 sec
Maximum memory used throughout the entire GUESS-calculation: 32.0 MB

-------------------------------------------------------------------------------------------
                                      ORCA LEAN-SCF
                              memory conserving SCF solver
-------------------------------------------------------------------------------------------

----------------------------------------D-I-I-S--------------------------------------------
Iteration    Energy (Eh)           Delta-E    RMSDP     MaxDP     DIISErr   Damp  Time(sec)
-------------------------------------------------------------------------------------------
               ***  Starting incremental Fock matrix formation  ***
    1    -2880.7891782821616289     0.00e+00  1.81e-03  9.72e-02  2.21e-01  0.700   3.8
    2    -2880.8736774397943918    -8.45e-02  1.46e-03  9.26e-02  9.50e-02  0.700   3.5
                               ***Turning on AO-DIIS***
    3    -2880.9048855038545298    -3.12e-02  6.33e-04  2.06e-02  2.89e-02  0.700   3.2
    4    -2880.9234577992851882    -1.86e-02  1.30e-03  4.18e-02  1.38e-02  0.000   3.1
    5    -2880.9652905377461138    -4.18e-02  3.61e-04  2.67e-02  8.96e-03  0.000   3.2
                              *** Initializing SOSCF ***
---------------------------------------S-O-S-C-F--------------------------------------
Iteration    Energy (Eh)           Delta-E    RMSDP     MaxDP     MaxGrad    Time(sec)
--------------------------------------------------------------------------------------
    6    -2880.9655751274713111    -2.85e-04  9.80e-05  4.86e-03  3.06e-03     3.0
               *** Restarting incremental Fock matrix formation ***
    7    -2880.9656031518820782    -2.80e-05  8.69e-05  5.64e-03  3.39e-04     3.6
    8    -2880.9655959520032411     7.20e-06  3.69e-05  2.67e-03  6.87e-04     2.7
    9    -2880.9656063612483194    -1.04e-05  1.20e-05  4.41e-04  1.03e-04     2.8
   10    -2880.9656056989729223     6.62e-07  7.13e-06  4.27e-04  2.24e-04     2.6
                 **** Energy Check signals convergence ****

               *****************************************************
               *                     SUCCESS                       *
               *           SCF CONVERGED AFTER  10 CYCLES          *
               *****************************************************

             **** ENERGY FILE WAS UPDATED (censo.en.tmp) ****

----------------
TOTAL SCF ENERGY
----------------

Total Energy       :      -2880.96560569897292 Eh          -78395.05966 eV

Components:
Nuclear Repulsion  :        520.75084991435608 Eh           14170.35103 eV
Electronic Energy  :      -3401.71645561332934 Eh          -92565.41069 eV
One Electron Energy:      -5033.09404888729478 Eh         -136957.45185 eV
Two Electron Energy:       1631.37759327396566 Eh           44392.04116 eV

Virial components:
Potential Energy   :      -5757.04683014378588 Eh         -156657.20855 eV
Kinetic Energy     :       2876.08122444481296 Eh           78262.14889 eV
Virial Ratio       :          2.00169827653428

DFT components:
N(Alpha)           :       42.000017524849 electrons
N(Beta)            :       42.000017524849 electrons
N(Total)           :       84.000035049699 electrons
E(X)               :     -130.883682100569 Eh       
E(C)               :       -3.326219851715 Eh       
E(XC)              :     -134.209901952284 Eh       

---------------
SCF CONVERGENCE
---------------

  Last Energy change         ...   -6.6228e-07  Tolerance :   1.0000e-06
  Last MAX-Density change    ...    4.2730e-04  Tolerance :   1.0000e-05
  Last RMS-Density change    ...    7.1330e-06  Tolerance :   1.0000e-06
  Last DIIS Error            ...    3.0623e-03  Tolerance :   1.0000e-06
  Last Orbital Gradient      ...    2.2393e-04  Tolerance :   5.0000e-05
  Last Orbital Rotation      ...    3.2690e-04  Tolerance :   5.0000e-05


----------------
ORBITAL ENERGIES
----------------

  NO   OCC          E(Eh)            E(eV) 
   0   2.0000    -482.224905    -13122.0068 
   1   2.0000     -62.295874     -1695.1569 
   2   2.0000     -56.077087     -1525.9351 
   3   2.0000     -56.073113     -1525.8270 
   4   2.0000     -56.073086     -1525.8262 
   5   2.0000     -18.998121      -516.9652 
   6   2.0000     -10.110840      -275.1299 
   7   2.0000     -10.095412      -274.7101 
   8   2.0000     -10.058590      -273.7082 
   9   2.0000     -10.056739      -273.6578 
  10   2.0000     -10.054308      -273.5916 
  11   2.0000     -10.048662      -273.4380 
  12   2.0000      -8.628898      -234.8042 
  13   2.0000      -6.435332      -175.1143 
  14   2.0000      -6.423304      -174.7870 
  15   2.0000      -6.423037      -174.7797 
  16   2.0000      -2.533027       -68.9272 
  17   2.0000      -2.530336       -68.8539 
  18   2.0000      -2.530150       -68.8489 
  19   2.0000      -2.520820       -68.5950 
  20   2.0000      -2.520819       -68.5950 
  21   2.0000      -1.036752       -28.2115 
  22   2.0000      -0.844458       -22.9789 
  23   2.0000      -0.767214       -20.8770 
  24   2.0000      -0.736547       -20.0425 
  25   2.0000      -0.691454       -18.8154 
  26   2.0000      -0.608641       -16.5620 
  27   2.0000      -0.579104       -15.7582 
  28   2.0000      -0.528864       -14.3911 
  29   2.0000      -0.469484       -12.7753 
  30   2.0000      -0.448252       -12.1976 
  31   2.0000      -0.424141       -11.5415 
  32   2.0000      -0.410950       -11.1825 
  33   2.0000      -0.395942       -10.7741 
  34   2.0000      -0.374054       -10.1785 
  35   2.0000      -0.345395        -9.3987 
  36   2.0000      -0.343232        -9.3398 
  37   2.0000      -0.328900        -8.9498 
  38   2.0000      -0.276603        -7.5267 
  39   2.0000      -0.265305        -7.2193 
  40   2.0000      -0.255582        -6.9548 
  41   2.0000      -0.210452        -5.7267 
  42   0.0000      -0.053195        -1.4475 
  43   0.0000      -0.034312        -0.9337 
  44   0.0000      -0.026591        -0.7236 
  45   0.0000       0.028262         0.7690 
  46   0.0000       0.065217         1.7746 
  47   0.0000       0.090888         2.4732 
  48   0.0000       0.106327         2.8933 
  49   0.0000       0.109063         2.9678 
  50   0.0000       0.126126         3.4320 
  51   0.0000       0.138535         3.7697 
  52   0.0000       0.146835         3.9956 
*Only the first 10 virtual orbitals were printed.

                    ********************************
                    * MULLIKEN POPULATION ANALYSIS *
                    ********************************

-----------------------
MULLIKEN ATOMIC CHARGES
-----------------------
   0 C :   -0.203841
   1 C :   -0.125216
   2 C :    0.080497
   3 C :   -0.155025
   4 C :   -0.200506
   5 C :    0.297552
   6 O :   -0.394609
   7 Br:   -0.106184
   8 H :    0.119512
   9 H :    0.133576
  10 H :    0.134356
  11 H :    0.104296
  12 H :    0.315592
Sum of atomic charges:    0.0000000

--------------------------------
MULLIKEN REDUCED ORBITAL CHARGES
--------------------------------
  0 C s       :     3.300425  s :     3.300425
      pz      :     1.007704  p :     2.825614
      px      :     0.890689
      py      :     0.927221
      dz2     :     0.003632  d :     0.068947
      dxz     :     0.018257
      dyz     :     0.009599
      dx2y2   :     0.017178
      dxy     :     0.020280
      f0      :     0.001825  f :     0.008855
      f+1     :     0.000724
      f-1     :     0.000697
      f+2     :     0.000964
      f-2     :     0.000497
      f+3     :     0.001746
      f-3     :     0.002403

  1 C s       :     3.203567  s :     3.203567
      pz      :     0.962741  p :     2.828789
      px      :     0.945023
      py      :     0.921025
      dz2     :     0.003448  d :     0.083993
      dxz     :     0.021048
      dyz     :     0.010428
      dx2y2   :     0.018445
      dxy     :     0.030625
      f0      :     0.001833  f :     0.008866
      f+1     :     0.000710
      f-1     :     0.000704
      f+2     :     0.001060
      f-2     :     0.000464
      f+3     :     0.001755
      f-3     :     0.002341

  2 C s       :     3.232633  s :     3.232633
      pz      :     1.012708  p :     2.524443
      px      :     0.703898
      py      :     0.807837
      dz2     :     0.006808  d :     0.151442
      dxz     :     0.023415
      dyz     :     0.025376
      dx2y2   :     0.052210
      dxy     :     0.043632
      f0      :     0.002008  f :     0.010985
      f+1     :     0.000943
      f-1     :     0.000624
      f+2     :     0.000821
      f-2     :     0.001201
      f+3     :     0.001925
      f-3     :     0.003463

  3 C s       :     3.206964  s :     3.206964
      pz      :     0.964768  p :     2.854650
      px      :     0.969569
      py      :     0.920313
      dz2     :     0.003380  d :     0.084453
      dxz     :     0.022131
      dyz     :     0.010418
      dx2y2   :     0.017600
      dxy     :     0.030925
      f0      :     0.001850  f :     0.008958
      f+1     :     0.000733
      f-1     :     0.000706
      f+2     :     0.001119
      f-2     :     0.000467
      f+3     :     0.001756
      f-3     :     0.002327

  4 C s       :     3.265074  s :     3.265074
      pz      :     1.041981  p :     2.859595
      px      :     0.914689
      py      :     0.902926
      dz2     :     0.005859  d :     0.067340
      dxz     :     0.017981
      dyz     :     0.008272
      dx2y2   :     0.017087
      dxy     :     0.018142
      f0      :     0.001788  f :     0.008496
      f+1     :     0.000646
      f-1     :     0.000669
      f+2     :     0.000975
      f-2     :     0.000394
      f+3     :     0.001770
      f-3     :     0.002255

  5 C s       :     3.018200  s :     3.018200
      pz      :     0.921641  p :     2.504250
      px      :     0.680088
      py      :     0.902520
      dz2     :     0.003529  d :     0.163123
      dxz     :     0.045536
      dyz     :     0.024757
      dx2y2   :     0.031228
      dxy     :     0.058073
      f0      :     0.002584  f :     0.016874
      f+1     :     0.001186
      f-1     :     0.000732
      f+2     :     0.002665
      f-2     :     0.001226
      f+3     :     0.002817
      f-3     :     0.005665

  6 O s       :     3.787059  s :     3.787059
      pz      :     1.815971  p :     4.573067
      px      :     1.319438
      py      :     1.437658
      dz2     :     0.004244  d :     0.032689
      dxz     :     0.005733
      dyz     :     0.001633
      dx2y2   :     0.012805
      dxy     :     0.008273
      f0      :     0.000236  f :     0.001794
      f+1     :     0.000346
      f-1     :     0.000299
      f+2     :     0.000130
      f-2     :     0.000021
      f+3     :     0.000496
      f-3     :     0.000266

  7 Brs       :     7.927620  s :     7.927620
      pz      :     5.940483  p :    17.118262
      px      :     5.203034
      py      :     5.974745
      dz2     :     2.005504  d :    10.053426
      dxz     :     2.021285
      dyz     :     2.000483
      dx2y2   :     2.016452
      dxy     :     2.009701
      f0      :     0.000824  f :     0.006877
      f+1     :     0.001253
      f-1     :     0.000097
      f+2     :     0.001199
      f-2     :     0.000040
      f+3     :     0.002153
      f-3     :     0.001311

  8 H s       :     0.856875  s :     0.856875
      pz      :     0.005728  p :     0.023613
      px      :     0.006717
      py      :     0.011167

  9 H s       :     0.842848  s :     0.842848
      pz      :     0.005422  p :     0.023576
      px      :     0.006778
      py      :     0.011376

 10 H s       :     0.842027  s :     0.842027
      pz      :     0.005462  p :     0.023618
      px      :     0.006826
      py      :     0.011330

 11 H s       :     0.871950  s :     0.871950
      pz      :     0.006036  p :     0.023753
      px      :     0.006340
      py      :     0.011376

 12 H s       :     0.637062  s :     0.637062
      pz      :     0.016814  p :     0.047347
      px      :     0.012223
      py      :     0.018310



                     *******************************
                     * LOEWDIN POPULATION ANALYSIS *
                     *******************************

----------------------
LOEWDIN ATOMIC CHARGES
----------------------
   0 C :   -0.111153
   1 C :   -0.138685
   2 C :   -0.378361
   3 C :   -0.142192
   4 C :   -0.138101
   5 C :   -0.266475
   6 O :    0.078966
   7 Br:    0.308088
   8 H :    0.152789
   9 H :    0.150901
  10 H :    0.150413
  11 H :    0.144416
  12 H :    0.189394

-------------------------------
LOEWDIN REDUCED ORBITAL CHARGES
-------------------------------
  0 C s       :     2.766792  s :     2.766792
      pz      :     0.911587  p :     2.934601
      px      :     1.031558
      py      :     0.991457
      dz2     :     0.026027  d :     0.366607
      dxz     :     0.060050
      dyz     :     0.027194
      dx2y2   :     0.107913
      dxy     :     0.145423
      f0      :     0.003401  f :     0.043154
      f+1     :     0.004229
      f-1     :     0.003693
      f+2     :     0.006260
      f-2     :     0.002971
      f+3     :     0.008487
      f-3     :     0.014113

  1 C s       :     2.770998  s :     2.770998
      pz      :     0.879784  p :     2.929932
      px      :     1.048622
      py      :     1.001526
      dz2     :     0.026347  d :     0.393292
      dxz     :     0.069598
      dyz     :     0.031925
      dx2y2   :     0.115454
      dxy     :     0.149968
      f0      :     0.003434  f :     0.044463
      f+1     :     0.004220
      f-1     :     0.003707
      f+2     :     0.007044
      f-2     :     0.003356
      f+3     :     0.008439
      f-3     :     0.014263

  2 C s       :     2.790664  s :     2.790664
      pz      :     0.939907  p :     2.978502
      px      :     0.939778
      py      :     1.098816
      dz2     :     0.038922  d :     0.554072
      dxz     :     0.068486
      dyz     :     0.081312
      dx2y2   :     0.210547
      dxy     :     0.154804
      f0      :     0.003921  f :     0.055124
      f+1     :     0.004111
      f-1     :     0.004698
      f+2     :     0.004372
      f-2     :     0.007545
      f+3     :     0.009680
      f-3     :     0.020797

  3 C s       :     2.770942  s :     2.770942
      pz      :     0.883477  p :     2.932539
      px      :     1.046424
      py      :     1.002638
      dz2     :     0.026378  d :     0.394150
      dxz     :     0.071738
      dyz     :     0.031857
      dx2y2   :     0.116412
      dxy     :     0.147765
      f0      :     0.003449  f :     0.044560
      f+1     :     0.004228
      f-1     :     0.003717
      f+2     :     0.007201
      f-2     :     0.003351
      f+3     :     0.008450
      f-3     :     0.014163

  4 C s       :     2.767363  s :     2.767363
      pz      :     0.934447  p :     2.953573
      px      :     1.033725
      py      :     0.985400
      dz2     :     0.027081  d :     0.373878
      dxz     :     0.062291
      dyz     :     0.027073
      dx2y2   :     0.108370
      dxy     :     0.149062
      f0      :     0.003350  f :     0.043287
      f+1     :     0.004272
      f-1     :     0.003745
      f+2     :     0.006410
      f-2     :     0.002982
      f+3     :     0.008349
      f-3     :     0.014180

  5 C s       :     2.724370  s :     2.724370
      pz      :     0.855429  p :     2.763748
      px      :     0.826013
      py      :     1.082306
      dz2     :     0.045468  d :     0.682492
      dxz     :     0.137912
      dyz     :     0.080650
      dx2y2   :     0.223136
      dxy     :     0.195325
      f0      :     0.006626  f :     0.095865
      f+1     :     0.009092
      f-1     :     0.004747
      f+2     :     0.017243
      f-2     :     0.007560
      f+3     :     0.016673
      f-3     :     0.033924

  6 O s       :     3.341208  s :     3.341208
      pz      :     1.706551  p :     4.504047
      px      :     1.363268
      py      :     1.434228
      dz2     :     0.008389  d :     0.071045
      dxz     :     0.014005
      dyz     :     0.000668
      dx2y2   :     0.025131
      dxy     :     0.022852
      f0      :     0.000399  f :     0.004733
      f+1     :     0.000683
      f-1     :     0.000417
      f+2     :     0.000571
      f-2     :     0.000013
      f+3     :     0.001280
      f-3     :     0.001371

  7 Brs       :     7.599548  s :     7.599548
      pz      :     5.879192  p :    16.960933
      px      :     5.198996
      py      :     5.882745
      dz2     :     2.014590  d :    10.117218
      dxz     :     2.037684
      dyz     :     2.000513
      dx2y2   :     2.041260
      dxy     :     2.023172
      f0      :     0.001507  f :     0.014214
      f+1     :     0.002626
      f-1     :     0.000193
      f+2     :     0.002329
      f-2     :     0.000023
      f+3     :     0.004651
      f-3     :     0.002884

  8 H s       :     0.785633  s :     0.785633
      pz      :     0.014888  p :     0.061578
      px      :     0.017250
      py      :     0.029441

  9 H s       :     0.787987  s :     0.787987
      pz      :     0.014056  p :     0.061111
      px      :     0.017129
      py      :     0.029926

 10 H s       :     0.788383  s :     0.788383
      pz      :     0.014201  p :     0.061204
      px      :     0.017165
      py      :     0.029838

 11 H s       :     0.794370  s :     0.794370
      pz      :     0.015720  p :     0.061213
      px      :     0.016416
      py      :     0.029078

 12 H s       :     0.658603  s :     0.658603
      pz      :     0.042487  p :     0.152003
      px      :     0.030351
      py      :     0.079165



                      *****************************
                      * MAYER POPULATION ANALYSIS *
                      *****************************

  NA   - Mulliken gross atomic population
  ZA   - Total nuclear charge
  QA   - Mulliken gross atomic charge
  VA   - Mayer's total valence
  BVA  - Mayer's bonded valence
  FA   - Mayer's free valence

  ATOM       NA         ZA         QA         VA         BVA        FA
  0 C      6.2038     6.0000    -0.2038     3.9045     3.9045     0.0000
  1 C      6.1252     6.0000    -0.1252     3.8208     3.8208     0.0000
  2 C      5.9195     6.0000     0.0805     3.8914     3.8914    -0.0000
  3 C      6.1550     6.0000    -0.1550     3.8615     3.8615    -0.0000
  4 C      6.2005     6.0000    -0.2005     3.8276     3.8276     0.0000
  5 C      5.7024     6.0000     0.2976     3.9122     3.9122     0.0000
  6 O      8.3946     8.0000    -0.3946     2.0868     2.0868    -0.0000
  7 Br    35.1062    35.0000    -0.1062     1.1739     1.1739    -0.0000
  8 H      0.8805     1.0000     0.1195     0.9875     0.9875     0.0000
  9 H      0.8664     1.0000     0.1336     0.9701     0.9701     0.0000
 10 H      0.8656     1.0000     0.1344     0.9722     0.9722    -0.0000
 11 H      0.8957     1.0000     0.1043     0.9834     0.9834     0.0000
 12 H      0.6844     1.0000     0.3156     0.9184     0.9184     0.0000

  Mayer bond orders larger than 0.100000
B(  0-C ,  1-C ) :   1.3860 B(  0-C ,  5-C ) :   1.3632 B(  0-C ,  8-H ) :   0.9763 
B(  1-C ,  2-C ) :   1.3418 B(  1-C ,  9-H ) :   0.9699 B(  2-C ,  3-C ) :   1.3653 
B(  2-C ,  7-Br) :   1.0279 B(  3-C ,  4-C ) :   1.3723 B(  3-C , 10-H ) :   0.9553 
B(  4-C ,  5-C ) :   1.3257 B(  4-C , 11-H ) :   0.9601 B(  5-C ,  6-O ) :   1.1143 
B(  6-O , 12-H ) :   0.8839 

-------
TIMINGS
-------

Total SCF time: 0 days 0 hours 0 min 31 sec 

Total time                  ....      31.812 sec
Sum of individual times     ....      31.246 sec  ( 98.2%)

SCF preparation             ....       0.231 sec  (  0.7%)
Fock matrix formation       ....      29.788 sec  ( 93.6%)
  Startup                   ....       0.069 sec  (  0.2% of F)
  Split-RI-J                ....       3.992 sec  ( 13.4% of F)
  XC integration            ....      25.106 sec  ( 84.3% of F)
    XC Preparation          ....       0.000 sec  (  0.0% of XC)
    Basis function eval.    ....       3.583 sec  ( 14.3% of XC)
    Density eval.           ....       7.394 sec  ( 29.5% of XC)
    XC-Functional eval.     ....       1.999 sec  (  8.0% of XC)
    XC-Potential eval.      ....      11.190 sec  ( 44.6% of XC)
Diagonalization             ....       0.000 sec  (  0.0%)
Density matrix formation    ....       0.289 sec  (  0.9%)
Total Energy calculation    ....       0.042 sec  (  0.1%)
Population analysis         ....       0.044 sec  (  0.1%)
Orbital Transformation      ....       0.091 sec  (  0.3%)
Orbital Orthonormalization  ....       0.000 sec  (  0.0%)
DIIS solution               ....       0.480 sec  (  1.5%)
SOSCF solution              ....       0.283 sec  (  0.9%)
Finished LeanSCF after  31.9 sec

Maximum memory used throughout the entire LEANSCF-calculation: 34.3 MB

------------------------------------------------------------------------------
                         ORCA PROPERTY INTEGRAL CALCULATIONS
------------------------------------------------------------------------------

GBWName                                   ... censo.gbw
Number of atoms                           ...     13
Number of basis functions                 ...    295
Max core memory                           ...   1024 MB

Dipole integrals                          ... YES
Quadrupole integrals                      ...  NO
Linear momentum integrals                 ...  NO
Angular momentum integrals                ...  NO
Higher moments length integrals           ...  NO
Higher moments velocity integrals         ...  NO
Kinetic energy integrals                  ...  NO
GIAO right hand sides                     ...  NO
GIAO dipole derivative integrals          ...  NO
SOC integrals                             ...  NO
EPR diamagnetic integrals (GIAO)          ...  NO
EPR gauge integrals                       ...  NO
Field gradient integrals                  ...  NO (   0 nuclei)
Spin-dipole/Fermi contact integrals       ...  NO (   0 nuclei)
Contact density integrals                 ...  NO (   0 nuclei)
Nucleus-orbit integrals                   ...  NO (   0 nuclei)
Geometric perturbations                   ... YES (  13 nuclei)

Choice of electric origin   ... Center of mass
Position of electric origin ... (  0.0028, -0.0009,  0.0004) 
Choice of magnetic origin   ... GIAO
Position of magnetic origin ... (  0.0000,  0.0000,  0.0000) 

Calculating integrals                     ... Electric Dipole (Length)     done (  0.0 sec)
Calculating integrals                     ... Geometrical perturbation right hand sides

-----------------------
GEOMETRIC PERTURBATIONS (13 nuclei)
-----------------------

MaxCore                            ...   1024 MB
Number of batches                  ...      1

BATCH   0: Atoms    0 -   12 ( 39 perturbations)
   => H(core) and overlap derivative integrals     ... done (     0.4 sec)
   => Making and storing internal U-coefficients   ... done (     0.4 sec)
   => RI-J derivative integrals                    ... done (     5.0 sec)
   => RI-J response operators                      ... done (     1.2 sec)
   => XC derivative integrals                      ... done (   227.1 sec)
   => XC response operators                        ... done (    67.1 sec)
   => Completing and storing right hand sides      ... done (     0.2 sec)
   => Total time for right hand sides = 303.7 sec

  geometrical perturbations done (303.8 sec)

Property integrals calculated in 303.8 sec

Maximum memory used throughout the entire PROPINT-calculation: 135.2 MB


-------------------------------------------------------------------------------
                          DFT DISPERSION CORRECTION                            
                                                                               
                                DFTD4 V3.4.0                                   
-------------------------------------------------------------------------------
The R2SCAN3C composite method is recognized
Using three-body term ABC
Active option DFTDOPT                   ...         5   

-------------------------   ----------------
Dispersion correction           -0.004563358
-------------------------   ----------------

------------------   -----------------
gCP correction             0.004013010
------------------   -----------------

-------------------------   --------------------
FINAL SINGLE POINT ENERGY     -2880.966156046582
-------------------------   --------------------

------------------------------------------------------------------------------
                            ORCA SCF RESPONSE CALCULATION
------------------------------------------------------------------------------

GBWName                                 ... censo.gbw
Number of atoms                         ...     13
Number of basis functions               ...    295
Max core memory                         ...   1024 MB

Electric field perturbation             ...  NO
Quadrupolar field perturbation          ...  NO
Magnetic field perturbation (no GIAO)   ...  NO
Magnetic field perturbation (with GIAO) ...  NO
Linear momentum (velocity) perturbation ...  NO
Spin-orbit coupling perturbation        ...  NO
Choice of electric origin               ... Center of mass
Position of electric origin             ...     0.002816    -0.000911     0.000371
Choice of magnetic origin               ... GIAO
Position of magnetic origin             ...     0.000000     0.000000     0.000000
Nuclear geometric perturbations         ... YES (  39 perturbations)
Nucleus-orbit perturbations             ...  NO (   0 perturbations)
Spin-dipole/Fermi contact perturbations ...  NO (   0 perturbations)

Total number of real perturbations      ...     39
Total number of imaginary perturbations ...      0
Total number of triplet perturbations   ...      0
Total number of SOC perturbations       ...      0


                                **********************
                                * REAL PERTURBATIONS *
                                **********************



-------------------
SHARK CP-SCF DRIVER
-------------------

Dimension of the orbital basis          ...    295
Dimension of the CPSCF-problem          ...  10626
Number of operators                     ...      1
Max. number of iterations               ...    128
Convergence Tolerance                   ... 1.0e-03
Number of perturbations                 ...     39
Perturbation type                       ... REAL

----------------------------
POPLE LINEAR EQUATION SOLVER
----------------------------

  ITERATION   0:   ||err||_max =   4.5667e-01 (  22.0 sec   0/ 39 done)
  ITERATION   1:   ||err||_max =   5.2131e-02 (  23.3 sec   0/ 39 done)
  ITERATION   2:   ||err||_max =   1.9921e-02 (  23.9 sec  12/ 39 done)
  ITERATION   3:   ||err||_max =   4.1642e-03 (  18.0 sec  14/ 39 done)
  ITERATION   4:   ||err||_max =   1.7345e-03 (  16.7 sec  27/ 39 done)
  ITERATION   5:   ||err||_max =   6.4797e-04 (   8.7 sec  39/ 39 done)

CP-SCF equations solved in 114.4 sec
Response densities calculated in   0.2 sec

Maximum memory used throughout the entire SCFRESP-calculation: 93.0 MB

------------------------------------------------------------------------------
                              ORCA PROPERTY CALCULATIONS
------------------------------------------------------------------------------

GBWName                                 ... censo.gbw
Number of atoms                         ...     13
Number of basis functions               ...    295
Max core memory                         ...   1024 MB

Electric properties:
Dipole moment                           ... YES
Quadrupole moment                       ...  NO
Static polarizability (Dipole/Dipole)   ...  NO
Static polarizability (Dipole/Quad.)    ...  NO
Static polarizability (Quad./Quad.)     ...  NO
Static polarizability (Velocity)        ...  NO

Atomic electric properties:
Dipole moment                           ...  NO
Quadrupole moment                       ...  NO
Static polarizability                   ...  NO

Choice of electric origin               ... Center of mass
Position of electric origin             ...     0.002816    -0.000911     0.000371

General magnetic properties:
Magnetizability                         ...  NO

EPR properties:
g-Tensor (aka g-matrix)                 ...  NO
Zero-Field splitting spin-orbit         ...  NO
Zero-field splitting spin-spin          ...  NO
Hyperfine couplings                     ...  NO (   0 nuclei)
Quadrupole couplings                    ...  NO (   0 nuclei)
Contact density                         ...  NO (   0 nuclei)

NMR properties:
Chemical shifts                         ...  NO (   0 nuclei)
Spin-rotation constants                 ...  NO (   0 nuclei)
Spin-spin couplings                     ...  NO (   0 nuclei,    0 pairs)

Choice of magnetic origin               ... GIAO
Position of magnetic origin             ...     0.000000     0.000000     0.000000

Properties with geometric perturbations:
SCF Hessian                             ... YES
IR spectrum                             ... YES
VCD spectrum                            ...  NO
X-ray spectroscopy properties:
SCF XES/XAS/RIXS spectra                ...  NO


-------------
DIPOLE MOMENT
-------------

Method             : SCF
Type of density    : Electron Density
Multiplicity       :   1
Irrep              :   0
Energy             : -2880.9656056989729223 Eh
Relativity type    : 
Basis              : AO
                                X                 Y                 Z
Electronic contribution:     27.043820021      -0.277187788       0.002652083
Nuclear contribution   :    -27.864856671       0.793656093      -0.002723587
                        -----------------------------------------
Total Dipole Moment    :     -0.821036651       0.516468305      -0.000071504
                        -----------------------------------------
Magnitude (a.u.)       :      0.969969431
Magnitude (Debye)      :      2.465466360



--------------------
Rotational spectrum 
--------------------
 
Rotational constants in cm-1:             0.187641             0.020927             0.018828 
Rotational constants in MHz :          5625.333262           627.388300           564.437139 

Dipole components along the rotational axes: 
x,y,z [a.u.] :     0.821083     0.516395     0.000017 
x,y,z [Debye]:     2.087026     1.312572     0.000044 

 

Dipole moment calculation done in   0.0 sec 

-----------
SCF HESSIAN
-----------

Occupied/Occupied contributions to the Hessian:
   => Occupied/Occupied contributions              ... done (  0.0 sec)
Perturbed density contributions to the Hessian:
   => Perturbed density contributions              ... done (  0.0 sec)
Explicit contributions to the Hessian:
   => Nuclear repulsion Hessian                    ... done (  0.0 sec)
   => HCore and overlap Hessian                    ... done ( 10.7 sec)
   => RI-J Hessian                                 ... done ( 12.8 sec)
   => XC-Hessian                                   ... done ( 67.7 sec)
   => Van der Waals-Hessian                        ... done (  2.3 sec)
   => GCP-Hessian                                  ... done (  0.1 sec)
   => Explicit contributions done
Dipole derivatives                                 ... done (  0.1 sec)
Mass weighting the Hessian           ... done
Calculating normal modes             ... done
Scaling frequencies                  ... done

-----------------------
VIBRATIONAL FREQUENCIES
-----------------------

Scaling factor for frequencies =  1.000000000  (already applied!)

     0:       0.00 cm**-1
     1:       0.00 cm**-1
     2:       0.00 cm**-1
     3:       0.00 cm**-1
     4:       0.00 cm**-1
     5:       0.00 cm**-1
     6:     120.36 cm**-1
     7:     224.24 cm**-1
     8:     286.90 cm**-1
     9:     316.84 cm**-1
    10:     418.60 cm**-1
    11:     429.55 cm**-1
    12:     430.81 cm**-1
    13:     507.10 cm**-1
    14:     605.73 cm**-1
    15:     647.03 cm**-1
    16:     703.96 cm**-1
    17:     796.75 cm**-1
    18:     828.34 cm**-1
    19:     828.56 cm**-1
    20:     912.98 cm**-1
    21:     944.18 cm**-1
    22:    1024.14 cm**-1
    23:    1072.87 cm**-1
    24:    1121.89 cm**-1
    25:    1189.00 cm**-1
    26:    1201.56 cm**-1
    27:    1264.90 cm**-1
    28:    1318.84 cm**-1
    29:    1363.85 cm**-1
    30:    1453.74 cm**-1
    31:    1508.71 cm**-1
    32:    1617.71 cm**-1
    33:    1632.86 cm**-1
    34:    3158.85 cm**-1
    35:    3180.88 cm**-1
    36:    3193.24 cm**-1
    37:    3196.73 cm**-1
    38:    3757.45 cm**-1


------------
NORMAL MODES
------------

These modes are the Cartesian displacements weighted by the diagonal matrix
M(i,i)=1/sqrt(m[i]) where m[i] is the mass of the displaced atom
Thus, these vectors are normalized but *not* orthogonal

                  0          1          2          3          4          5    
      0       0.000000   0.000000   0.000000   0.000000   0.000000   0.000000
      1       0.000000   0.000000   0.000000   0.000000   0.000000   0.000000
      2       0.000000   0.000000   0.000000   0.000000   0.000000   0.000000
      3       0.000000   0.000000   0.000000   0.000000   0.000000   0.000000
      4       0.000000   0.000000   0.000000   0.000000   0.000000   0.000000
      5       0.000000   0.000000   0.000000   0.000000   0.000000   0.000000
      6       0.000000   0.000000   0.000000   0.000000   0.000000   0.000000
      7       0.000000   0.000000   0.000000   0.000000   0.000000   0.000000
      8       0.000000   0.000000   0.000000   0.000000   0.000000   0.000000
      9       0.000000   0.000000   0.000000   0.000000   0.000000   0.000000
     10       0.000000   0.000000   0.000000   0.000000   0.000000   0.000000
     11       0.000000   0.000000   0.000000   0.000000   0.000000   0.000000
     12       0.000000   0.000000   0.000000   0.000000   0.000000   0.000000
     13       0.000000   0.000000   0.000000   0.000000   0.000000   0.000000
     14       0.000000   0.000000   0.000000   0.000000   0.000000   0.000000
     15       0.000000   0.000000   0.000000   0.000000   0.000000   0.000000
     16       0.000000   0.000000   0.000000   0.000000   0.000000   0.000000
     17       0.000000   0.000000   0.000000   0.000000   0.000000   0.000000
     18       0.000000   0.000000   0.000000   0.000000   0.000000   0.000000
     19       0.000000   0.000000   0.000000   0.000000   0.000000   0.000000
     20       0.000000   0.000000   0.000000   0.000000   0.000000   0.000000
     21       0.000000   0.000000   0.000000   0.000000   0.000000   0.000000
     22       0.000000   0.000000   0.000000   0.000000   0.000000   0.000000
     23       0.000000   0.000000   0.000000   0.000000   0.000000   0.000000
     24       0.000000   0.000000   0.000000   0.000000   0.000000   0.000000
     25       0.000000   0.000000   0.000000   0.000000   0.000000   0.000000
     26       0.000000   0.000000   0.000000   0.000000   0.000000   0.000000
     27       0.000000   0.000000   0.000000   0.000000   0.000000   0.000000
     28       0.000000   0.000000   0.000000   0.000000   0.000000   0.000000
     29       0.000000   0.000000   0.000000   0.000000   0.000000   0.000000
     30       0.000000   0.000000   0.000000   0.000000   0.000000   0.000000
     31       0.000000   0.000000   0.000000   0.000000   0.000000   0.000000
     32       0.000000   0.000000   0.000000   0.000000   0.000000   0.000000
     33       0.000000   0.000000   0.000000   0.000000   0.000000   0.000000
     34       0.000000   0.000000   0.000000   0.000000   0.000000   0.000000
     35       0.000000   0.000000   0.000000   0.000000   0.000000   0.000000
     36       0.000000   0.000000   0.000000   0.000000   0.000000   0.000000
     37       0.000000   0.000000   0.000000   0.000000   0.000000   0.000000
     38       0.000000   0.000000   0.000000   0.000000   0.000000   0.000000
                  6          7          8          9         10         11    
      0      -0.000015   0.137030  -0.253496   0.000034  -0.000016   0.000015
      1       0.000002   0.095662   0.051386  -0.000007   0.000005  -0.000055
      2       0.162141   0.000015  -0.000048  -0.280057   0.182102   0.048429
      3      -0.000027   0.110432  -0.207179  -0.000004   0.000014   0.000033
      4       0.000006   0.271117   0.055552   0.000002  -0.000004   0.000022
      5       0.305302   0.000009  -0.000011   0.140076  -0.165303  -0.065593
      6      -0.000026  -0.000267  -0.059298  -0.000035   0.000000   0.000001
      7       0.000005   0.321912   0.003710   0.000009  -0.000001   0.000037
      8       0.277694  -0.000006   0.000026   0.412430  -0.002894  -0.001224
      9      -0.000027  -0.108571  -0.211264  -0.000005  -0.000013  -0.000033
     10       0.000004   0.272632  -0.049197   0.000005   0.000002   0.000022
     11       0.304063  -0.000019  -0.000009   0.147776   0.166162   0.066651
     12      -0.000015  -0.134899  -0.257176   0.000034   0.000016  -0.000013
     13       0.000004   0.097664  -0.050286  -0.000006  -0.000002  -0.000059
     14       0.165141  -0.000018  -0.000048  -0.286590  -0.176167  -0.054133
     15      -0.000001   0.003082  -0.356789   0.000032  -0.000001  -0.000002
     16      -0.000000   0.008734  -0.001431  -0.000006   0.000002  -0.000060
     17      -0.022086   0.000001  -0.000050  -0.217959   0.013350  -0.011666
     18       0.000036   0.012661  -0.388162  -0.000008   0.000005  -0.000014
     19      -0.000008  -0.252236  -0.001478   0.000006  -0.000002   0.000084
     20      -0.405214   0.000005  -0.000020   0.228848  -0.048228   0.071695
     21       0.000010  -0.001371   0.297060  -0.000008  -0.000000   0.000000
     22      -0.000002  -0.115326  -0.001252  -0.000001   0.000000  -0.000004
     23      -0.103751   0.000002   0.000027  -0.030271   0.000061  -0.000160
     24      -0.000011   0.243567  -0.170555   0.000044  -0.000033   0.000068
     25       0.000001   0.033827   0.000495  -0.000008   0.000009  -0.000087
     26       0.107191   0.000029  -0.000047  -0.415079   0.363901   0.073770
     27      -0.000033   0.228122  -0.307007  -0.000004   0.000030   0.000085
     28       0.000008   0.340123  -0.003877   0.000003  -0.000009   0.000045
     29       0.353378   0.000020  -0.000016   0.163421  -0.344472  -0.154783
     30      -0.000032  -0.224365  -0.314747  -0.000005  -0.000027  -0.000088
     31       0.000004   0.340399   0.012382   0.000005   0.000004   0.000049
     32       0.349338  -0.000035  -0.000017   0.159697   0.337646   0.162223
     33      -0.000011  -0.248435  -0.183018   0.000046   0.000037  -0.000059
     34       0.000004   0.031796  -0.005609  -0.000011  -0.000006  -0.000083
     35       0.123372  -0.000030  -0.000053  -0.451014  -0.397814  -0.036477
     36       0.000038  -0.172288  -0.381453  -0.000007  -0.000062   0.000207
     37      -0.000009  -0.323888   0.003299   0.000008  -0.000005   0.000133
     38      -0.484341  -0.000008   0.000007   0.314912   0.595829  -0.961070
                 12         13         14         15         16         17    
      0       0.060078   0.000000  -0.152896   0.291179  -0.000012   0.000004
      1      -0.183880   0.000001  -0.176840   0.179421  -0.000002  -0.000001
      2      -0.000033  -0.005452  -0.000011   0.000026   0.143186  -0.029805
      3       0.090557   0.000007  -0.197813   0.302959   0.000017   0.000005
      4       0.075713  -0.000001  -0.144734  -0.215430  -0.000005  -0.000002
      5       0.000068  -0.094957  -0.000018   0.000030  -0.178942  -0.041835
      6       0.003949  -0.000020  -0.345487  -0.004191  -0.000026   0.000001
      7       0.122523   0.000004   0.005731  -0.110892   0.000006  -0.000001
      8      -0.000003   0.213254  -0.000028   0.000006   0.267971  -0.023865
      9      -0.088258   0.000009  -0.193249  -0.309741   0.000020  -0.000008
     10       0.070644  -0.000001   0.151052  -0.215182  -0.000000   0.000000
     11      -0.000071  -0.096689  -0.000021  -0.000027  -0.181178   0.074468
     12      -0.056211   0.000000  -0.149142  -0.295350  -0.000008  -0.000013
     13      -0.192659  -0.000002   0.157558   0.179759   0.000004   0.000006
     14       0.000049   0.002385  -0.000019  -0.000032   0.128112   0.127125
     15      -0.007954  -0.000022   0.206331  -0.000200   0.000022   0.000006
     16      -0.199950   0.000004  -0.004550   0.105478  -0.000005  -0.000001
     17       0.000015   0.253940   0.000017  -0.000002  -0.261967  -0.071604
     18      -0.021861   0.000006   0.373430   0.003824  -0.000007  -0.000001
     19       0.278506  -0.000001   0.009398   0.104572   0.000000   0.000000
     20      -0.000078  -0.064499   0.000033  -0.000002   0.020198   0.017685
     21      -0.001182   0.000000   0.058144   0.000571   0.000000   0.000000
     22      -0.011825   0.000000   0.000057  -0.010218  -0.000000  -0.000000
     23       0.000000  -0.003111   0.000006   0.000000  -0.001536   0.000723
     24       0.243698   0.000036  -0.425757   0.197261  -0.000047  -0.000027
     25      -0.291707  -0.000007  -0.013681   0.232122   0.000005   0.000006
     26      -0.000031  -0.411911  -0.000026   0.000001   0.550875   0.317910
     27       0.235970   0.000044  -0.048230   0.213064   0.000026  -0.000022
     28       0.158590  -0.000014  -0.057404  -0.267711  -0.000005   0.000006
     29       0.000166  -0.499694   0.000001   0.000014  -0.242905   0.235287
     30      -0.239478   0.000045  -0.057671  -0.220708   0.000022   0.000048
     31       0.156634  -0.000005   0.071694  -0.267039  -0.000001  -0.000008
     32      -0.000178  -0.496633   0.000002  -0.000012  -0.192711  -0.514988
     33      -0.207533   0.000036  -0.413501  -0.196593  -0.000048   0.000063
     34      -0.276542  -0.000012   0.002296   0.234805   0.000015  -0.000013
     35       0.000012  -0.425562  -0.000024  -0.000004   0.592790  -0.738691
     36       0.382269   0.000011   0.326099   0.083834  -0.000009   0.000005
     37       0.435269  -0.000001  -0.016218   0.133627   0.000001  -0.000000
     38       0.000959  -0.142665   0.000027   0.000014   0.079934  -0.048391
                 18         19         20         21         22         23    
      0      -0.068439   0.000063   0.000000   0.000011   0.085323   0.090521
      1       0.222243  -0.000169   0.000001  -0.000005   0.290039   0.039337
      2      -0.000370  -0.122394   0.009060  -0.110690   0.000002   0.000006
      3      -0.158216   0.000131   0.000001  -0.000012   0.031923  -0.025804
      4       0.281032  -0.000220  -0.000000   0.000003  -0.163824   0.139763
      5      -0.000313  -0.098580  -0.011211   0.119585   0.000010  -0.000005
      6       0.191231  -0.000151  -0.000003   0.000002  -0.199769  -0.311805
      7      -0.000037   0.000001   0.000001  -0.000001   0.000043  -0.007381
      8       0.000208   0.063255   0.023793  -0.012685  -0.000021  -0.000028
      9      -0.151293   0.000117   0.000013   0.000003   0.028858  -0.015004
     10      -0.279873   0.000215  -0.000002  -0.000001   0.164823  -0.131720
     11      -0.000062  -0.016951  -0.128633  -0.022887   0.000001   0.000001
     12      -0.066312   0.000056  -0.000009  -0.000003   0.087847   0.084335
     13      -0.223898   0.000168   0.000001   0.000003  -0.290302  -0.026407
     14      -0.000160  -0.054836   0.089737   0.015034   0.000015   0.000007
     15      -0.023566   0.000007   0.000000  -0.000001  -0.013627  -0.006153
     16       0.002023   0.000001  -0.000000   0.000001  -0.000966  -0.005433
     17       0.000408   0.141101  -0.007266   0.018969  -0.000006   0.000000
     18       0.289046  -0.000220  -0.000000  -0.000000  -0.001285  -0.011924
     19       0.000765  -0.000001   0.000000   0.000000  -0.002394  -0.003624
     20      -0.000051  -0.026160   0.005177  -0.005309   0.000000  -0.000001
     21      -0.007845   0.000006   0.000000  -0.000000   0.006272   0.011155
     22       0.000051  -0.000000  -0.000000   0.000000  -0.000016   0.000114
     23      -0.000006  -0.001779  -0.001047   0.000543   0.000001   0.000001
     24       0.021017  -0.000071   0.000008  -0.000049  -0.215221   0.459411
     25       0.183318  -0.000125  -0.000000   0.000007   0.473354  -0.166346
     26       0.001996   0.669029  -0.091077   0.653237  -0.000015   0.000043
     27      -0.466079   0.000294  -0.000012   0.000067  -0.172738   0.279470
     28       0.111487  -0.000069   0.000004  -0.000022  -0.274880   0.335547
     29       0.001896   0.660668   0.117261  -0.726844  -0.000035   0.000023
     30      -0.459102   0.000338  -0.000072  -0.000005  -0.184940   0.356146
     31      -0.110607   0.000088   0.000008  -0.000001   0.280523  -0.363600
     32       0.000379   0.143848   0.815631   0.110139  -0.000028   0.000036
     33       0.024795  -0.000035   0.000044   0.000005  -0.175809   0.374246
     34      -0.181466   0.000141  -0.000014   0.000002  -0.447427   0.132721
     35       0.000596   0.197235  -0.535796  -0.069451  -0.000007   0.000034
     36       0.209323  -0.000156   0.000002   0.000000   0.027019   0.027161
     37      -0.036667   0.000028  -0.000000   0.000000   0.009966   0.012977
     38      -0.000157  -0.061101  -0.013000  -0.013134  -0.000001   0.000005
                 24         25         26         27         28         29    
      0      -0.064666  -0.031550  -0.002963   0.092306   0.067969  -0.119981
      1      -0.039180   0.020342  -0.047031  -0.055447  -0.069203   0.034137
      2      -0.000006  -0.000003  -0.000000   0.000010   0.000007  -0.000011
      3       0.067511   0.030112   0.012401  -0.099137  -0.000469   0.190680
      4      -0.021667   0.047100  -0.038861   0.060016  -0.030327   0.110691
      5       0.000007   0.000002   0.000002  -0.000010   0.000001   0.000015
      6      -0.011908   0.009906  -0.004539  -0.018211  -0.004075  -0.005683
      7       0.050882  -0.002101   0.023115   0.012640   0.197151  -0.122070
      8      -0.000002   0.000001  -0.000001  -0.000002  -0.000004   0.000002
      9      -0.065305   0.037118   0.040799  -0.071147  -0.004544  -0.196835
     10      -0.047326  -0.038465  -0.010333  -0.095937  -0.036867   0.094582
     11      -0.000005   0.000004   0.000004  -0.000004   0.000000  -0.000020
     12       0.070348  -0.047067  -0.023672   0.079988  -0.054292   0.150874
     13      -0.039193  -0.014812  -0.057864  -0.002634  -0.063394   0.052017
     14       0.000008  -0.000004  -0.000001   0.000008  -0.000004   0.000012
     15       0.008069   0.038738  -0.082285   0.348162   0.006977   0.013511
     16       0.048276  -0.011180   0.114977   0.083114   0.017045  -0.166690
     17       0.000000   0.000003  -0.000010   0.000028   0.000001   0.000004
     18       0.002191  -0.021436   0.082381  -0.156529   0.001917   0.023563
     19       0.001146  -0.000410   0.054871   0.020520   0.015058   0.043645
     20       0.000000  -0.000002   0.000008  -0.000014   0.000000   0.000003
     21       0.000396  -0.000273  -0.000426   0.002016   0.000116   0.000116
     22      -0.001111   0.000069  -0.000121  -0.000013  -0.000981  -0.000867
     23       0.000000  -0.000000  -0.000000   0.000000   0.000000   0.000000
     24      -0.478699  -0.444370   0.266450   0.008742  -0.335165  -0.111836
     25       0.194698   0.261471  -0.210460   0.008520   0.159100   0.027611
     26      -0.000039  -0.000041   0.000026  -0.000004  -0.000032  -0.000006
     27       0.484677   0.349562   0.174547  -0.330407  -0.494992  -0.423903
     28       0.211403   0.231611   0.049035  -0.061622  -0.316549  -0.239369
     29       0.000033   0.000025   0.000017  -0.000026  -0.000037  -0.000036
     30      -0.403009   0.442797   0.047588  -0.454446   0.440676   0.328770
     31       0.137634  -0.270541  -0.014917   0.108618  -0.295836  -0.206361
     32      -0.000034   0.000042   0.000003  -0.000042   0.000042   0.000038
     33       0.435619  -0.460415  -0.260175  -0.396785   0.356649   0.041226
     34       0.161846  -0.252453  -0.198821  -0.304650   0.164920  -0.019409
     35       0.000030  -0.000033  -0.000017  -0.000031   0.000027   0.000002
     36      -0.152955   0.030383  -0.784149  -0.458029  -0.144603  -0.605524
     37      -0.061292   0.020425  -0.295524  -0.096371  -0.044490  -0.218255
     38      -0.000015   0.000002  -0.000076  -0.000042  -0.000013  -0.000061
                 30         31         32         33         34         35    
      0      -0.187371  -0.023159  -0.251532  -0.201896   0.000924   0.036136
      1       0.023030   0.086011  -0.013057   0.235484  -0.000070   0.065462
      2      -0.000017  -0.000002  -0.000021  -0.000021   0.000000   0.000002
      3       0.092096  -0.137060   0.290246   0.017233  -0.000507   0.018136
      4      -0.095648  -0.091468   0.145630  -0.144958   0.001313  -0.036768
      5       0.000010  -0.000010   0.000023   0.000005  -0.000000   0.000003
      6       0.023443   0.126897  -0.108552  -0.047432  -0.000363   0.001204
      7       0.166128  -0.033851  -0.140487   0.255353  -0.000448   0.000430
      8      -0.000001   0.000012  -0.000008  -0.000010  -0.000000   0.000000
      9      -0.120273  -0.123400   0.191251   0.200916  -0.006089   0.000912
     10      -0.052806   0.128247   0.037029  -0.187002  -0.015233   0.002374
     11      -0.000010  -0.000013   0.000017   0.000021  -0.000000  -0.000000
     12       0.143100  -0.070740  -0.321369  -0.081617  -0.041116  -0.001108
     13      -0.019314  -0.101220  -0.181706   0.138581   0.073256   0.000810
     14       0.000013  -0.000003  -0.000023  -0.000010  -0.000005  -0.000000
     15       0.012131   0.145074   0.217875   0.133877  -0.003643   0.002329
     16       0.143181  -0.012036   0.177623  -0.364001  -0.002119  -0.001995
     17      -0.000002   0.000011   0.000015   0.000017  -0.000000   0.000000
     18      -0.023722  -0.028701  -0.032776   0.003505   0.000413  -0.000192
     19      -0.059571   0.012211  -0.020385   0.055488   0.000393   0.000245
     20      -0.000002  -0.000003  -0.000003  -0.000000   0.000000   0.000000
     21      -0.000284  -0.000958  -0.000895  -0.000501  -0.000004  -0.000020
     22      -0.001749   0.000231   0.000432  -0.000804   0.000009   0.000011
     23      -0.000000  -0.000000  -0.000000  -0.000000  -0.000000   0.000000
     24       0.422408   0.327654   0.189244   0.364629  -0.002464  -0.433422
     25      -0.345720  -0.098611  -0.278041  -0.069920  -0.001334  -0.752736
     26       0.000043   0.000026   0.000020   0.000032  -0.000000  -0.000023
     27       0.011237   0.442355  -0.315958   0.175487   0.008503  -0.239138
     28      -0.166312   0.231177  -0.199104  -0.070455  -0.014961   0.424267
     29      -0.000001   0.000032  -0.000027   0.000013   0.000001  -0.000035
     30       0.188442   0.459950  -0.048946  -0.310498   0.101345  -0.014651
     31      -0.247750  -0.188579   0.186592   0.096036   0.183533  -0.026044
     32       0.000022   0.000042  -0.000010  -0.000030   0.000007  -0.000001
     33      -0.283000   0.450310   0.425817  -0.023812   0.482653   0.006761
     34      -0.278555   0.180002   0.235167   0.178457  -0.845780  -0.010601
     35      -0.000023   0.000032   0.000030  -0.000004   0.000061   0.000001
     36       0.499333  -0.167123   0.127506  -0.472903   0.008939  -0.001359
     37       0.161475  -0.046341   0.046388  -0.158180  -0.004031  -0.000835
     38       0.000048  -0.000017   0.000011  -0.000048   0.000001  -0.000000
                 36         37         38    
      0       0.003533  -0.023441   0.000395
      1       0.004663  -0.036634  -0.000709
      2       0.000000  -0.000001   0.000000
      3      -0.008506   0.037833  -0.000053
      4       0.013283  -0.065073   0.000136
      5      -0.000001   0.000006  -0.000000
      6       0.002242   0.003035   0.000040
      7      -0.003104   0.002019  -0.000019
      8       0.000000   0.000000  -0.000000
      9       0.041589   0.007346  -0.000147
     10       0.073016   0.014162   0.000112
     11       0.000003   0.000000  -0.000000
     12      -0.011496  -0.002542   0.001146
     13       0.015228   0.004443  -0.000909
     14      -0.000001  -0.000000   0.000000
     15      -0.000855  -0.002078  -0.000187
     16      -0.001448   0.001534   0.002536
     17       0.000000  -0.000000   0.000000
     18       0.000163   0.000279  -0.024453
     19       0.000261  -0.000159   0.057119
     20       0.000000   0.000000  -0.000002
     21      -0.000046  -0.000066   0.000010
     22      -0.000001  -0.000004  -0.000000
     23      -0.000000  -0.000000  -0.000000
     24      -0.032849   0.243311   0.000420
     25      -0.055186   0.416518  -0.000474
     26      -0.000002   0.000013   0.000000
     27       0.089433  -0.422727  -0.000211
     28      -0.155199   0.738437  -0.000343
     29       0.000013  -0.000062  -0.000000
     30      -0.474277  -0.088898   0.000628
     31      -0.831428  -0.156837   0.000272
     32      -0.000034  -0.000006  -0.000000
     33       0.101599   0.027168  -0.004641
     34      -0.171838  -0.047160   0.004439
     35       0.000013   0.000004  -0.000000
     36       0.001295   0.001790   0.376924
     37      -0.001497  -0.000244  -0.924130
     38       0.000000   0.000000   0.000035


-----------
IR SPECTRUM
-----------

 Mode   freq       eps      Int      T**2         TX        TY        TZ
       cm**-1   L/(mol*cm) km/mol    a.u.
----------------------------------------------------------------------------
  6:    120.36   0.000002    0.01  0.000005  (-0.000017 -0.000001 -0.002333)
  7:    224.24   0.000133    0.67  0.000185  (-0.013524  0.001322 -0.000001)
  8:    286.90   0.000249    1.26  0.000270  (-0.016402  0.001189 -0.000001)
  9:    316.84   0.000051    0.26  0.000051  ( 0.000012  0.000003 -0.007121)
 10:    418.60   0.003268   16.52  0.002436  (-0.000003  0.000014  0.049361)
 11:    429.55   0.015729   79.49  0.011427  ( 0.000015  0.000003 -0.106896)
 12:    430.81   0.001904    9.62  0.001379  ( 0.037040 -0.002667  0.000062)
 13:    507.10   0.004712   23.81  0.002900  ( 0.000005  0.000006 -0.053851)
 14:    605.73   0.006907   34.90  0.003558  (-0.059578 -0.002974 -0.000005)
 15:    647.03   0.000054    0.27  0.000026  ( 0.004964 -0.001079  0.000001)
 16:    703.96   0.000363    1.83  0.000161  (-0.000001 -0.000002  0.012686)
 17:    796.75   0.002878   14.55  0.001127  (-0.000007  0.000003 -0.033576)
 18:    828.34   0.000365    1.84  0.000137  (-0.011690  0.000893  0.000083)
 19:    828.56   0.008179   41.34  0.003081  ( 0.000031 -0.000004  0.055504)
 20:    912.98   0.000040    0.20  0.000014  (-0.000001  0.000004  0.003697)
 21:    944.18   0.000019    0.10  0.000006  (-0.000000  0.000006  0.002531)
 22:   1024.14   0.002745   13.87  0.000836  (-0.028909  0.000808 -0.000004)
 23:   1072.87   0.004720   23.85  0.001373  (-0.037043  0.000854 -0.000004)
 24:   1121.89   0.002979   15.05  0.000829  (-0.015999  0.023930 -0.000002)
 25:   1189.00   0.006081   30.73  0.001596  ( 0.039780 -0.003670  0.000004)
 26:   1201.56   0.038380  193.96  0.009968  (-0.099698 -0.005298 -0.000009)
 27:   1264.90   0.016498   83.37  0.004070  ( 0.063716 -0.003218  0.000006)
 28:   1318.84   0.001166    5.89  0.000276  (-0.012597 -0.010827 -0.000001)
 29:   1363.85   0.004708   23.79  0.001077  (-0.032752  0.002146 -0.000003)
 30:   1453.74   0.007632   38.57  0.001638  ( 0.039785 -0.007448  0.000004)
 31:   1508.71   0.022715  114.79  0.004698  ( 0.068495  0.002633  0.000006)
 32:   1617.71   0.006459   32.64  0.001246  ( 0.035204  0.002564  0.000003)
 33:   1632.86   0.000372    1.88  0.000071  ( 0.004115 -0.007363  0.000000)
 34:   3158.85   0.002458   12.42  0.000243  (-0.013434  0.007899 -0.000001)
 35:   3180.88   0.000432    2.18  0.000042  ( 0.006069  0.002354  0.000000)
 36:   3193.24   0.000278    1.40  0.000027  (-0.000932  0.005126 -0.000000)
 37:   3196.73   0.000187    0.94  0.000018  (-0.002487 -0.003470 -0.000000)
 38:   3757.45   0.012685   64.10  0.001053  ( 0.026673 -0.018494  0.000002)

* The epsilon (eps) is given for a Dirac delta lineshape.
** The dipole moment derivative (T) already includes vibrational overlap.

The first frequency considered to be a vibration is 6
The total number of vibrations considered is 33


--------------------------
THERMOCHEMISTRY AT 298.15K
--------------------------

Temperature         ...   298.15 K
Pressure            ...     1.00 atm
Total Mass          ...   173.00 AMU
Quasi RRHO          ...     True
Cut-Off Frequency   ...     1.00 cm^-1

Throughout the following assumptions are being made:
  (1) The electronic state is orbitally nondegenerate
  (2) There are no thermally accessible electronically excited states
  (3) Hindered rotations indicated by low frequency modes are not
      treated as such but are treated as vibrations and this may
      cause some error
  (4) All equations used are the standard statistical mechanics
      equations for an ideal gas
  (5) All vibrations are strictly harmonic

freq.     120.36  E(vib)   ...       0.44 
freq.     224.24  E(vib)   ...       0.33 
freq.     286.90  E(vib)   ...       0.27 
freq.     316.84  E(vib)   ...       0.25 
freq.     418.60  E(vib)   ...       0.18 
freq.     429.55  E(vib)   ...       0.18 
freq.     430.81  E(vib)   ...       0.18 
freq.     507.10  E(vib)   ...       0.14 
freq.     605.73  E(vib)   ...       0.10 
freq.     647.03  E(vib)   ...       0.09 
freq.     703.96  E(vib)   ...       0.07 
freq.     796.75  E(vib)   ...       0.05 
freq.     828.34  E(vib)   ...       0.04 
freq.     828.56  E(vib)   ...       0.04 
freq.     912.98  E(vib)   ...       0.03 
freq.     944.18  E(vib)   ...       0.03 
freq.    1024.14  E(vib)   ...       0.02 
freq.    1072.87  E(vib)   ...       0.02 
freq.    1121.89  E(vib)   ...       0.01 
freq.    1189.00  E(vib)   ...       0.01 
freq.    1201.56  E(vib)   ...       0.01 
freq.    1264.90  E(vib)   ...       0.01 
freq.    1318.84  E(vib)   ...       0.01 
freq.    1363.85  E(vib)   ...       0.01 
freq.    1453.74  E(vib)   ...       0.00 
freq.    1508.71  E(vib)   ...       0.00 
freq.    1617.71  E(vib)   ...       0.00 
freq.    1632.86  E(vib)   ...       0.00 
freq.    3158.85  E(vib)   ...       0.00 
freq.    3180.88  E(vib)   ...       0.00 
freq.    3193.24  E(vib)   ...       0.00 
freq.    3196.73  E(vib)   ...       0.00 
freq.    3757.45  E(vib)   ...       0.00 

------------
INNER ENERGY
------------

The inner energy is: U= E(el) + E(ZPE) + E(vib) + E(rot) + E(trans)
    E(el)   - is the total energy from the electronic structure calculation
              = E(kin-el) + E(nuc-el) + E(el-el) + E(nuc-nuc)
    E(ZPE)  - the the zero temperature vibrational energy from the frequency calculation
    E(vib)  - the the finite temperature correction to E(ZPE) due to population
              of excited vibrational states
    E(rot)  - is the rotational thermal energy
    E(trans)- is the translational thermal energy

Summary of contributions to the inner energy U:
Electronic energy                ...  -2880.96615605 Eh
Zero point energy                ...      0.09399530 Eh      58.98 kcal/mol
Thermal vibrational correction   ...      0.00401759 Eh       2.52 kcal/mol
Thermal rotational correction    ...      0.00141627 Eh       0.89 kcal/mol
Thermal translational correction ...      0.00141627 Eh       0.89 kcal/mol
-----------------------------------------------------------------------
Total thermal energy                  -2880.86531062 Eh


Summary of corrections to the electronic energy:
(perhaps to be used in another calculation)
Total thermal correction                  0.00685013 Eh       4.30 kcal/mol
Non-thermal (ZPE) correction              0.09399530 Eh      58.98 kcal/mol
-----------------------------------------------------------------------
Total correction                          0.10084543 Eh      63.28 kcal/mol


--------
ENTHALPY
--------

The enthalpy is H = U + kB*T
                kB is Boltzmann's constant
Total thermal energy              ...  -2880.86531062 Eh 
Thermal Enthalpy correction       ...      0.00094421 Eh       0.59 kcal/mol
-----------------------------------------------------------------------
Total Enthalpy                    ...  -2880.86436641 Eh


Note: Rotational entropy computed according to Herzberg 
Infrared and Raman Spectra, Chapter V,1, Van Nostrand Reinhold, 1945 
Point Group:  Cs, Symmetry Number:   1  
Rotational constants in cm-1:     0.187641     0.020927     0.018828 

Vibrational entropy computed according to the QRRHO of S. Grimme
Chem.Eur.J. 2012 18 9955 using a reference frequency of 100.0 cm-1


-------
ENTROPY
-------

The entropy contributions are T*S = T*(S(el)+S(vib)+S(rot)+S(trans))
     S(el)   - electronic entropy
     S(vib)  - vibrational entropy
     S(rot)  - rotational entropy
     S(trans)- translational entropy
The entropies will be listed as multiplied by the temperature to get
units of energy

Electronic entropy                ...      0.00000000 Eh      0.00 kcal/mol
Vibrational entropy               ...      0.00633631 Eh      3.98 kcal/mol
Rotational entropy                ...      0.01400150 Eh      8.79 kcal/mol
Translational entropy             ...      0.01964757 Eh     12.33 kcal/mol
-----------------------------------------------------------------------
Final entropy term                ...      0.03998538 Eh     25.09 kcal/mol

In case the symmetry of your molecule has not been determined correctly
or in case you have a reason to use a different symmetry number we print 
out the resulting rotational entropy values for sn=1,12:

 non-linear molecules -----------------------------------
|  sn= 1 | S(rot)=       0.01400150 Eh      8.79 kcal/mol|
|  sn= 2 | S(rot)=       0.01334704 Eh      8.38 kcal/mol|
|  sn= 3 | S(rot)=       0.01296421 Eh      8.14 kcal/mol|
|  sn= 4 | S(rot)=       0.01269259 Eh      7.96 kcal/mol|
|  sn= 5 | S(rot)=       0.01248190 Eh      7.83 kcal/mol|
|  sn= 6 | S(rot)=       0.01230976 Eh      7.72 kcal/mol|
|  sn= 7 | S(rot)=       0.01216421 Eh      7.63 kcal/mol|
|  sn= 8 | S(rot)=       0.01203813 Eh      7.55 kcal/mol|
|  sn= 9 | S(rot)=       0.01192692 Eh      7.48 kcal/mol|
|  sn=10 | S(rot)=       0.01182744 Eh      7.42 kcal/mol|
|  sn=11 | S(rot)=       0.01173745 Eh      7.37 kcal/mol|
|  sn=12 | S(rot)=       0.01165530 Eh      7.31 kcal/mol|
 linear molecules ---------------------------------------
|  Dinfh | S(rot)=       0.00907650 Eh      5.70 kcal/mol|
|  Cinfv | S(rot)=       0.00973096 Eh      6.11 kcal/mol|
 --------------------------------------------------------


-------------------
GIBBS FREE ENERGY
-------------------

The Gibbs free energy is G = H - T*S

Total enthalpy                    ...  -2880.86436641 Eh 
Total entropy correction          ...     -0.03998538 Eh    -25.09 kcal/mol
-----------------------------------------------------------------------
Final Gibbs free energy         ...  -2880.90435179 Eh

For completeness - the Gibbs free energy minus the electronic energy
G-E(el)                           ...      0.06180426 Eh     38.78 kcal/mol


Maximum memory used throughout the entire PROP-calculation: 60.2 MB

--------------------------------
SUGGESTED CITATIONS FOR THIS RUN
--------------------------------

Below you find a list of papers that are relevant to this ORCA run
We neither can nor want to force you to cite these papers, but we appreciate if you do
You receive ORCA, which is the product of decades of hard work by many enthusiastic individuals, for free
The only thing we kindly ask in return is that you cite our papers,
We deeply appreciate it, if you show your appreciation for ORCA by not just citing the generic ORCA reference.

Please note that relegating all ORCA citations to the supporting information does *not* help us.
SI sections are not indexed - citations you put there will not count into any citation statistics
But we need these citations in order to attract the funding resources that allow us to do what we are doing

Therefore, if you are a happy ORCA user, please consider citing a few of the papers listed below in the main body of your paper

In addition to the list printed below, the program has created the file censo.bibtex that contains the list in bibtex format
You can import this file easily into all common literature databanks and citation aid programs


List of essential papers. We consider these as the minimum necessary citations

  1. Neese,F.
     Software update: the ORCA program system, version 5.0
     WIRES Comput. Molec. Sci., 2022 12(1)e1606
     doi.org/10.1002/wcms.1606
  2. Grimme,S.; Hansen,A.; Ehlert,S.; Mewes,J.
     r2SCAN-3c: A 'Swiss army knife' composite electronic-structure method
     J. Chem. Phys., 2021 154 064103
     doi.org/10.1063/5.0040021

List of papers to cite with high priority. The work reported in these papers was absolutely
necessary for this run to complete.
Our perspective: the developers of density functionals and basis sets usually get cited in chemistry papers
Good! But without the algorithms to do something with them, the functionals or basis sets would not do anything.
Hence, in our opinion, the algorithm design and method developments papers are equally worthy of getting cited

  1. Neese,F.
     An improvement of the resolution of the identity approximation for the formation of the Coulomb matrix
     J. Comp. Chem., 2003 24(14)1740-1747
     doi.org/10.1002/jcc.10318
  2. Bykov,D.; Petrenko,T.; Izsak,R.; Kossmann,S.; Becker,U.; Valeev,E.; Neese,F.
     Efficient implementation of the analytic second derivatives of Hartree-Fock and hybrid DFT energies: a detailed analysis of different approximations
     Molec. Phys., 2015 113 1961-1977
     doi.org/10.1080/00268976.2015.1025114
  3. Neese,F.
     The SHARK Integral Generation and Digestion System
     J. Comp. Chem., 2022  1-16
     doi.org/10.1002/jcc.26942
  4. Lehtola,S.; Steigemann,C.; Oliveira,M.; Marques,M.
     Recent developments in Libxc - A comprehensive library of functionals for density functional theory
     Software X, 2018 7 
     doi.org/10.1016/j.softx.2017.11.002
  5. Caldeweyher,E.; Bannwarth,C.; Grimme,S.
     Extension of the D3 dispersion coefficient model
     J. Chem. Phys., 2017 147 034112-XXXX
     doi.org/10.1063/1.4993215
  6. Caldeweyher,E.; Ehlert,S.; Hansen,A.; Neugebauer,H.; Spicher,S.; Bannwarth,C.; Grimme,S.
     A generally applicable atomic-charge dependent London dispersion correction
     J. Chem. Phys., 2019 150 154122-XXXX
     doi.org/10.1063/1.5090222
  7. Caldeweyher,E.; Mewes,J.; Ehlert,S.; Grimme,S.
     Extension and evaluation of the D4 London-dispersion model for periodic systems
     Phys. Chem. Chem. Phys., 2020 22(16)8499-8512
     doi.org/10.1039/D0CP00502A

List of suggested additional citations. These are papers that are important in the 'surrounding' of 
of this run, or papers that preceded the highly important papers. If you like your results we are grateful for a citation.

  1. Neese,F.
     The ORCA program system
     WIRES Comput. Molec. Sci., 2012 2(1)73-78
     doi.org/10.1002/wcms.81
  2. Neese,F.
     Software update: the ORCA program system, version 4.0
     WIRES Comput. Molec. Sci., 2018 8(1)1-6
     doi.org/10.1002/wcms.1327
  3. Neese,F.; Wennmohs,F.; Becker,U.; Riplinger,C.
     The ORCA quantum chemistry program package
     J. Chem. Phys., 2020 152 Art. No. L224108
     doi.org/10.1063/5.0004608

List of optional additional citations

  1. Neese,F.
     Approximate second-order SCF convergence for spin unrestricted wavefunctions
     Chem. Phys. Lett., 2000 325(1-3)93-98
     doi.org/10.1016/s0009-2614(00)00662-x

Timings for individual modules:

Sum of individual times          ...      547.922 sec (=   9.132 min)
Startup calculation              ...        1.281 sec (=   0.021 min)   0.2 %
SCF iterations                   ...       33.193 sec (=   0.553 min)   6.1 %
Property integrals               ...      303.904 sec (=   5.065 min)  55.5 %
SCF Response                     ...      115.681 sec (=   1.928 min)  21.1 %
Property calculations            ...       93.865 sec (=   1.564 min)  17.1 %
                             ****ORCA TERMINATED NORMALLY****
TOTAL RUN TIME: 0 days 0 hours 9 minutes 8 seconds 748 msec
