
                                 *****************
                                 * O   R   C   A *
                                 *****************

                                            #,                                       
                                            ###                                      
                                            ####                                     
                                            #####                                    
                                            ######                                   
                                           ########,                                 
                                     ,,################,,,,,                         
                               ,,#################################,,                 
                          ,,##########################################,,             
                       ,#########################################, ''#####,          
                    ,#############################################,,   '####,        
                  ,##################################################,,,,####,       
                ,###########''''           ''''###############################       
              ,#####''   ,,,,##########,,,,          '''####'''          '####       
            ,##' ,,,,###########################,,,                        '##       
           ' ,,###''''                  '''############,,,                           
         ,,##''                                '''############,,,,        ,,,,,,###''
      ,#''                                            '''#######################'''  
     '                                                          ''''####''''         
             ,#######,   #######,   ,#######,      ##                                
            ,#'     '#,  ##    ##  ,#'     '#,    #''#        ,####,   ,####,        
            ##       ##  ##   ,#'  ##            #'  '#       #'       #'  '#        
            ##       ##  #######   ##           ,######,      #####,   #    #        
            '#,     ,#'  ##    ##  '#,     ,#' ,#      #,     #,   #   #,  ,#        
             '#######'   ##     ##  '#######'  #'      '#     '####' # '####'        



                #########################################################
                #                        -***-                          #
                #          Department of theory and spectroscopy        #
                #                                                       #
                #                      Frank Neese                      #
                #                                                       #
                #     Directorship, Architecture, Infrastructure        #
                #                    SHARK, DRIVERS                     #
                #        Core code/Algorithms in most modules           #
                #                                                       #
                #        Max Planck Institute fuer Kohlenforschung      #
                #                Kaiser Wilhelm Platz 1                 #
                #                 D-45470 Muelheim/Ruhr                 #
                #                      Germany                          #
                #                                                       #
                #                  All rights reserved                  #
                #                        -***-                          #
                #########################################################


                         Program Version 6.0.0  -   RELEASE  -


 With contributions from (in alphabetic order):
   Daniel Aravena         : Magnetic Suceptibility
   Michael Atanasov       : Ab Initio Ligand Field Theory (pilot matlab implementation)
   Alexander A. Auer      : GIAO ZORA, VPT2 properties, NMR spectrum
   Ute Becker             : All parallelization in ORCA, NUMFREQ, NUMCALC
   Giovanni Bistoni       : ED, misc. LED, open-shell LED, HFLD
   Martin Brehm           : Molecular dynamics
   Dmytro Bykov           : pre 5.0 version of the SCF Hessian
   Marcos Casanova-Páez   : Triplet and SCS-CIS(D). UHF-(DLPNO)-IP/EA/STEOM-CCSD. UHF-CVS-IP/STEOM-CCSD
   Vijay G. Chilkuri      : MRCI spin determinant printing, contributions to CSF-ICE
   Pauline Colinet        : FMM embedding
   Dipayan Datta          : RHF DLPNO-CCSD density
   Achintya Kumar Dutta   : EOM-CC, STEOM-CC
   Nicolas Foglia         : Exact transition moments, OPA infrastructure, MCD improvements
   Dmitry Ganyushin       : Spin-Orbit,Spin-Spin,Magnetic field MRCI
   Miquel Garcia          : C-PCM and meta-GGA Hessian, CCSD/C-PCM, Gaussian charge scheme
   Tiago L. C. Gouveia    : GS-ROHF, GS-ROCIS
   Yang Guo               : DLPNO-NEVPT2, F12-NEVPT2, CIM, IAO-localization
   Andreas Hansen         : Spin unrestricted coupled pair/coupled cluster methods
   Ingolf Harden          : AUTO-CI MPn and infrastructure 
   Benjamin Helmich-Paris : MC-RPA, TRAH-(SCF,CASSCF), AVAS, COSX integrals, SCF dyn. polar.
   Lee Huntington         : MR-EOM, pCC
   Robert Izsak           : Overlap fitted RIJCOSX, COSX-SCS-MP3, EOM
   Riya Kayal             : Wick's Theorem for AUTO-CI, AUTO-CI UHF-CCSDT
   Emily Kempfer          : AUTO-CI, RHF CISDT and CCSDT
   Christian Kollmar      : KDIIS, OOCD, Brueckner-CCSD(T), CCSD density, CASPT2, CASPT2-K, improved NEVPT2
   Axel Koslowski         : Symmetry handling
   Simone Kossmann        : Meta GGA functionals, TD-DFT gradient, OOMP2, (MP2 Hessian; deprecated post 5.0)
   Lucas Lang             : DCDCAS
   Marvin Lechner         : AUTO-CI (C++ implementation), FIC-MRCC
   Spencer Leger          : CASSCF response
   Dagmar Lenk            : GEPOL surface, SMD, ORCA-2-JSON
   Dimitrios Liakos       : Extrapolation schemes; Compound Job, initial MDCI parallelization
   Dimitrios Manganas     : Further ROCIS development; embedding schemes. LFT, Crystal Embedding
   Dimitrios Pantazis     : SARC Basis sets
   Anastasios Papadopoulos: AUTO-CI, single reference methods and gradients
   Taras Petrenko         : pre 6.0 DFT Hessian and TD-DFT gradient, (ASA, deprecated), ECA, 1-Electron XAS/XES, NRVS
   Peter Pinski           : DLPNO-MP2, DLPNO-MP2 Gradient
   Christoph Reimann      : Effective Core Potentials
   Marius Retegan         : Local ZFS, SOC
   Christoph Riplinger    : Optimizer, TS searches, QM/MM, DLPNO-CCSD(T), (RO)-DLPNO pert. Triples
   Michael Roemelt        : Original ROCIS implementation
   Masaaki Saitow         : Open-shell DLPNO-CCSD energy and density
   Barbara Sandhoefer     : DKH picture change effects
   Kantharuban Sivalingam : CASSCF convergence/infrastructure, NEVPT2 and variants, FIC-MRCI
   Bernardo de Souza      : ESD, SOC TD-DFT
   Georgi Stoychev        : AutoAux, RI-MP2 NMR, DLPNO-MP2 response, X2C
   Van Anh Tran           : RI-MP2 g-tensors
   Willem Van den Heuvel  : Paramagnetic NMR
   Zikuan Wang            : NOTCH, Electric field optimization 
   Frank Wennmohs         : Technical directorship and infrastructure
   Hang Xu                : AUTO-CI-Response properties 


 We gratefully acknowledge several colleagues who have allowed us to
 interface, adapt or use parts of their codes:
   Stefan Grimme, W. Hujo, H. Kruse, P. Pracht,  : VdW corrections, initial TS optimization,
                  C. Bannwarth, S. Ehlert,         DFT functionals, gCP, sTDA/sTD-DF
                  L. Wittmann, M. Mueller
   Ed Valeev, F. Pavosevic, A. Kumar             : LibInt (2-el integral package), F12 methods
   Garnet Chan, S. Sharma, J. Yang, R. Olivares  : DMRG
   Ulf Ekstrom                                   : XCFun DFT Library
   Mihaly Kallay                                 : mrcc  (arbitrary order and MRCC methods)
   Frank Weinhold                                : gennbo (NPA and NBO analysis)
   Simon Mueller                                 : openCOSMO-RS
   Christopher J. Cramer and Donald G. Truhlar   : smd solvation model
   Lars Goerigk                                  : TD-DFT with DH, B97 family of functionals
   V. Asgeirsson, H. Jonsson                     : NEB implementation
   FAccTs GmbH                                   : IRC, NEB, NEB-TS, DLPNO-Multilevel, CI-OPT
                                                   MM, QMMM, 2- and 3-layer-ONIOM, Crystal-QMMM,
                                                   LR-CPCM, SF, NACMEs, symmetry and pop. for TD-DFT,
                                                   nearIR, NL-DFT gradient (VV10), updates on ESD,
                                                   ML-optimized integration grids, MBIS, APM,
                                                   GOAT, DOCKER, SOLVATOR, interface openCOSMO-RS
   S Lehtola, MJT Oliveira, MAL Marques          : LibXC Library
   Liviu Ungur et al                             : ANISO software


 Your calculation uses the libint2 library for the computation of 2-el integrals
 For citations please refer to: http://libint.valeyev.net

 Your ORCA version has been built with support for libXC version: 6.2.2
 For citations please refer to: https://libxc.gitlab.io

 This ORCA versions uses:
   CBLAS   interface :  Fast vector & matrix operations
   LAPACKE interface :  Fast linear algebra routines
   SCALAPACK package :  Parallel linear algebra routines
   Shared memory     :  Shared parallel matrices
   BLAS/LAPACK       :  OpenBLAS 0.3.27  USE64BITINT DYNAMIC_ARCH NO_AFFINITY SkylakeX SINGLE_THREADED
        Core in use  :  SkylakeX
   Copyright (c) 2011-2014, The OpenBLAS Project




***************************************
The coordinates will be read from file: censo.xyz
***************************************


Your calculation utilizes the geometrical counterpoise correction gCP
Please cite in your paper:
H.Kruse, S. Grimme J.Chem.Phys., 136, (2012), 154101 
   

Your calculation utilizes the atom-pairwise dispersion correction
based on EEQ partial charges (D4)


================================================================================

----- Orbital basis set information -----
Your calculation utilizes the basis: def2-TZVP
   F. Weigend and R. Ahlrichs, Phys. Chem. Chem. Phys. 7, 3297 (2005).

----- AuxJ basis set information -----
Your calculation utilizes the basis: def2-mTZVPP/J
   Stefan Grimme, Andreas Hansen, Sebastian Ehlert, and Jan-Michael Mewes 
   J. Chem. Phys. 154, 000000 (2021). DOI: 10.1063/5.0040021

================================================================================
                                        WARNINGS
                       Please study these warnings very carefully!
================================================================================

Using LibXC functional ID 497 : Re-regularized SCAN exchange by Furness et al
[ 1]  J. W. Furness, A. D. Kaplan, J. Ning, J. P. Perdew, and J. Sun.,  J. Phys. Chem. Lett. 11, 8208-8215 (2020)
[ 2]  J. W. Furness, A. D. Kaplan, J. Ning, J. P. Perdew, and J. Sun.,  J. Phys. Chem. Lett. 11, 9248-9248 (2020)
Using LibXC functional ID 498 : Re-regularized SCAN correlation by Furness et al
[ 1]  J. W. Furness, A. D. Kaplan, J. Ning, J. P. Perdew, and J. Sun.,  J. Phys. Chem. Lett. 11, 8208-8215 (2020)
[ 2]  J. W. Furness, A. D. Kaplan, J. Ning, J. P. Perdew, and J. Sun.,  J. Phys. Chem. Lett. 11, 9248-9248 (2020)
Using LibXC functional ID 497 : Re-regularized SCAN exchange by Furness et al
[ 1]  J. W. Furness, A. D. Kaplan, J. Ning, J. P. Perdew, and J. Sun.,  J. Phys. Chem. Lett. 11, 8208-8215 (2020)
[ 2]  J. W. Furness, A. D. Kaplan, J. Ning, J. P. Perdew, and J. Sun.,  J. Phys. Chem. Lett. 11, 9248-9248 (2020)
Using LibXC functional ID 498 : Re-regularized SCAN correlation by Furness et al
[ 1]  J. W. Furness, A. D. Kaplan, J. Ning, J. P. Perdew, and J. Sun.,  J. Phys. Chem. Lett. 11, 8208-8215 (2020)
[ 2]  J. W. Furness, A. D. Kaplan, J. Ning, J. P. Perdew, and J. Sun.,  J. Phys. Chem. Lett. 11, 9248-9248 (2020)

================================================================================
                                       INPUT FILE
================================================================================
NAME = censo.inp
|  1> ! r2SCAN-3c DEF2-TZVP FREQ
|  2> * xyzfile 0 1 censo.xyz
|  3> 
|  4>                          ****END OF INPUT****
================================================================================

                       ****************************
                       * Single Point Calculation *
                       ****************************

---------------------------------
CARTESIAN COORDINATES (ANGSTROEM)
---------------------------------
  C      1.449666   -0.732724   -0.237749
  C      1.449821    0.732514    0.237583
  C      0.045480    1.224910   -0.126348
  C     -0.832921    0.000027   -0.000474
  O     -2.056300    0.000159   -0.000012
  C      0.045311   -1.224857    0.126516
  H      2.242276   -1.327052    0.222516
  H      1.584517   -0.769138   -1.324670
  H      1.584786    0.768818    1.324498
  H      2.242483    1.326766   -0.222697
  H     -0.341249    2.058223    0.466177
  H      0.001427    1.524893   -1.183893
  H      0.001388   -1.524494    1.184197
  H     -0.341648   -2.058313   -0.465665

----------------------------
CARTESIAN COORDINATES (A.U.)
----------------------------
  NO LB      ZA    FRAG     MASS         X           Y           Z
   0 C     6.0000    0    12.011    2.739472   -1.384647   -0.449281
   1 C     6.0000    0    12.011    2.739764    1.384250    0.448967
   2 C     6.0000    0    12.011    0.085944    2.314744   -0.238763
   3 C     6.0000    0    12.011   -1.573993    0.000051   -0.000896
   4 O     8.0000    0    15.999   -3.885843    0.000300   -0.000022
   5 C     6.0000    0    12.011    0.085626   -2.314644    0.239081
   6 H     1.0000    0     1.008    4.237287   -2.507765    0.420494
   7 H     1.0000    0     1.008    2.994303   -1.453460   -2.503264
   8 H     1.0000    0     1.008    2.994812    1.452855    2.502939
   9 H     1.0000    0     1.008    4.237678    2.507225   -0.420837
  10 H     1.0000    0     1.008   -0.644868    3.889477    0.880947
  11 H     1.0000    0     1.008    0.002696    2.881629   -2.237233
  12 H     1.0000    0     1.008    0.002623   -2.880876    2.237809
  13 H     1.0000    0     1.008   -0.645622   -3.889647   -0.879980

--------------------------------
INTERNAL COORDINATES (ANGSTROEM)
--------------------------------
 C      0   0   0     0.000000000000     0.00000000     0.00000000
 C      1   0   0     1.540409395840     0.00000000     0.00000000
 C      2   1   0     1.532016289335   103.43401096     0.00000000
 C      3   2   1     1.512537686013   104.61363641    31.40513833
 O      4   3   2     1.223378698689   125.49913201   167.83563551
 C      4   3   2     1.512533753099   109.00161798   347.90735951
 H      1   2   3     1.092382747457   112.79453058   198.55684079
 H      1   2   3     1.095859164247   109.73400297    77.98511582
 H      2   1   3     1.095864261462   109.72948244   117.04492274
 H      2   1   3     1.092386021583   112.79911950   237.61532928
 H      3   2   1     1.093186042118   116.13735371   154.78127901
 H      3   2   1     1.100150588141   110.65223828   277.52572465
 H      6   4   3     1.100182408320   106.14629848   104.87848973
 H      6   4   3     1.093190323350   111.49403603   221.52914720

---------------------------
INTERNAL COORDINATES (A.U.)
---------------------------
 C      0   0   0     0.000000000000     0.00000000     0.00000000
 C      1   0   0     2.910951892256     0.00000000     0.00000000
 C      2   1   0     2.895091219550   103.43401096     0.00000000
 C      3   2   1     2.858281993800   104.61363641    31.40513833
 O      4   3   2     2.311850698595   125.49913201   167.83563551
 C      4   3   2     2.858274561669   109.00161798   347.90735951
 H      1   2   3     2.064304226115   112.79453058   198.55684079
 H      1   2   3     2.070873701774   109.73400297    77.98511582
 H      2   1   3     2.070883334115   109.72948244   117.04492274
 H      2   1   3     2.064310413316   112.79911950   237.61532928
 H      3   2   1     2.065822233029   116.13735371   154.78127901
 H      3   2   1     2.078983317660   110.65223828   277.52572465
 H      6   4   3     2.079043449083   106.14629848   104.87848973
 H      6   4   3     2.065830323385   111.49403603   221.52914720

---------------------
BASIS SET INFORMATION
---------------------
There are 3 groups of distinct atoms

 Group   1 Type C   : 11s6p2d1f contracted to 5s3p2d1f pattern {62111/411/11/1}
 Group   2 Type O   : 11s6p2d1f contracted to 5s3p2d1f pattern {62111/411/11/1}
 Group   3 Type H   : 5s1p contracted to 3s1p pattern {311/1}

Atom   0C    basis set group =>   1
Atom   1C    basis set group =>   1
Atom   2C    basis set group =>   1
Atom   3C    basis set group =>   1
Atom   4O    basis set group =>   2
Atom   5C    basis set group =>   1
Atom   6H    basis set group =>   3
Atom   7H    basis set group =>   3
Atom   8H    basis set group =>   3
Atom   9H    basis set group =>   3
Atom  10H    basis set group =>   3
Atom  11H    basis set group =>   3
Atom  12H    basis set group =>   3
Atom  13H    basis set group =>   3
---------------------------------
AUXILIARY/J BASIS SET INFORMATION
---------------------------------
There are 3 groups of distinct atoms

 Group   1 Type C   : 8s3p3d contracted to 6s3p3d pattern {311111/111/111}
 Group   2 Type O   : 8s3p3d contracted to 6s3p3d pattern {311111/111/111}
 Group   3 Type H   : 5s2p1d contracted to 3s1p1d pattern {311/2/1}

Atom   0C    basis set group =>   1
Atom   1C    basis set group =>   1
Atom   2C    basis set group =>   1
Atom   3C    basis set group =>   1
Atom   4O    basis set group =>   2
Atom   5C    basis set group =>   1
Atom   6H    basis set group =>   3
Atom   7H    basis set group =>   3
Atom   8H    basis set group =>   3
Atom   9H    basis set group =>   3
Atom  10H    basis set group =>   3
Atom  11H    basis set group =>   3
Atom  12H    basis set group =>   3
Atom  13H    basis set group =>   3
------------------------------------------------------------------------------
                             ORCA STARTUP CALCULATIONS
                           -- RI-GTO INTEGRALS CHOSEN --
------------------------------------------------------------------------------
------------------------------------------------------------------------------
                   ___                                                        
                  /   \      - P O W E R E D   B Y -                         
                 /     \                                                     
                 |  |  |   _    _      __       _____    __    __             
                 |  |  |  | |  | |    /  \     |  _  \  |  |  /  |          
                  \  \/   | |  | |   /    \    | | | |  |  | /  /          
                 / \  \   | |__| |  /  /\  \   | |_| |  |  |/  /          
                |  |  |   |  __  | /  /__\  \  |    /   |      \           
                |  |  |   | |  | | |   __   |  |    \   |  |\   \          
                \     /   | |  | | |  |  |  |  | |\  \  |  | \   \       
                 \___/    |_|  |_| |__|  |__|  |_| \__\ |__|  \__/        
                                                                              
                      - O R C A' S   B I G   F R I E N D -                    
                                      &                                       
                       - I N T E G R A L  F E E D E R -                       
                                                                              
 v1 FN, 2020, v2 2021, v3 2022-2024                                           
------------------------------------------------------------------------------


----------------------
SHARK INTEGRAL PACKAGE
----------------------

Number of atoms                             ...     14
Number of basis functions                   ...    234
Number of shells                            ...     98
Maximum angular momentum                    ...      3
Integral batch strategy                     ... SHARK/LIBINT Hybrid
RI-J (if used) integral strategy            ... SPLIT-RIJ (Revised 2003 algorithm where possible)
Printlevel                                  ...      1
Contraction scheme used                     ... SEGMENTED contraction
Prescreening option                         ... SCHWARTZ
   Thresh                                   ... 1.000e-10
   Tcut                                     ... 1.000e-11
   Tpresel                                  ... 1.000e-11 
Coulomb Range Separation                    ... NOT USED
Exchange Range Separation                   ... NOT USED
Multipole approximations                    ... NOT USED
Finite Nucleus Model                        ... NOT USED
CABS basis                                  ... NOT available
Auxiliary Coulomb fitting basis             ... AVAILABLE
   # of basis functions in Aux-J            ...    268
   # of shells in Aux-J                     ...    112
   Maximum angular momentum in Aux-J        ...      2
Auxiliary J/K fitting basis                 ... NOT available
Auxiliary Correlation fitting basis         ... NOT available
Auxiliary 'external' fitting basis          ... NOT available

Checking pre-screening integrals            ... done (  0.0 sec) Dimension = 98
Check shell pair data                       ... done (  0.0 sec)
Shell pair information
Shell pair cut-off parameter TPreSel        ...   1.0e-11
Total number of shell pairs                 ...      4851
Shell pairs after pre-screening             ...      4667
Total number of primitive shell pairs       ...     14352
Primitive shell pairs kept                  ...     10904
          la=0 lb=0:   1381 shell pairs
          la=1 lb=0:   1366 shell pairs
          la=1 lb=1:    347 shell pairs
          la=2 lb=0:    630 shell pairs
          la=2 lb=1:    308 shell pairs
          la=2 lb=2:     76 shell pairs
          la=3 lb=0:    312 shell pairs
          la=3 lb=1:    154 shell pairs
          la=3 lb=2:     72 shell pairs
          la=3 lb=3:     21 shell pairs

Calculating one electron integrals          ... done (  0.0 sec)
Calculating RI/J V-Matrix + Cholesky decomp.... done (  0.0 sec)
Calculating Nuclear repulsion               ... done (  0.0 sec) ENN=    235.866171369409 Eh

Diagonalization of the overlap matrix:
Smallest eigenvalue                        ... 1.426e-04
Time for diagonalization                   ...    0.005 sec
Threshold for overlap eigenvalues          ... 1.000e-07
Number of eigenvalues below threshold      ... 0
Time for construction of square roots      ...    0.013 sec
Total time needed                          ...    0.026 sec

-------------------
DFT GRID GENERATION
-------------------

General Integration Accuracy     IntAcc      ... 4.388
Radial Grid Type                 RadialGrid  ... OptM3 with GC (2021)
Angular Grid (max. ang.)         AngularGrid ... 4 (Lebedev-302)
Angular grid pruning method      GridPruning ... 4 (adaptive)
Weight generation scheme         WeightScheme... mBecke (2022)
Basis function cutoff            BFCut       ... 1.0000e-10
Integration weight cutoff        WCut        ... 1.0000e-14
Partially contracted basis set               ... off
Rotationally invariant grid construction     ... off
Angular grids for H and He will be reduced by one unit

Total number of grid points                  ...    61796
Total number of batches                      ...      972
Average number of points per batch           ...       63
Average number of grid points per atom       ...     4414
Initializing property integral containers    ... done (  0.0 sec)

SHARK setup successfully completed in   0.9 seconds

Maximum memory used throughout the entire STARTUP-calculation: 33.1 MB
-------------------------------------------------------------------------------
                                 ORCA GUESS
                   Start orbitals & Density for SCF / CASSCF
-------------------------------------------------------------------------------

------------
SCF SETTINGS
------------
Hamiltonian:
 Density Functional     Method          .... DFT(GTOs)
  Functional kind                       .... Exchange
  Functional name                       .... Re-regularized SCAN exchange by Furness et al
  Functional family                     .... MGGA
  Functional refs                              
    [ 0] J. W. Furness, A. D. Kaplan, J. Ning, J. P. Perdew, and J. Sun.,  J. Phys. Chem. Lett. 11, 8208-8215 (2020), doi: 10.1021/acs.jpclett.0c02405
    [ 1] J. W. Furness, A. D. Kaplan, J. Ning, J. P. Perdew, and J. Sun.,  J. Phys. Chem. Lett. 11, 9248-9248 (2020), doi: 10.1021/acs.jpclett.0c03077
  Functional external parameters        .... 6
    Parameter  0 _c1        =  6.670000e-01 : c1 parameter        
    Parameter  1 _c2        =  8.000000e-01 : c2 parameter        
    Parameter  2 _d         =  1.240000e+00 : d parameter         
    Parameter  3 _k1        =  6.500000e-02 : k1 parameter        
    Parameter  4 _eta       =  1.000000e-03 : eta parameter       
    Parameter  5 _dp2       =  3.610000e-01 : dp2 parameter       
  Functional kind                       .... Correlation
  Functional name                       .... Re-regularized SCAN correlation by Furness et al
  Functional family                     .... MGGA
  Functional refs                              
    [ 0] J. W. Furness, A. D. Kaplan, J. Ning, J. P. Perdew, and J. Sun.,  J. Phys. Chem. Lett. 11, 8208-8215 (2020), doi: 10.1021/acs.jpclett.0c02405
    [ 1] J. W. Furness, A. D. Kaplan, J. Ning, J. P. Perdew, and J. Sun.,  J. Phys. Chem. Lett. 11, 9248-9248 (2020), doi: 10.1021/acs.jpclett.0c03077
  Functional external parameters        .... 1
    Parameter  0 _eta       =  1.000000e-03 : Regularization parameter
 Gradients option       PostSCFGGA      .... off
 RI-approximation to the Coulomb term is turned on
   Number of AuxJ basis functions       .... 268


General Settings:
 Integral files         IntName         .... censo
 Hartree-Fock type      HFTyp           .... RHF
 Total Charge           Charge          ....    0
 Multiplicity           Mult            ....    1
 Number of Electrons    NEL             ....   46
 Basis Dimension        Dim             ....  234
 Nuclear Repulsion      ENuc            ....    235.8661713694 Eh

Convergence Acceleration:
 AO-DIIS                CNVDIIS         .... on
   Start iteration      DIISMaxIt       ....    12
   Startup error        DIISStart       ....  0.200000
   # of expansion vecs  DIISMaxEq       ....     5
   Bias factor          DIISBfac        ....   1.050
   Max. coefficient     DIISMaxC        ....  10.000
 MO-DIIS                CNVKDIIS        .... off
 Trust-Rad. Augm. Hess. CNVTRAH         .... auto
   Auto Start mean grad. ratio tolernc. ....  1.125000
   Auto Start start iteration           ....    50
   Auto Start num. interpolation iter.  ....    10
   Max. Number of Micro iterations      ....    24
   Max. Number of Macro iterations      .... Maxiter - #DIIS iter
   Number of Davidson start vectors     ....     2
   Converg. threshold    (grad. norm)   ....   5.000e-05
   Grad. Scal. Fac. for Micro threshold ....   0.100
   Minimum threshold for Micro iter.    ....   1.000e-02
   NR start threshold (gradient norm)   ....   1.000e-04
   Initial trust radius                 ....   0.400
   Minimum AH scaling param. (alpha)    ....   1.000
   Maximum AH scaling param. (alpha)    .... 1000.000
   Quad. conv. algorithm                .... NR
   White noise on init. David. guess    .... on
   Maximum white noise                  ....   0.010
   Pseudo random numbers                .... off
   Inactive MOs                         .... canonical
   Orbital update algorithm             .... Taylor
   Preconditioner                       .... Diag
   Full preconditioner red. dimension   ....   250
   COSX micro iterations for RIJONX calc.... off
 SOSCF                  CNVSOSCF        .... on
   Start iteration      SOSCFMaxIt      ....   150
   Startup grad/error   SOSCFStart      ....  0.003300
   Hessian update       SOSCFHessUp     .... L-BFGS
 Level Shifting         CNVShift        .... on
   Level shift para.    LevelShift      ....    0.2500
   Turn off err/grad.   ShiftErr        ....    0.0010
 Zerner damping         CNVZerner       .... off
 Static damping         CNVDamp         .... on
   Fraction old density DampFac         ....    0.7000
   Max. Damping (<1)    DampMax         ....    0.9800
   Min. Damping (>=0)   DampMin         ....    0.0000
   Turn off err/grad.   DampErr         ....    0.1000

SCF Procedure:
 Maximum # iterations   MaxIter         ....   125
 SCF integral mode      SCFMode         .... Direct
   Integral package                     .... SHARK and LIBINT hybrid scheme
 Reset frequency        DirectResetFreq ....    20
 Integral Threshold     Thresh          ....  1.000e-10 Eh
 Primitive CutOff       TCut            ....  1.000e-11 Eh

Convergence Tolerance:
 Convergence Check Mode ConvCheckMode   .... Total+1el-Energy
 Convergence forced     ConvForced      .... 0
 Energy Change          TolE            ....  1.000e-06 Eh
 1-El. energy change                    ....  1.000e-03 Eh
 Orbital Gradient       TolG            ....  5.000e-05
 Orbital Rotation angle TolX            ....  5.000e-05
 DIIS Error             TolErr          ....  1.000e-06

------------------------------
INITIAL GUESS: MODEL POTENTIAL
------------------------------
Loading Hartree-Fock densities                     ... done
Calculating cut-offs                               ... done
Initializing the effective Hamiltonian             ... done
Setting up the integral package (SHARK)            ... done
Starting the Coulomb interaction                   ... done (   0.2 sec)
Making the grid                                    ... done (   0.2 sec)
Mapping shells                                     ... done
Starting the XC term evaluation                    ... done (   0.3 sec)
  promolecular density results
     # of electrons  =     45.994654442
     EX              =    -36.074321455
     EC              =     -1.517643954
     EX+EC           =    -37.591965409
Transforming the Hamiltonian                       ... done (   0.0 sec)
Diagonalizing the Hamiltonian                      ... done (   0.0 sec)
Back transforming the eigenvectors                 ... done (   0.0 sec)
Now organizing SCF variables                       ... done
                      ------------------
                      INITIAL GUESS DONE (   0.7 sec)
                      ------------------
             **** ENERGY FILE WAS UPDATED (censo.en.tmp) ****
Finished Guess after   0.9 sec
Maximum memory used throughout the entire GUESS-calculation: 20.5 MB

-------------------------------------------------------------------------------------------
                                      ORCA LEAN-SCF
                              memory conserving SCF solver
-------------------------------------------------------------------------------------------

----------------------------------------D-I-I-S--------------------------------------------
Iteration    Energy (Eh)           Delta-E    RMSDP     MaxDP     DIISErr   Damp  Time(sec)
-------------------------------------------------------------------------------------------
               ***  Starting incremental Fock matrix formation  ***
    1    -270.3297830387287490     0.00e+00  3.03e-03  1.45e-01  2.64e-01  0.700   2.6
    2    -270.4245586064479312    -9.48e-02  2.39e-03  1.22e-01  9.68e-02  0.700   2.4
                               ***Turning on AO-DIIS***
    3    -270.4572293705742823    -3.27e-02  6.98e-04  2.62e-02  3.45e-02  0.700   2.3
    4    -270.4776201749984352    -2.04e-02  1.02e-03  3.39e-02  1.44e-02  0.000   2.3
    5    -270.5236433066654058    -4.60e-02  5.71e-04  3.24e-02  7.84e-03  0.000   2.4
                              *** Initializing SOSCF ***
---------------------------------------S-O-S-C-F--------------------------------------
Iteration    Energy (Eh)           Delta-E    RMSDP     MaxDP     MaxGrad    Time(sec)
--------------------------------------------------------------------------------------
    6    -270.5241028181624188    -4.60e-04  1.87e-04  1.01e-02  1.98e-03     2.3
               *** Restarting incremental Fock matrix formation ***
    7    -270.5241339288855897    -3.11e-05  1.87e-04  1.03e-02  8.34e-04     2.6
    8    -270.5241221358435837     1.18e-05  5.27e-05  2.62e-03  1.64e-03     2.2
    9    -270.5241387232866828    -1.66e-05  3.60e-05  1.93e-03  1.28e-04     2.1
   10    -270.5241382609764287     4.62e-07  1.92e-05  1.02e-03  1.82e-04     2.1
                 **** Energy Check signals convergence ****

               *****************************************************
               *                     SUCCESS                       *
               *           SCF CONVERGED AFTER  10 CYCLES          *
               *****************************************************

             **** ENERGY FILE WAS UPDATED (censo.en.tmp) ****

----------------
TOTAL SCF ENERGY
----------------

Total Energy       :       -270.52413826097643 Eh           -7361.33605 eV

Components:
Nuclear Repulsion  :        235.86617136940896 Eh            6418.24482 eV
Electronic Energy  :       -506.39030963038539 Eh          -13779.58087 eV
One Electron Energy:       -832.79318467745077 Eh          -22661.45464 eV
Two Electron Energy:        326.40287504706538 Eh            8881.87378 eV

Virial components:
Potential Energy   :       -539.75723885982177 Eh          -14687.54117 eV
Kinetic Energy     :        269.23310059884534 Eh            7326.20512 eV
Virial Ratio       :          2.00479524122130

DFT components:
N(Alpha)           :       22.999972086475 electrons
N(Beta)            :       22.999972086475 electrons
N(Total)           :       45.999944172949 electrons
E(X)               :      -37.143384173573 Eh       
E(C)               :       -1.467240151142 Eh       
E(XC)              :      -38.610624324715 Eh       

---------------
SCF CONVERGENCE
---------------

  Last Energy change         ...   -4.6231e-07  Tolerance :   1.0000e-06
  Last MAX-Density change    ...    1.0242e-03  Tolerance :   1.0000e-05
  Last RMS-Density change    ...    1.9205e-05  Tolerance :   1.0000e-06
  Last DIIS Error            ...    1.9751e-03  Tolerance :   1.0000e-06
  Last Orbital Gradient      ...    1.8245e-04  Tolerance :   5.0000e-05
  Last Orbital Rotation      ...    1.5107e-04  Tolerance :   5.0000e-05


----------------
ORBITAL ENERGIES
----------------

  NO   OCC          E(Eh)            E(eV) 
   0   2.0000     -18.935908      -515.2723 
   1   2.0000     -10.117481      -275.3107 
   2   2.0000     -10.044248      -273.3179 
   3   2.0000     -10.044134      -273.3148 
   4   2.0000     -10.043020      -273.2845 
   5   2.0000     -10.043014      -273.2843 
   6   2.0000      -0.994119       -27.0514 
   7   2.0000      -0.813722       -22.1425 
   8   2.0000      -0.700723       -19.0677 
   9   2.0000      -0.660347       -17.9689 
  10   2.0000      -0.562475       -15.3057 
  11   2.0000      -0.504755       -13.7351 
  12   2.0000      -0.467930       -12.7330 
  13   2.0000      -0.438324       -11.9274 
  14   2.0000      -0.404003       -10.9935 
  15   2.0000      -0.394087       -10.7236 
  16   2.0000      -0.372173       -10.1273 
  17   2.0000      -0.359198        -9.7743 
  18   2.0000      -0.334125        -9.0920 
  19   2.0000      -0.326879        -8.8948 
  20   2.0000      -0.312579        -8.5057 
  21   2.0000      -0.308663        -8.3992 
  22   2.0000      -0.210649        -5.7320 
  23   0.0000      -0.052689        -1.4337 
  24   0.0000       0.032854         0.8940 
  25   0.0000       0.070789         1.9263 
  26   0.0000       0.081902         2.2287 
  27   0.0000       0.084363         2.2956 
  28   0.0000       0.105839         2.8800 
  29   0.0000       0.116852         3.1797 
  30   0.0000       0.125620         3.4183 
  31   0.0000       0.136668         3.7189 
  32   0.0000       0.147056         4.0016 
  33   0.0000       0.166424         4.5286 
*Only the first 10 virtual orbitals were printed.

                    ********************************
                    * MULLIKEN POPULATION ANALYSIS *
                    ********************************

-----------------------
MULLIKEN ATOMIC CHARGES
-----------------------
   0 C :   -0.171348
   1 C :   -0.171258
   2 C :   -0.151402
   3 C :    0.136682
   4 O :   -0.326617
   5 C :   -0.151392
   6 H :    0.097241
   7 H :    0.091175
   8 H :    0.091154
   9 H :    0.097248
  10 H :    0.120142
  11 H :    0.109111
  12 H :    0.109181
  13 H :    0.120083
Sum of atomic charges:    0.0000000

--------------------------------
MULLIKEN REDUCED ORBITAL CHARGES
--------------------------------
  0 C s       :     3.214134  s :     3.214134
      pz      :     1.003708  p :     2.872420
      px      :     0.941417
      py      :     0.927296
      dz2     :     0.015730  d :     0.078392
      dxz     :     0.009869
      dyz     :     0.011775
      dx2y2   :     0.015973
      dxy     :     0.025045
      f0      :     0.001279  f :     0.006401
      f+1     :     0.000389
      f-1     :     0.000590
      f+2     :     0.000646
      f-2     :     0.000465
      f+3     :     0.001635
      f-3     :     0.001397

  1 C s       :     3.214086  s :     3.214086
      pz      :     1.003719  p :     2.872381
      px      :     0.941389
      py      :     0.927272
      dz2     :     0.015725  d :     0.078390
      dxz     :     0.009871
      dyz     :     0.011776
      dx2y2   :     0.015974
      dxy     :     0.025045
      f0      :     0.001279  f :     0.006401
      f+1     :     0.000389
      f-1     :     0.000590
      f+2     :     0.000646
      f-2     :     0.000465
      f+3     :     0.001635
      f-3     :     0.001397

  2 C s       :     3.172553  s :     3.172553
      pz      :     1.022694  p :     2.900445
      px      :     0.921920
      py      :     0.955830
      dz2     :     0.010020  d :     0.072344
      dxz     :     0.013281
      dyz     :     0.007257
      dx2y2   :     0.019940
      dxy     :     0.021846
      f0      :     0.000972  f :     0.006060
      f+1     :     0.000439
      f-1     :     0.000534
      f+2     :     0.000360
      f-2     :     0.000580
      f+3     :     0.001730
      f-3     :     0.001445

  3 C s       :     3.218429  s :     3.218429
      pz      :     0.713088  p :     2.431530
      px      :     0.767047
      py      :     0.951395
      dz2     :     0.006514  d :     0.194346
      dxz     :     0.042661
      dyz     :     0.018939
      dx2y2   :     0.038630
      dxy     :     0.087602
      f0      :     0.002234  f :     0.019013
      f+1     :     0.001305
      f-1     :     0.000792
      f+2     :     0.002900
      f-2     :     0.001092
      f+3     :     0.003589
      f-3     :     0.007101

  4 O s       :     3.839770  s :     3.839770
      pz      :     1.324741  p :     4.453297
      px      :     1.330980
      py      :     1.797576
      dz2     :     0.002571  d :     0.031612
      dxz     :     0.010664
      dyz     :     0.000062
      dx2y2   :     0.008808
      dxy     :     0.009506
      f0      :     0.000191  f :     0.001938
      f+1     :     0.000178
      f-1     :     0.000024
      f+2     :     0.000454
      f-2     :     0.000006
      f+3     :     0.000496
      f-3     :     0.000589

  5 C s       :     3.172536  s :     3.172536
      pz      :     1.022660  p :     2.900450
      px      :     0.921916
      py      :     0.955874
      dz2     :     0.010029  d :     0.072346
      dxz     :     0.013278
      dyz     :     0.007253
      dx2y2   :     0.019938
      dxy     :     0.021848
      f0      :     0.000973  f :     0.006060
      f+1     :     0.000440
      f-1     :     0.000533
      f+2     :     0.000360
      f-2     :     0.000580
      f+3     :     0.001729
      f-3     :     0.001445

  6 H s       :     0.879331  s :     0.879331
      pz      :     0.006101  p :     0.023429
      px      :     0.009565
      py      :     0.007763

  7 H s       :     0.885430  s :     0.885430
      pz      :     0.012782  p :     0.023395
      px      :     0.005376
      py      :     0.005236

  8 H s       :     0.885451  s :     0.885451
      pz      :     0.012782  p :     0.023395
      px      :     0.005377
      py      :     0.005236

  9 H s       :     0.879323  s :     0.879323
      pz      :     0.006101  p :     0.023428
      px      :     0.009565
      py      :     0.007762

 10 H s       :     0.856352  s :     0.856352
      pz      :     0.007021  p :     0.023506
      px      :     0.006169
      py      :     0.010316

 11 H s       :     0.866990  s :     0.866990
      pz      :     0.012282  p :     0.023900
      px      :     0.005333
      py      :     0.006284

 12 H s       :     0.866923  s :     0.866923
      pz      :     0.012284  p :     0.023896
      px      :     0.005331
      py      :     0.006280

 13 H s       :     0.856410  s :     0.856410
      pz      :     0.007018  p :     0.023507
      px      :     0.006171
      py      :     0.010318



                     *******************************
                     * LOEWDIN POPULATION ANALYSIS *
                     *******************************

----------------------
LOEWDIN ATOMIC CHARGES
----------------------
   0 C :   -0.247677
   1 C :   -0.247671
   2 C :   -0.218652
   3 C :   -0.314048
   4 O :    0.104929
   5 C :   -0.218650
   6 H :    0.130494
   7 H :    0.135945
   8 H :    0.135951
   9 H :    0.130495
  10 H :    0.145812
  11 H :    0.158633
  12 H :    0.158635
  13 H :    0.145804

-------------------------------
LOEWDIN REDUCED ORBITAL CHARGES
-------------------------------
  0 C s       :     2.784642  s :     2.784642
      pz      :     1.027670  p :     3.032083
      px      :     1.001269
      py      :     1.003144
      dz2     :     0.092119  d :     0.390666
      dxz     :     0.051767
      dyz     :     0.052802
      dx2y2   :     0.085056
      dxy     :     0.108921
      f0      :     0.005340  f :     0.040286
      f+1     :     0.002457
      f-1     :     0.003606
      f+2     :     0.006528
      f-2     :     0.005753
      f+3     :     0.009606
      f-3     :     0.006995

  1 C s       :     2.784641  s :     2.784641
      pz      :     1.027669  p :     3.032084
      px      :     1.001268
      py      :     1.003147
      dz2     :     0.092106  d :     0.390659
      dxz     :     0.051771
      dyz     :     0.052802
      dx2y2   :     0.085058
      dxy     :     0.108922
      f0      :     0.005342  f :     0.040286
      f+1     :     0.002456
      f-1     :     0.003607
      f+2     :     0.006526
      f-2     :     0.005753
      f+3     :     0.009609
      f-3     :     0.006994

  2 C s       :     2.784400  s :     2.784400
      pz      :     1.020425  p :     3.033402
      px      :     1.006323
      py      :     1.006654
      dz2     :     0.067535  d :     0.361920
      dxz     :     0.053450
      dyz     :     0.048405
      dx2y2   :     0.086442
      dxy     :     0.106088
      f0      :     0.004817  f :     0.038930
      f+1     :     0.003777
      f-1     :     0.002537
      f+2     :     0.004337
      f-2     :     0.004890
      f+3     :     0.009738
      f-3     :     0.008833

  3 C s       :     2.770536  s :     2.770536
      pz      :     0.680461  p :     2.661406
      px      :     0.976171
      py      :     1.004774
      dz2     :     0.053562  d :     0.775520
      dxz     :     0.129771
      dyz     :     0.060222
      dx2y2   :     0.205326
      dxy     :     0.326639
      f0      :     0.006994  f :     0.106586
      f+1     :     0.009977
      f-1     :     0.003796
      f+2     :     0.016271
      f-2     :     0.006300
      f+3     :     0.017550
      f-3     :     0.045698

  4 O s       :     3.417037  s :     3.417037
      pz      :     1.260446  p :     4.405165
      px      :     1.490227
      py      :     1.654491
      dz2     :     0.007557  d :     0.067145
      dxz     :     0.012207
      dyz     :     0.000044
      dx2y2   :     0.024469
      dxy     :     0.022869
      f0      :     0.000359  f :     0.005724
      f+1     :     0.000870
      f-1     :     0.000129
      f+2     :     0.000677
      f-2     :     0.000013
      f+3     :     0.001748
      f-3     :     0.001927

  5 C s       :     2.784405  s :     2.784405
      pz      :     1.020422  p :     3.033393
      px      :     1.006315
      py      :     1.006656
      dz2     :     0.067577  d :     0.361922
      dxz     :     0.053451
      dyz     :     0.048367
      dx2y2   :     0.086436
      dxy     :     0.106091
      f0      :     0.004816  f :     0.038930
      f+1     :     0.003777
      f-1     :     0.002534
      f+2     :     0.004339
      f-2     :     0.004897
      f+3     :     0.009734
      f-3     :     0.008833

  6 H s       :     0.808118  s :     0.808118
      pz      :     0.017657  p :     0.061389
      px      :     0.024111
      py      :     0.019620

  7 H s       :     0.803325  s :     0.803325
      pz      :     0.033745  p :     0.060730
      px      :     0.013531
      py      :     0.013453

  8 H s       :     0.803321  s :     0.803321
      pz      :     0.033744  p :     0.060728
      px      :     0.013531
      py      :     0.013453

  9 H s       :     0.808116  s :     0.808116
      pz      :     0.017658  p :     0.061389
      px      :     0.024113
      py      :     0.019618

 10 H s       :     0.792180  s :     0.792180
      pz      :     0.020086  p :     0.062008
      px      :     0.015820
      py      :     0.026101

 11 H s       :     0.780010  s :     0.780010
      pz      :     0.032594  p :     0.061357
      px      :     0.013508
      py      :     0.015255

 12 H s       :     0.780013  s :     0.780013
      pz      :     0.032599  p :     0.061351
      px      :     0.013504
      py      :     0.015248

 13 H s       :     0.792190  s :     0.792190
      pz      :     0.020078  p :     0.062006
      px      :     0.015825
      py      :     0.026103



                      *****************************
                      * MAYER POPULATION ANALYSIS *
                      *****************************

  NA   - Mulliken gross atomic population
  ZA   - Total nuclear charge
  QA   - Mulliken gross atomic charge
  VA   - Mayer's total valence
  BVA  - Mayer's bonded valence
  FA   - Mayer's free valence

  ATOM       NA         ZA         QA         VA         BVA        FA
  0 C      6.1713     6.0000    -0.1713     3.9309     3.9309     0.0000
  1 C      6.1713     6.0000    -0.1713     3.9309     3.9309     0.0000
  2 C      6.1514     6.0000    -0.1514     3.7697     3.7697     0.0000
  3 C      5.8633     6.0000     0.1367     4.0754     4.0754     0.0000
  4 O      8.3266     8.0000    -0.3266     2.1294     2.1294    -0.0000
  5 C      6.1514     6.0000    -0.1514     3.7697     3.7697     0.0000
  6 H      0.9028     1.0000     0.0972     0.9824     0.9824     0.0000
  7 H      0.9088     1.0000     0.0912     0.9836     0.9836     0.0000
  8 H      0.9088     1.0000     0.0912     0.9836     0.9836     0.0000
  9 H      0.9028     1.0000     0.0972     0.9824     0.9824     0.0000
 10 H      0.8799     1.0000     0.1201     0.9989     0.9989    -0.0000
 11 H      0.8909     1.0000     0.1091     0.9932     0.9932    -0.0000
 12 H      0.8908     1.0000     0.1092     0.9932     0.9932     0.0000
 13 H      0.8799     1.0000     0.1201     0.9989     0.9989     0.0000

  Mayer bond orders larger than 0.100000
B(  0-C ,  1-C ) :   0.9553 B(  0-C ,  5-C ) :   0.9831 B(  0-C ,  6-H ) :   0.9605 
B(  0-C ,  7-H ) :   0.9672 B(  1-C ,  2-C ) :   0.9831 B(  1-C ,  8-H ) :   0.9672 
B(  1-C ,  9-H ) :   0.9605 B(  2-C ,  3-C ) :   0.9503 B(  2-C , 10-H ) :   0.9492 
B(  2-C , 11-H ) :   0.9347 B(  3-C ,  4-O ) :   2.0896 B(  3-C ,  5-C ) :   0.9503 
B(  5-C , 12-H ) :   0.9348 B(  5-C , 13-H ) :   0.9492 

-------
TIMINGS
-------

Total SCF time: 0 days 0 hours 0 min 23 sec 

Total time                  ....      23.607 sec
Sum of individual times     ....      23.107 sec  ( 97.9%)

SCF preparation             ....       0.172 sec  (  0.7%)
Fock matrix formation       ....      22.099 sec  ( 93.6%)
  Startup                   ....       0.062 sec  (  0.3% of F)
  Split-RI-J                ....       2.224 sec  ( 10.1% of F)
  XC integration            ....      19.261 sec  ( 87.2% of F)
    XC Preparation          ....       0.000 sec  (  0.0% of XC)
    Basis function eval.    ....       2.829 sec  ( 14.7% of XC)
    Density eval.           ....       5.759 sec  ( 29.9% of XC)
    XC-Functional eval.     ....       1.702 sec  (  8.8% of XC)
    XC-Potential eval.      ....       8.039 sec  ( 41.7% of XC)
Diagonalization             ....       0.000 sec  (  0.0%)
Density matrix formation    ....       0.210 sec  (  0.9%)
Total Energy calculation    ....       0.034 sec  (  0.1%)
Population analysis         ....       0.029 sec  (  0.1%)
Orbital Transformation      ....       0.063 sec  (  0.3%)
Orbital Orthonormalization  ....       0.000 sec  (  0.0%)
DIIS solution               ....       0.317 sec  (  1.3%)
SOSCF solution              ....       0.183 sec  (  0.8%)
Finished LeanSCF after  23.7 sec

Maximum memory used throughout the entire LEANSCF-calculation: 24.1 MB

------------------------------------------------------------------------------
                         ORCA PROPERTY INTEGRAL CALCULATIONS
------------------------------------------------------------------------------

GBWName                                   ... censo.gbw
Number of atoms                           ...     14
Number of basis functions                 ...    234
Max core memory                           ...   1024 MB

Dipole integrals                          ... YES
Quadrupole integrals                      ...  NO
Linear momentum integrals                 ...  NO
Angular momentum integrals                ...  NO
Higher moments length integrals           ...  NO
Higher moments velocity integrals         ...  NO
Kinetic energy integrals                  ...  NO
GIAO right hand sides                     ...  NO
GIAO dipole derivative integrals          ...  NO
SOC integrals                             ...  NO
EPR diamagnetic integrals (GIAO)          ...  NO
EPR gauge integrals                       ...  NO
Field gradient integrals                  ...  NO (   0 nuclei)
Spin-dipole/Fermi contact integrals       ...  NO (   0 nuclei)
Contact density integrals                 ...  NO (   0 nuclei)
Nucleus-orbit integrals                   ...  NO (   0 nuclei)
Geometric perturbations                   ... YES (  14 nuclei)

Choice of electric origin   ... Center of mass
Position of electric origin ... (  0.0010,  0.0000, -0.0001) 
Choice of magnetic origin   ... GIAO
Position of magnetic origin ... (  0.0000,  0.0000,  0.0000) 

Calculating integrals                     ... Electric Dipole (Length)     done (  0.1 sec)
Calculating integrals                     ... Geometrical perturbation right hand sides

-----------------------
GEOMETRIC PERTURBATIONS (14 nuclei)
-----------------------

MaxCore                            ...   1024 MB
Number of batches                  ...      1

BATCH   0: Atoms    0 -   13 ( 42 perturbations)
   => H(core) and overlap derivative integrals     ... done (     0.3 sec)
   => Making and storing internal U-coefficients   ... done (     0.3 sec)
   => RI-J derivative integrals                    ... done (     2.6 sec)
   => RI-J response operators                      ... done (     0.7 sec)
   => XC derivative integrals                      ... done (   188.7 sec)
   => XC response operators                        ... done (    53.4 sec)
   => Completing and storing right hand sides      ... done (     0.3 sec)
   => Total time for right hand sides = 248.5 sec

  geometrical perturbations done (248.5 sec)

Property integrals calculated in 248.6 sec

Maximum memory used throughout the entire PROPINT-calculation: 105.4 MB


-------------------------------------------------------------------------------
                          DFT DISPERSION CORRECTION                            
                                                                               
                                DFTD4 V3.4.0                                   
-------------------------------------------------------------------------------
The R2SCAN3C composite method is recognized
Using three-body term ABC
Active option DFTDOPT                   ...         5   

-------------------------   ----------------
Dispersion correction           -0.003444933
-------------------------   ----------------

------------------   -----------------
gCP correction             0.005315695
------------------   -----------------

-------------------------   --------------------
FINAL SINGLE POINT ENERGY      -270.522267498470
-------------------------   --------------------

------------------------------------------------------------------------------
                            ORCA SCF RESPONSE CALCULATION
------------------------------------------------------------------------------

GBWName                                 ... censo.gbw
Number of atoms                         ...     14
Number of basis functions               ...    234
Max core memory                         ...   1024 MB

Electric field perturbation             ...  NO
Quadrupolar field perturbation          ...  NO
Magnetic field perturbation (no GIAO)   ...  NO
Magnetic field perturbation (with GIAO) ...  NO
Linear momentum (velocity) perturbation ...  NO
Spin-orbit coupling perturbation        ...  NO
Choice of electric origin               ... Center of mass
Position of electric origin             ...     0.000967     0.000015    -0.000121
Choice of magnetic origin               ... GIAO
Position of magnetic origin             ...     0.000000     0.000000     0.000000
Nuclear geometric perturbations         ... YES (  42 perturbations)
Nucleus-orbit perturbations             ...  NO (   0 perturbations)
Spin-dipole/Fermi contact perturbations ...  NO (   0 perturbations)

Total number of real perturbations      ...     42
Total number of imaginary perturbations ...      0
Total number of triplet perturbations   ...      0
Total number of SOC perturbations       ...      0


                                **********************
                                * REAL PERTURBATIONS *
                                **********************



-------------------
SHARK CP-SCF DRIVER
-------------------

Dimension of the orbital basis          ...    234
Dimension of the CPSCF-problem          ...   4853
Number of operators                     ...      1
Max. number of iterations               ...    128
Convergence Tolerance                   ... 1.0e-03
Number of perturbations                 ...     42
Perturbation type                       ... REAL

----------------------------
POPLE LINEAR EQUATION SOLVER
----------------------------

  ITERATION   0:   ||err||_max =   8.2454e-01 (  15.3 sec   0/ 42 done)
  ITERATION   1:   ||err||_max =   5.0897e-02 (  15.1 sec   0/ 42 done)
  ITERATION   2:   ||err||_max =   1.4868e-02 (  15.4 sec   0/ 42 done)
  ITERATION   3:   ||err||_max =   2.7784e-03 (  15.7 sec  20/ 42 done)
  ITERATION   4:   ||err||_max =   7.8092e-04 (  10.0 sec  42/ 42 done)

CP-SCF equations solved in  73.6 sec
Response densities calculated in   0.1 sec

Maximum memory used throughout the entire SCFRESP-calculation: 61.1 MB

------------------------------------------------------------------------------
                              ORCA PROPERTY CALCULATIONS
------------------------------------------------------------------------------

GBWName                                 ... censo.gbw
Number of atoms                         ...     14
Number of basis functions               ...    234
Max core memory                         ...   1024 MB

Electric properties:
Dipole moment                           ... YES
Quadrupole moment                       ...  NO
Static polarizability (Dipole/Dipole)   ...  NO
Static polarizability (Dipole/Quad.)    ...  NO
Static polarizability (Quad./Quad.)     ...  NO
Static polarizability (Velocity)        ...  NO

Atomic electric properties:
Dipole moment                           ...  NO
Quadrupole moment                       ...  NO
Static polarizability                   ...  NO

Choice of electric origin               ... Center of mass
Position of electric origin             ...     0.000967     0.000015    -0.000121

General magnetic properties:
Magnetizability                         ...  NO

EPR properties:
g-Tensor (aka g-matrix)                 ...  NO
Zero-Field splitting spin-orbit         ...  NO
Zero-field splitting spin-spin          ...  NO
Hyperfine couplings                     ...  NO (   0 nuclei)
Quadrupole couplings                    ...  NO (   0 nuclei)
Contact density                         ...  NO (   0 nuclei)

NMR properties:
Chemical shifts                         ...  NO (   0 nuclei)
Spin-rotation constants                 ...  NO (   0 nuclei)
Spin-spin couplings                     ...  NO (   0 nuclei,    0 pairs)

Choice of magnetic origin               ... GIAO
Position of magnetic origin             ...     0.000000     0.000000     0.000000

Properties with geometric perturbations:
SCF Hessian                             ... YES
IR spectrum                             ... YES
VCD spectrum                            ...  NO
X-ray spectroscopy properties:
SCF XES/XAS/RIXS spectra                ...  NO


-------------
DIPOLE MOMENT
-------------

Method             : SCF
Type of density    : Electron Density
Multiplicity       :   1
Irrep              :   0
Energy             :  -270.5241382609764287 Eh
Relativity type    : 
Basis              : AO
                                X                 Y                 Z
Electronic contribution:     -5.222459114       0.000267483      -0.000943276
Nuclear contribution   :      6.508562685      -0.000337005       0.000916392
                        -----------------------------------------
Total Dipole Moment    :      1.286103571      -0.000069522      -0.000026884
                        -----------------------------------------
Magnitude (a.u.)       :      1.286103574
Magnitude (Debye)      :      3.269015491



--------------------
Rotational spectrum 
--------------------
 
Rotational constants in cm-1:             0.223146             0.111940             0.080713 
Rotational constants in MHz :          6689.751527          3355.866803          2419.717069 

Dipole components along the rotational axes: 
x,y,z [a.u.] :     1.286104     0.000016    -0.000047 
x,y,z [Debye]:     3.269015     0.000042    -0.000120 

 

Dipole moment calculation done in   0.0 sec 

-----------
SCF HESSIAN
-----------

Occupied/Occupied contributions to the Hessian:
   => Occupied/Occupied contributions              ... done (  0.0 sec)
Perturbed density contributions to the Hessian:
   => Perturbed density contributions              ... done (  0.0 sec)
Explicit contributions to the Hessian:
   => Nuclear repulsion Hessian                    ... done (  0.0 sec)
   => HCore and overlap Hessian                    ... done (  7.5 sec)
   => RI-J Hessian                                 ... done (  6.9 sec)
   => XC-Hessian                                   ... done ( 63.5 sec)
   => Van der Waals-Hessian                        ... done (  2.6 sec)
   => GCP-Hessian                                  ... done (  0.1 sec)
   => Explicit contributions done
Dipole derivatives                                 ... done (  0.1 sec)
Mass weighting the Hessian           ... done
Calculating normal modes             ... done
Scaling frequencies                  ... done

-----------------------
VIBRATIONAL FREQUENCIES
-----------------------

Scaling factor for frequencies =  1.000000000  (already applied!)

     0:       0.00 cm**-1
     1:       0.00 cm**-1
     2:       0.00 cm**-1
     3:       0.00 cm**-1
     4:       0.00 cm**-1
     5:       0.00 cm**-1
     6:     129.00 cm**-1
     7:     249.45 cm**-1
     8:     463.80 cm**-1
     9:     487.16 cm**-1
    10:     564.95 cm**-1
    11:     596.19 cm**-1
    12:     716.62 cm**-1
    13:     829.28 cm**-1
    14:     853.54 cm**-1
    15:     899.74 cm**-1
    16:     923.11 cm**-1
    17:     963.10 cm**-1
    18:     967.36 cm**-1
    19:    1028.98 cm**-1
    20:    1164.39 cm**-1
    21:    1165.68 cm**-1
    22:    1181.49 cm**-1
    23:    1219.23 cm**-1
    24:    1250.33 cm**-1
    25:    1298.25 cm**-1
    26:    1303.20 cm**-1
    27:    1334.14 cm**-1
    28:    1334.48 cm**-1
    29:    1434.22 cm**-1
    30:    1434.77 cm**-1
    31:    1487.19 cm**-1
    32:    1498.70 cm**-1
    33:    1717.09 cm**-1
    34:    2999.15 cm**-1
    35:    2999.42 cm**-1
    36:    3023.18 cm**-1
    37:    3029.07 cm**-1
    38:    3086.31 cm**-1
    39:    3087.80 cm**-1
    40:    3091.63 cm**-1
    41:    3096.71 cm**-1


------------
NORMAL MODES
------------

These modes are the Cartesian displacements weighted by the diagonal matrix
M(i,i)=1/sqrt(m[i]) where m[i] is the mass of the displaced atom
Thus, these vectors are normalized but *not* orthogonal

                  0          1          2          3          4          5    
      0       0.000000   0.000000   0.000000   0.000000   0.000000   0.000000
      1       0.000000   0.000000   0.000000   0.000000   0.000000   0.000000
      2       0.000000   0.000000   0.000000   0.000000   0.000000   0.000000
      3       0.000000   0.000000   0.000000   0.000000   0.000000   0.000000
      4       0.000000   0.000000   0.000000   0.000000   0.000000   0.000000
      5       0.000000   0.000000   0.000000   0.000000   0.000000   0.000000
      6       0.000000   0.000000   0.000000   0.000000   0.000000   0.000000
      7       0.000000   0.000000   0.000000   0.000000   0.000000   0.000000
      8       0.000000   0.000000   0.000000   0.000000   0.000000   0.000000
      9       0.000000   0.000000   0.000000   0.000000   0.000000   0.000000
     10       0.000000   0.000000   0.000000   0.000000   0.000000   0.000000
     11       0.000000   0.000000   0.000000   0.000000   0.000000   0.000000
     12       0.000000   0.000000   0.000000   0.000000   0.000000   0.000000
     13       0.000000   0.000000   0.000000   0.000000   0.000000   0.000000
     14       0.000000   0.000000   0.000000   0.000000   0.000000   0.000000
     15       0.000000   0.000000   0.000000   0.000000   0.000000   0.000000
     16       0.000000   0.000000   0.000000   0.000000   0.000000   0.000000
     17       0.000000   0.000000   0.000000   0.000000   0.000000   0.000000
     18       0.000000   0.000000   0.000000   0.000000   0.000000   0.000000
     19       0.000000   0.000000   0.000000   0.000000   0.000000   0.000000
     20       0.000000   0.000000   0.000000   0.000000   0.000000   0.000000
     21       0.000000   0.000000   0.000000   0.000000   0.000000   0.000000
     22       0.000000   0.000000   0.000000   0.000000   0.000000   0.000000
     23       0.000000   0.000000   0.000000   0.000000   0.000000   0.000000
     24       0.000000   0.000000   0.000000   0.000000   0.000000   0.000000
     25       0.000000   0.000000   0.000000   0.000000   0.000000   0.000000
     26       0.000000   0.000000   0.000000   0.000000   0.000000   0.000000
     27       0.000000   0.000000   0.000000   0.000000   0.000000   0.000000
     28       0.000000   0.000000   0.000000   0.000000   0.000000   0.000000
     29       0.000000   0.000000   0.000000   0.000000   0.000000   0.000000
     30       0.000000   0.000000   0.000000   0.000000   0.000000   0.000000
     31       0.000000   0.000000   0.000000   0.000000   0.000000   0.000000
     32       0.000000   0.000000   0.000000   0.000000   0.000000   0.000000
     33       0.000000   0.000000   0.000000   0.000000   0.000000   0.000000
     34       0.000000   0.000000   0.000000   0.000000   0.000000   0.000000
     35       0.000000   0.000000   0.000000   0.000000   0.000000   0.000000
     36       0.000000   0.000000   0.000000   0.000000   0.000000   0.000000
     37       0.000000   0.000000   0.000000   0.000000   0.000000   0.000000
     38       0.000000   0.000000   0.000000   0.000000   0.000000   0.000000
     39       0.000000   0.000000   0.000000   0.000000   0.000000   0.000000
     40       0.000000   0.000000   0.000000   0.000000   0.000000   0.000000
     41       0.000000   0.000000   0.000000   0.000000   0.000000   0.000000
                  6          7          8          9         10         11    
      0      -0.048093   0.036271   0.011642  -0.093223  -0.137997  -0.116031
      1      -0.009804  -0.047392  -0.067559  -0.002361  -0.024486   0.084940
      2      -0.083548   0.122755   0.007787   0.008431   0.029191   0.066631
      3       0.048168   0.036174  -0.011754   0.093421  -0.137543   0.116349
      4      -0.009693   0.047405  -0.067556  -0.002354   0.024790   0.084826
      5      -0.083843  -0.122623   0.007832   0.008354  -0.029011   0.066686
      6      -0.009882  -0.027980   0.013785   0.103969  -0.037786   0.070139
      7       0.022343   0.018571   0.107962   0.113933   0.120756  -0.052803
      8       0.166932   0.079123  -0.025880  -0.010658  -0.075819  -0.000585
      9       0.000036  -0.008977   0.000034  -0.000082   0.171241  -0.000227
     10      -0.006961   0.000003   0.053921   0.108871  -0.000056  -0.077942
     11       0.030277  -0.000089  -0.200295   0.146346  -0.000022  -0.162915
     12      -0.000036  -0.009983   0.000114  -0.000195   0.208851  -0.000199
     13      -0.027590   0.000059  -0.124544  -0.258970  -0.000158  -0.013447
     14      -0.185021   0.000173   0.105886  -0.050529   0.000014   0.057442
     15       0.009827  -0.027983  -0.013813  -0.103917  -0.038133  -0.070057
     16       0.022352  -0.018643   0.107965   0.114025  -0.120814  -0.052515
     17       0.166774  -0.079395  -0.025792  -0.010899   0.075793  -0.000665
     18       0.026244  -0.059287  -0.074302  -0.134449   0.019234  -0.019115
     19      -0.019737   0.026042  -0.068012  -0.107126   0.076427  -0.065256
     20      -0.225308   0.384192   0.158094  -0.058318  -0.116651  -0.301069
     21      -0.253480   0.264848   0.133361  -0.140374  -0.311550  -0.381691
     22      -0.019836  -0.253847  -0.158678   0.031565   0.005138   0.336609
     23      -0.109536   0.160687   0.026950   0.000985   0.004134   0.018951
     24       0.254002   0.264384  -0.133683   0.141117  -0.310219   0.382208
     25      -0.019302   0.253830  -0.158766   0.031807  -0.004014   0.336432
     26      -0.109931  -0.160513   0.027030   0.000823  -0.004094   0.018977
     27      -0.026363  -0.059260   0.074318   0.134307   0.019425   0.019109
     28      -0.019779  -0.025994  -0.068044  -0.107083  -0.076708  -0.065078
     29      -0.226131  -0.383779   0.158317  -0.058920   0.115625  -0.301170
     30       0.045575   0.017070   0.039598   0.259569  -0.123703  -0.121022
     31      -0.107751  -0.082928  -0.098338   0.369613  -0.138650  -0.133159
     32       0.389769   0.253859   0.287959  -0.271988   0.238213  -0.013218
     33      -0.157740  -0.187895   0.071749   0.156266  -0.168135   0.242618
     34       0.257408   0.190399   0.510639  -0.217769   0.428843   0.048656
     35       0.243286   0.136598   0.094718  -0.112921   0.029093   0.023113
     36       0.157278  -0.188086  -0.071691  -0.156078  -0.168827  -0.242344
     37       0.256897  -0.190516   0.510500  -0.217141  -0.429546   0.049336
     38       0.242835  -0.136801   0.094571  -0.112830  -0.029160   0.023132
     39      -0.045595   0.017242  -0.039903  -0.259278  -0.123685   0.121339
     40      -0.107288   0.082753  -0.097973   0.369142   0.138753  -0.133318
     41       0.389135  -0.254257   0.287974  -0.271784  -0.238964  -0.012859
                 12         13         14         15         16         17    
      0      -0.071465   0.046429   0.075725  -0.134374   0.010162  -0.044150
      1      -0.029453   0.044196  -0.112256   0.183213   0.027113   0.028828
      2      -0.024902   0.019718   0.044182   0.097282  -0.052818  -0.065805
      3      -0.071485   0.046756  -0.075671  -0.134318  -0.009890  -0.044743
      4       0.029471  -0.043784  -0.112503  -0.183031   0.027423  -0.028723
      5       0.024910  -0.019834   0.044030  -0.097472  -0.052748   0.065739
      6      -0.064703  -0.054193  -0.122310   0.094666   0.024591   0.022236
      7      -0.052184  -0.248616   0.048073  -0.060210  -0.010675  -0.022845
      8       0.102653  -0.047163   0.031068   0.040587   0.094697  -0.049401
      9       0.113873   0.046232   0.000048   0.000168  -0.000008  -0.003765
     10      -0.000013  -0.000166   0.105099  -0.000058   0.004297   0.000109
     11      -0.000043   0.000318  -0.064865  -0.000133  -0.102273   0.000014
     12       0.147188   0.046733   0.000057   0.016186   0.000018  -0.006544
     13       0.000017  -0.000035   0.005778  -0.000004  -0.005409  -0.000057
     14       0.000013  -0.000037   0.008589   0.000019   0.020208  -0.000001
     15      -0.064673  -0.054637   0.122237   0.094578  -0.024796   0.021653
     16       0.052112   0.248461   0.048880   0.060174  -0.010587   0.022538
     17      -0.102592   0.046834   0.031237  -0.040326   0.094774   0.049444
     18      -0.191258  -0.033343   0.281929  -0.038562   0.096259  -0.193972
     19      -0.030255  -0.160362  -0.147719   0.362568   0.291056   0.071099
     20       0.177326  -0.113876  -0.360371   0.153474   0.139816   0.245977
     21       0.159379  -0.134060  -0.289497  -0.092031  -0.071087   0.305805
     22      -0.076767   0.058469   0.157021   0.132397  -0.409877  -0.035665
     23       0.008663  -0.004527  -0.016696   0.102586  -0.045415  -0.012111
     24       0.159665  -0.135336   0.289006  -0.092126   0.070787   0.305403
     25       0.076946  -0.058681   0.156787  -0.133930  -0.409612   0.036522
     26      -0.008724   0.004674  -0.016793  -0.102681  -0.045317   0.011951
     27      -0.191507  -0.032010  -0.282159  -0.038422  -0.096141  -0.195565
     28       0.030329   0.160621  -0.147357  -0.361732   0.292016  -0.069984
     29      -0.177648   0.115263  -0.360188  -0.152616   0.140377  -0.246471
     30      -0.213740  -0.132156  -0.141190   0.455169  -0.098031  -0.175170
     31       0.129757  -0.476032   0.181937   0.074717   0.117757  -0.169267
     32      -0.264982   0.224293  -0.173031   0.071374  -0.170652   0.032325
     33       0.021661  -0.253806   0.138906   0.019493   0.326235   0.408150
     34      -0.473188   0.060629  -0.102346  -0.112901  -0.180439   0.252111
     35      -0.032782   0.055961  -0.027864   0.025495   0.025013   0.024769
     36       0.021475  -0.252873  -0.139336   0.018640  -0.326550   0.407279
     37       0.473231  -0.060281  -0.102894   0.112486  -0.180695  -0.251964
     38       0.032637  -0.055925  -0.028028  -0.025421   0.025088  -0.024465
     39      -0.213768  -0.132629   0.141089   0.455614   0.097524  -0.176960
     40      -0.129529   0.475112   0.183414  -0.074587   0.117942   0.169161
     41       0.264980  -0.223769  -0.173967  -0.071767  -0.170788  -0.031849
                 18         19         20         21         22         23    
      0       0.135155   0.087096   0.016110   0.044495  -0.102309  -0.009967
      1       0.010768   0.135904  -0.002096   0.084801  -0.010828  -0.002752
      2      -0.005638   0.005431   0.024644   0.002686   0.022530  -0.135292
      3      -0.134792   0.087225  -0.016979   0.043875   0.102634  -0.009927
      4       0.010737  -0.135929  -0.000476  -0.084822  -0.011472   0.002694
      5      -0.006165  -0.005469   0.024802  -0.002306   0.022188   0.135308
      6       0.112716  -0.108699   0.003650  -0.092143  -0.015338   0.016822
      7      -0.061797   0.055827   0.020980   0.032545  -0.146333   0.001861
      8       0.002050  -0.018066  -0.089443  -0.033093  -0.037175  -0.051449
      9       0.000020   0.014631  -0.000065   0.009688   0.000073  -0.002662
     10       0.046353  -0.000026  -0.041868  -0.000952   0.397297   0.000182
     11       0.006407  -0.000030   0.165061   0.001558   0.004958  -0.000083
     12       0.000014   0.017200  -0.000477   0.045826   0.000127   0.006520
     13      -0.021834   0.000012   0.005716   0.000137  -0.062218  -0.000036
     14       0.000994   0.000008  -0.025676  -0.000246  -0.002324   0.000013
     15      -0.112944  -0.108557  -0.001795  -0.092249   0.014677   0.016731
     16      -0.061962  -0.055731   0.021495  -0.031709  -0.146622  -0.001929
     17       0.001772   0.018144  -0.090052   0.031513  -0.037005   0.051510
     18       0.341403   0.266990   0.153364  -0.335084   0.153966  -0.045839
     19       0.181844   0.406257   0.125329  -0.427398   0.360302   0.171961
     20      -0.144915   0.051075  -0.048136   0.001969   0.065716   0.157814
     21       0.066081   0.209091  -0.281258   0.107864  -0.025262   0.177560
     22       0.244673   0.218772  -0.267822   0.075909  -0.053207  -0.213528
     23      -0.024823   0.018732  -0.005330   0.011937   0.034495  -0.100091
     24      -0.067996   0.209142   0.279208   0.112903   0.025508   0.177529
     25       0.244062  -0.219233  -0.266125  -0.080591  -0.053992   0.213578
     26      -0.024975  -0.018765  -0.005078  -0.012153   0.034174   0.100109
     27      -0.339711   0.267319  -0.146892  -0.337381  -0.156095  -0.046189
     28       0.181753  -0.406491   0.116896   0.428614   0.363537  -0.171592
     29      -0.143272  -0.050965  -0.048203  -0.003031   0.066028  -0.157873
     30       0.423885  -0.319832  -0.212981   0.336344  -0.242999   0.254076
     31      -0.006422   0.005745  -0.180296   0.197367  -0.308376   0.006327
     32       0.124010  -0.082029   0.059950   0.016269   0.048781   0.096119
     33       0.155591  -0.124632   0.349333   0.042188  -0.250721  -0.503357
     34       0.086211  -0.031465   0.289474   0.095472   0.006026  -0.072610
     35       0.046279  -0.043527  -0.011312  -0.020561   0.015142  -0.052773
     36      -0.158373  -0.124568  -0.350508   0.034950   0.251964  -0.502624
     37       0.087906   0.031240   0.291580  -0.089931   0.005545   0.072319
     38       0.046432   0.043457  -0.011749   0.020354   0.015313   0.052760
     39      -0.422943  -0.319260   0.206344   0.339581   0.244764   0.254327
     40      -0.007375  -0.005548  -0.176341  -0.199966  -0.309899  -0.006555
     41       0.124250   0.081762   0.060188  -0.015145   0.049228  -0.096202
                 24         25         26         27         28         29    
      0      -0.064795  -0.018734   0.018346  -0.039514   0.096101  -0.009255
      1       0.018730   0.012506  -0.041172  -0.102344   0.086724   0.004204
      2       0.036450  -0.049317  -0.026754   0.014838   0.013549  -0.000527
      3       0.064818   0.018831   0.018174  -0.030621  -0.099928   0.008473
      4       0.018696   0.012776   0.041111   0.094005   0.097474   0.004970
      5       0.036533  -0.049075   0.027073  -0.015972   0.011888  -0.001316
      6      -0.117139  -0.067409  -0.107062  -0.017012   0.003290  -0.028539
      7      -0.042811  -0.054785  -0.057455  -0.029645  -0.054747   0.047023
      8      -0.035736   0.026767   0.007881  -0.021270  -0.004030  -0.017714
      9      -0.000010   0.000016  -0.001468  -0.006072  -0.000326  -0.000179
     10      -0.023134   0.054142  -0.000160  -0.004004   0.089034   0.015222
     11      -0.025114   0.046655  -0.000097   0.000722  -0.015521  -0.009485
     12       0.000019   0.000095   0.035439   0.012190   0.000659  -0.000060
     13       0.014601  -0.005031   0.000008   0.000687  -0.015274  -0.001280
     14       0.001864  -0.007820   0.000014  -0.000141   0.003009   0.000046
     15       0.117069   0.066783  -0.107561  -0.016604  -0.005103   0.025935
     16      -0.042782  -0.054465   0.057825   0.034426  -0.051256   0.042448
     17      -0.035686   0.026780  -0.008097   0.021499  -0.001651  -0.015420
     18       0.029978  -0.196356   0.255503   0.112252  -0.267377  -0.001029
     19       0.148859  -0.164062   0.280903   0.079411  -0.468323   0.002952
     20       0.038433   0.032169  -0.011546  -0.011521  -0.069302  -0.018625
     21      -0.167950   0.294049  -0.125699   0.337259  -0.213018   0.029279
     22      -0.168448   0.211832  -0.249182   0.580337  -0.295489  -0.001679
     23       0.033865  -0.018680  -0.041551   0.038237  -0.016101   0.002003
     24       0.167949  -0.294726  -0.123728   0.316368   0.248783  -0.019368
     25      -0.168195   0.213578   0.247761  -0.550909  -0.357508   0.000319
     26       0.033907  -0.018316   0.041691  -0.036680  -0.020254   0.000203
     27      -0.029927   0.197877   0.254249   0.087511   0.278093   0.006193
     28       0.148675  -0.165889  -0.280060  -0.036670  -0.474594   0.004219
     29       0.038332   0.032144   0.011223   0.017739  -0.067827  -0.009645
     30       0.576271  -0.012011   0.336761   0.183962   0.080364   0.090193
     31       0.216299   0.014883   0.144699   0.052103  -0.047228  -0.249788
     32       0.050079  -0.033482   0.012430  -0.005690   0.027878   0.449461
     33       0.024943   0.506958   0.319953  -0.053927  -0.053829   0.202396
     34       0.112235   0.155795   0.134555   0.061233  -0.023944  -0.454385
     35       0.003296   0.071337   0.051343   0.004392   0.009703  -0.158066
     36      -0.024939  -0.505314   0.323198  -0.058634   0.047541  -0.182667
     37       0.112039   0.155076  -0.135492  -0.058670  -0.030473  -0.412813
     38       0.003222   0.071032  -0.051755  -0.005205   0.009230  -0.142667
     39      -0.575952   0.014126   0.336991   0.190336  -0.059942  -0.081557
     40       0.216392   0.014039  -0.145075  -0.047637  -0.052659  -0.225313
     41       0.049921  -0.033638  -0.012134   0.003136   0.028450   0.406406
                 30         31         32         33         34         35    
      0      -0.007347  -0.040354  -0.049925   0.026333   0.000456  -0.000782
      1      -0.007664   0.027334   0.027997  -0.001672   0.001019  -0.000200
      2       0.007855   0.029757   0.024639   0.004226  -0.011417   0.002905
      3      -0.008251   0.040322  -0.049965   0.026314  -0.000337   0.000859
      4       0.007202   0.027313  -0.028006   0.001671  -0.000455  -0.000922
      5      -0.007763   0.029723  -0.024651  -0.004211   0.004622   0.010912
      6      -0.024252   0.005731   0.008171   0.058933  -0.002926  -0.009781
      7       0.042730   0.004643  -0.013557   0.006526   0.011733   0.036474
      8      -0.022019   0.002150   0.001345   0.001205  -0.020097  -0.058096
      9      -0.003326  -0.000001  -0.004200  -0.805273   0.000160   0.000081
     10      -0.000769  -0.008152   0.000007   0.000092  -0.000028   0.000066
     11       0.000465  -0.000148   0.000001   0.000211   0.000796  -0.001619
     12      -0.001413   0.000000   0.003057   0.505765  -0.000400  -0.000198
     13       0.000066   0.001090  -0.000002  -0.000056  -0.000034   0.000069
[...]
     29       0.090035  -0.454997   0.451797  -0.012269  -0.006803  -0.002911
     30       0.080390  -0.005386  -0.014625  -0.177473   0.027065   0.089238
     31      -0.227853   0.014567   0.036562  -0.087197  -0.054926  -0.184071
     32       0.403727  -0.014299  -0.084021   0.003469  -0.046945  -0.157152
     33       0.185573  -0.016627  -0.046738  -0.024978   0.008231   0.022489
     34      -0.387623   0.013906   0.076175  -0.022722  -0.084137  -0.247553
     35      -0.142132   0.007463   0.027176   0.003912   0.293262   0.864126
     36       0.205244   0.016615  -0.046786  -0.025008   0.022868  -0.007093
     37       0.431687   0.013883  -0.076254   0.022892   0.247561  -0.083158
     38       0.157231   0.007442  -0.027174  -0.003797  -0.865347   0.291106
     39       0.089075   0.005378  -0.014647  -0.177394   0.087255  -0.032591
     40       0.251865   0.014556  -0.036583   0.087252   0.179425  -0.067937
     41      -0.447348  -0.014279   0.084122  -0.003611   0.153134  -0.057926
                 36         37         38         39         40         41    
      0      -0.020180   0.028819  -0.035997   0.017190   0.014766  -0.026937
      1       0.012259  -0.018216   0.027198  -0.012702  -0.012160   0.022362
      2       0.044768  -0.034547  -0.034464   0.019662   0.022999  -0.047836
      3      -0.020385  -0.028675  -0.035969  -0.017717   0.014332   0.026878
      4      -0.012376  -0.018118  -0.027183  -0.013118   0.011825   0.022322
      5      -0.045023  -0.034220   0.034492   0.020322  -0.022405  -0.047798
      6      -0.002279  -0.002491   0.009774   0.017121   0.017001   0.008327
      7       0.007355   0.006712  -0.019786  -0.035011  -0.034097  -0.015336
      8      -0.001479  -0.000172  -0.016096  -0.038575  -0.041643  -0.023993
      9       0.000399  -0.000001   0.001544  -0.000004   0.001147   0.000006
     10       0.000002   0.000594   0.000000   0.000476   0.000010   0.000023
     11      -0.000001  -0.000080   0.000006  -0.001047  -0.000008  -0.000921
     12      -0.000319   0.000001  -0.000288   0.000002  -0.000333  -0.000001
     13      -0.000000  -0.000110  -0.000000   0.000097   0.000001  -0.000003
     14      -0.000000   0.000013  -0.000001   0.000181   0.000002   0.000083
     15      -0.002254   0.002504   0.009938  -0.017358   0.016747  -0.008216
     16      -0.007276   0.006748   0.020111  -0.035484   0.033570  -0.015114
     17       0.001430  -0.000149   0.016465  -0.039151   0.041027  -0.023704
     18       0.161040  -0.271432   0.439623  -0.216539  -0.203806   0.373189
     19      -0.124980   0.200792  -0.329543   0.160786   0.153030  -0.280054
     20       0.111061  -0.173612   0.258375  -0.126371  -0.119128   0.217942
     21       0.076551  -0.064448  -0.025891   0.015433   0.023572  -0.050466
     22      -0.017065   0.014326   0.009137  -0.006428  -0.006058   0.017302
     23      -0.648567   0.584729   0.161694  -0.109589  -0.155655   0.352920
     24       0.077092   0.063954  -0.025978  -0.016052   0.023052   0.050494
     25       0.017103   0.014140  -0.009136  -0.006589   0.005840   0.017253
     26       0.652784   0.579996  -0.162147  -0.113510   0.151838   0.352805
     27       0.162882   0.270240   0.439407   0.223414  -0.198155  -0.372570
     28       0.126326   0.199835   0.329332   0.165913  -0.148793  -0.279542
     29      -0.112246  -0.172797  -0.258252  -0.130400   0.115835   0.217583
     30       0.028834   0.028263  -0.110034  -0.210665  -0.210373  -0.102204
     31      -0.069397  -0.067311   0.237747   0.460500   0.461281   0.223406
     32      -0.052200  -0.048926   0.170674   0.329665   0.329461   0.160014
     33       0.001377   0.002447   0.001823   0.005962   0.007895   0.007294
     34      -0.017195  -0.013402  -0.013466  -0.049949  -0.062516  -0.044544
     35       0.069155   0.051906   0.028907   0.136431   0.176774   0.129890
     36       0.001337  -0.002442   0.001895  -0.006079   0.007812  -0.007240
     37       0.016857  -0.013360   0.013991  -0.050803   0.061651  -0.044053
     38      -0.068055   0.051910  -0.030402   0.139047  -0.174596   0.128657
     39       0.028577  -0.028457  -0.112043   0.213650  -0.207211   0.100838
     40       0.068797  -0.067781  -0.242102   0.467000  -0.454294   0.220383
     41       0.051702  -0.049228  -0.173646   0.334027  -0.324198   0.157729


-----------
IR SPECTRUM
-----------

 Mode   freq       eps      Int      T**2         TX        TY        TZ
       cm**-1   L/(mol*cm) km/mol    a.u.
----------------------------------------------------------------------------
  6:    129.00   0.001025    5.18  0.002479  (-0.000079  0.009306  0.048912)
  7:    249.45   0.000037    0.19  0.000047  (-0.006840 -0.000023 -0.000030)
  8:    463.80   0.000516    2.61  0.000347  (-0.000001  0.018214 -0.003960)
  9:    487.16   0.000902    4.56  0.000578  ( 0.000003  0.024040  0.000160)
 10:    564.95   0.001408    7.12  0.000778  (-0.027890  0.000006 -0.000014)
 11:    596.19   0.000469    2.37  0.000246  ( 0.000037 -0.006432 -0.014293)
 12:    716.62   0.000167    0.84  0.000073  ( 0.008515  0.000006 -0.000008)
 13:    829.28   0.000358    1.81  0.000135  ( 0.011603 -0.000032  0.000032)
 14:    853.54   0.001918    9.69  0.000701  ( 0.000022  0.022172 -0.014473)
 15:    899.74   0.000070    0.35  0.000024  ( 0.004923 -0.000017 -0.000003)
 16:    923.11   0.000119    0.60  0.000040  (-0.000010  0.002846 -0.005656)
 17:    963.10   0.000038    0.19  0.000012  ( 0.003497  0.000078  0.000004)
 18:    967.36   0.001849    9.34  0.000596  (-0.000003  0.024363  0.001688)
 19:   1028.98   0.000156    0.79  0.000047  ( 0.006879 -0.000008 -0.000002)
 20:   1164.39   0.000957    4.83  0.000256  ( 0.000077 -0.015575  0.003709)
 21:   1165.68   0.000194    0.98  0.000052  (-0.007204 -0.000283  0.000053)
 22:   1181.49   0.013284   67.13  0.003509  (-0.000004  0.058865 -0.006596)
 23:   1219.23   0.000080    0.40  0.000020  (-0.004512  0.000024 -0.000003)
 24:   1250.33   0.000923    4.66  0.000230  (-0.000000  0.015141 -0.001033)
 25:   1298.25   0.001795    9.07  0.000432  ( 0.000034  0.020232 -0.004709)
 26:   1303.20   0.000284    1.44  0.000068  ( 0.008252 -0.000064  0.000011)
 27:   1334.14   0.000074    0.37  0.000017  (-0.004081 -0.000769  0.000221)
 28:   1334.48   0.001122    5.67  0.000262  (-0.000207  0.015556 -0.004511)
 29:   1434.22   0.004626   23.38  0.001006  (-0.000042 -0.028708  0.013504)
 30:   1434.77   0.000014    0.07  0.000003  (-0.000612  0.001454 -0.000687)
 31:   1487.19   0.001063    5.37  0.000223  ( 0.000007 -0.009186 -0.011776)
 32:   1498.70   0.000381    1.93  0.000079  ( 0.008910 -0.000001  0.000008)
 33:   1717.09   0.047278  238.92  0.008592  (-0.092695  0.000003 -0.000014)
 34:   2999.15   0.001277    6.45  0.000133  (-0.010557 -0.002748  0.003722)
 35:   2999.42   0.001104    5.58  0.000115  (-0.005219  0.005586 -0.007512)
 36:   3023.18   0.004674   23.62  0.000482  (-0.021964 -0.000043 -0.000098)
 37:   3029.07   0.007655   38.69  0.000789  ( 0.000075 -0.014185 -0.024237)
 38:   3086.31   0.003019   15.26  0.000305  (-0.017472  0.000072  0.000045)
 39:   3087.80   0.003957   20.00  0.000400  (-0.000216 -0.019994  0.000269)
 40:   3091.63   0.002659   13.44  0.000268  ( 0.016381 -0.000174  0.000060)
 41:   3096.71   0.006159   31.12  0.000621  ( 0.000003  0.006534 -0.024040)

* The epsilon (eps) is given for a Dirac delta lineshape.
** The dipole moment derivative (T) already includes vibrational overlap.

The first frequency considered to be a vibration is 6
The total number of vibrations considered is 36


--------------------------
THERMOCHEMISTRY AT 298.15K
--------------------------

Temperature         ...   298.15 K
Pressure            ...     1.00 atm
Total Mass          ...    84.12 AMU
Quasi RRHO          ...     True
Cut-Off Frequency   ...     1.00 cm^-1

Throughout the following assumptions are being made:
  (1) The electronic state is orbitally nondegenerate
  (2) There are no thermally accessible electronically excited states
  (3) Hindered rotations indicated by low frequency modes are not
      treated as such but are treated as vibrations and this may
      cause some error
  (4) All equations used are the standard statistical mechanics
      equations for an ideal gas
  (5) All vibrations are strictly harmonic

freq.     129.00  E(vib)   ...       0.43 
freq.     249.45  E(vib)   ...       0.31 
freq.     463.80  E(vib)   ...       0.16 
freq.     487.16  E(vib)   ...       0.15 
freq.     564.95  E(vib)   ...       0.11 
freq.     596.19  E(vib)   ...       0.10 
freq.     716.62  E(vib)   ...       0.07 
freq.     829.28  E(vib)   ...       0.04 
freq.     853.54  E(vib)   ...       0.04 
freq.     899.74  E(vib)   ...       0.03 
freq.     923.11  E(vib)   ...       0.03 
freq.     963.10  E(vib)   ...       0.03 
freq.     967.36  E(vib)   ...       0.03 
freq.    1028.98  E(vib)   ...       0.02 
freq.    1164.39  E(vib)   ...       0.01 
freq.    1165.68  E(vib)   ...       0.01 
freq.    1181.49  E(vib)   ...       0.01 
freq.    1219.23  E(vib)   ...       0.01 
freq.    1250.33  E(vib)   ...       0.01 
freq.    1298.25  E(vib)   ...       0.01 
freq.    1303.20  E(vib)   ...       0.01 
freq.    1334.14  E(vib)   ...       0.01 
freq.    1334.48  E(vib)   ...       0.01 
freq.    1434.22  E(vib)   ...       0.00 
freq.    1434.77  E(vib)   ...       0.00 
freq.    1487.19  E(vib)   ...       0.00 
freq.    1498.70  E(vib)   ...       0.00 
freq.    1717.09  E(vib)   ...       0.00 
freq.    2999.15  E(vib)   ...       0.00 
freq.    2999.42  E(vib)   ...       0.00 
freq.    3023.18  E(vib)   ...       0.00 
freq.    3029.07  E(vib)   ...       0.00 
freq.    3086.31  E(vib)   ...       0.00 
freq.    3087.80  E(vib)   ...       0.00 
freq.    3091.63  E(vib)   ...       0.00 
freq.    3096.71  E(vib)   ...       0.00 

------------
INNER ENERGY
------------

The inner energy is: U= E(el) + E(ZPE) + E(vib) + E(rot) + E(trans)
    E(el)   - is the total energy from the electronic structure calculation
              = E(kin-el) + E(nuc-el) + E(el-el) + E(nuc-nuc)
    E(ZPE)  - the the zero temperature vibrational energy from the frequency calculation
    E(vib)  - the the finite temperature correction to E(ZPE) due to population
              of excited vibrational states
    E(rot)  - is the rotational thermal energy
    E(trans)- is the translational thermal energy

Summary of contributions to the inner energy U:
Electronic energy                ...   -270.52226750 Eh
Zero point energy                ...      0.12053503 Eh      75.64 kcal/mol
Thermal vibrational correction   ...      0.00261056 Eh       1.64 kcal/mol
Thermal rotational correction    ...      0.00141627 Eh       0.89 kcal/mol
Thermal translational correction ...      0.00141627 Eh       0.89 kcal/mol
-----------------------------------------------------------------------
Total thermal energy                   -270.39628937 Eh


Summary of corrections to the electronic energy:
(perhaps to be used in another calculation)
Total thermal correction                  0.00544310 Eh       3.42 kcal/mol
Non-thermal (ZPE) correction              0.12053503 Eh      75.64 kcal/mol
-----------------------------------------------------------------------
Total correction                          0.12597813 Eh      79.05 kcal/mol


--------
ENTHALPY
--------

The enthalpy is H = U + kB*T
                kB is Boltzmann's constant
Total thermal energy              ...   -270.39628937 Eh 
Thermal Enthalpy correction       ...      0.00094421 Eh       0.59 kcal/mol
-----------------------------------------------------------------------
Total Enthalpy                    ...   -270.39534516 Eh


Note: Only C1 symmetry has been detected, increase convergence thresholds 
      if your molecule has a higher symmetry. Symmetry factor of 1.0 is   
      used for the rotational entropy correction. 
 

Note: Rotational entropy computed according to Herzberg 
Infrared and Raman Spectra, Chapter V,1, Van Nostrand Reinhold, 1945 
Point Group:  C1, Symmetry Number:   1  
Rotational constants in cm-1:     0.223146     0.111940     0.080713 

Vibrational entropy computed according to the QRRHO of S. Grimme
Chem.Eur.J. 2012 18 9955 using a reference frequency of 100.0 cm-1


-------
ENTROPY
-------

The entropy contributions are T*S = T*(S(el)+S(vib)+S(rot)+S(trans))
     S(el)   - electronic entropy
     S(vib)  - vibrational entropy
     S(rot)  - rotational entropy
     S(trans)- translational entropy
The entropies will be listed as multiplied by the temperature to get
units of energy

Electronic entropy                ...      0.00000000 Eh      0.00 kcal/mol
Vibrational entropy               ...      0.00408863 Eh      2.57 kcal/mol
Rotational entropy                ...      0.01244088 Eh      7.81 kcal/mol
Translational entropy             ...      0.01862630 Eh     11.69 kcal/mol
-----------------------------------------------------------------------
Final entropy term                ...      0.03515580 Eh     22.06 kcal/mol

In case the symmetry of your molecule has not been determined correctly
or in case you have a reason to use a different symmetry number we print 
out the resulting rotational entropy values for sn=1,12:

 non-linear molecules -----------------------------------
|  sn= 1 | S(rot)=       0.01244088 Eh      7.81 kcal/mol|
|  sn= 2 | S(rot)=       0.01178642 Eh      7.40 kcal/mol|
|  sn= 3 | S(rot)=       0.01140359 Eh      7.16 kcal/mol|
|  sn= 4 | S(rot)=       0.01113196 Eh      6.99 kcal/mol|
|  sn= 5 | S(rot)=       0.01092128 Eh      6.85 kcal/mol|
|  sn= 6 | S(rot)=       0.01074913 Eh      6.75 kcal/mol|
|  sn= 7 | S(rot)=       0.01060359 Eh      6.65 kcal/mol|
|  sn= 8 | S(rot)=       0.01047751 Eh      6.57 kcal/mol|
|  sn= 9 | S(rot)=       0.01036630 Eh      6.50 kcal/mol|
|  sn=10 | S(rot)=       0.01026682 Eh      6.44 kcal/mol|
|  sn=11 | S(rot)=       0.01017683 Eh      6.39 kcal/mol|
|  sn=12 | S(rot)=       0.01009468 Eh      6.33 kcal/mol|
 linear molecules ---------------------------------------
|  Dinfh | S(rot)=       0.00770217 Eh      4.83 kcal/mol|
|  Cinfv | S(rot)=       0.00835663 Eh      5.24 kcal/mol|
 --------------------------------------------------------


-------------------
GIBBS FREE ENERGY
-------------------

The Gibbs free energy is G = H - T*S

Total enthalpy                    ...   -270.39534516 Eh 
Total entropy correction          ...     -0.03515580 Eh    -22.06 kcal/mol
-----------------------------------------------------------------------
Final Gibbs free energy         ...   -270.43050096 Eh

For completeness - the Gibbs free energy minus the electronic energy
G-E(el)                           ...      0.09176654 Eh     57.58 kcal/mol


Maximum memory used throughout the entire PROP-calculation: 47.0 MB

--------------------------------
SUGGESTED CITATIONS FOR THIS RUN
--------------------------------

Below you find a list of papers that are relevant to this ORCA run
We neither can nor want to force you to cite these papers, but we appreciate if you do
You receive ORCA, which is the product of decades of hard work by many enthusiastic individuals, for free
The only thing we kindly ask in return is that you cite our papers,
We deeply appreciate it, if you show your appreciation for ORCA by not just citing the generic ORCA reference.

Please note that relegating all ORCA citations to the supporting information does *not* help us.
SI sections are not indexed - citations you put there will not count into any citation statistics
But we need these citations in order to attract the funding resources that allow us to do what we are doing

Therefore, if you are a happy ORCA user, please consider citing a few of the papers listed below in the main body of your paper

In addition to the list printed below, the program has created the file censo.bibtex that contains the list in bibtex format
You can import this file easily into all common literature databanks and citation aid programs


List of essential papers. We consider these as the minimum necessary citations

  1. Neese,F.
     Software update: the ORCA program system, version 5.0
     WIRES Comput. Molec. Sci., 2022 12(1)e1606
     doi.org/10.1002/wcms.1606
  2. Grimme,S.; Hansen,A.; Ehlert,S.; Mewes,J.
     r2SCAN-3c: A 'Swiss army knife' composite electronic-structure method
     J. Chem. Phys., 2021 154 064103
     doi.org/10.1063/5.0040021

List of papers to cite with high priority. The work reported in these papers was absolutely
necessary for this run to complete.
Our perspective: the developers of density functionals and basis sets usually get cited in chemistry papers
Good! But without the algorithms to do something with them, the functionals or basis sets would not do anything.
Hence, in our opinion, the algorithm design and method developments papers are equally worthy of getting cited

  1. Neese,F.
     An improvement of the resolution of the identity approximation for the formation of the Coulomb matrix
     J. Comp. Chem., 2003 24(14)1740-1747
     doi.org/10.1002/jcc.10318
  2. Bykov,D.; Petrenko,T.; Izsak,R.; Kossmann,S.; Becker,U.; Valeev,E.; Neese,F.
     Efficient implementation of the analytic second derivatives of Hartree-Fock and hybrid DFT energies: a detailed analysis of different approximations
     Molec. Phys., 2015 113 1961-1977
     doi.org/10.1080/00268976.2015.1025114
  3. Neese,F.
     The SHARK Integral Generation and Digestion System
     J. Comp. Chem., 2022  1-16
     doi.org/10.1002/jcc.26942
  4. Lehtola,S.; Steigemann,C.; Oliveira,M.; Marques,M.
     Recent developments in Libxc - A comprehensive library of functionals for density functional theory
     Software X, 2018 7 
     doi.org/10.1016/j.softx.2017.11.002
  5. Caldeweyher,E.; Bannwarth,C.; Grimme,S.
     Extension of the D3 dispersion coefficient model
     J. Chem. Phys., 2017 147 034112-XXXX
     doi.org/10.1063/1.4993215
  6. Caldeweyher,E.; Ehlert,S.; Hansen,A.; Neugebauer,H.; Spicher,S.; Bannwarth,C.; Grimme,S.
     A generally applicable atomic-charge dependent London dispersion correction
     J. Chem. Phys., 2019 150 154122-XXXX
     doi.org/10.1063/1.5090222
  7. Caldeweyher,E.; Mewes,J.; Ehlert,S.; Grimme,S.
     Extension and evaluation of the D4 London-dispersion model for periodic systems
     Phys. Chem. Chem. Phys., 2020 22(16)8499-8512
     doi.org/10.1039/D0CP00502A

List of suggested additional citations. These are papers that are important in the 'surrounding' of 
of this run, or papers that preceded the highly important papers. If you like your results we are grateful for a citation.

  1. Neese,F.
     The ORCA program system
     WIRES Comput. Molec. Sci., 2012 2(1)73-78
     doi.org/10.1002/wcms.81
  2. Neese,F.
     Software update: the ORCA program system, version 4.0
     WIRES Comput. Molec. Sci., 2018 8(1)1-6
     doi.org/10.1002/wcms.1327
  3. Neese,F.; Wennmohs,F.; Becker,U.; Riplinger,C.
     The ORCA quantum chemistry program package
     J. Chem. Phys., 2020 152 Art. No. L224108
     doi.org/10.1063/5.0004608

List of optional additional citations

  1. Neese,F.
     Approximate second-order SCF convergence for spin unrestricted wavefunctions
     Chem. Phys. Lett., 2000 325(1-3)93-98
     doi.org/10.1016/s0009-2614(00)00662-x

Timings for individual modules:

Sum of individual times          ...      429.654 sec (=   7.161 min)
Startup calculation              ...        0.926 sec (=   0.015 min)   0.2 %
SCF iterations                   ...       24.618 sec (=   0.410 min)   5.7 %
Property integrals               ...      248.684 sec (=   4.145 min)  57.9 %
SCF Response                     ...       74.641 sec (=   1.244 min)  17.4 %
Property calculations            ...       80.785 sec (=   1.346 min)  18.8 %
                             ****ORCA TERMINATED NORMALLY****
TOTAL RUN TIME: 0 days 0 hours 7 minutes 10 seconds 324 msec
