      -----------------------------------------------------------      
     |                   =====================                   |     
     |                           x T B                           |     
     |                   =====================                   |     
     |                         S. Grimme                         |     
     |          Mulliken Center for Theoretical Chemistry        |     
     |                    University of Bonn                     |     
      -----------------------------------------------------------      

   * xtb version 6.7.1 (edcfbbe) compiled by 'albert@albert-system' on 2024-07-22

   xtb is free software: you can redistribute it and/or modify it under
   the terms of the GNU Lesser General Public License as published by
   the Free Software Foundation, either version 3 of the License, or
   (at your option) any later version.
   
   xtb is distributed in the hope that it will be useful,
   but WITHOUT ANY WARRANTY; without even the implied warranty of
   MERCHANTABILITY or FITNESS FOR A PARTICULAR PURPOSE.  See the
   GNU Lesser General Public License for more details.
   
   Cite this work as:
   * C. Bannwarth, E. Caldeweyher, S. Ehlert, A. Hansen, P. Pracht,
     J. Seibert, S. Spicher, S. Grimme, WIREs Comput. Mol. Sci., 2020, 11,
     e01493. DOI: 10.1002/wcms.1493
   
   for GFN2-xTB:
   * C. Bannwarth, S. Ehlert and S. Grimme., J. Chem. Theory Comput., 2019,
     15, 1652-1671. DOI: 10.1021/acs.jctc.8b01176
   for GFN1-xTB:
   * S. Grimme, C. Bannwarth, P. Shushkov, J. Chem. Theory Comput., 2017,
     13, 1989-2009. DOI: 10.1021/acs.jctc.7b00118
   for GFN0-xTB:
   * P. Pracht, E. Caldeweyher, S. Ehlert, S. Grimme, ChemRxiv, 2019, preprint.
     DOI: 10.26434/chemrxiv.8326202.v1
   for GFN-FF:
   * S. Spicher and S. Grimme, Angew. Chem. Int. Ed., 2020, 59, 15665-15673.
     DOI: 10.1002/anie.202004239
   
   for ALPB and GBSA implicit solvation:
   * S. Ehlert, M. Stahn, S. Spicher, S. Grimme, J. Chem. Theory Comput.,
     2021, 17, 4250-4261. DOI: 10.1021/acs.jctc.1c00471
   
   for ddCOSMO and CPCM-X implicit solvation:
   * M. Stahn, S. Ehlert, S. Grimme, J. Phys. Chem. A,
     2023, XX, XXXX-XXXX. DOI: 10.1021/acs.jpca.3c04382
   
   for DFT-D4:
   * E. Caldeweyher, C. Bannwarth and S. Grimme, J. Chem. Phys., 2017,
     147, 034112. DOI: 10.1063/1.4993215
   * E. Caldeweyher, S. Ehlert, A. Hansen, H. Neugebauer, S. Spicher,
     C. Bannwarth and S. Grimme, J. Chem. Phys., 2019, 150, 154122.
     DOI: 10.1063/1.5090222
   * E. Caldeweyher, J.-M. Mewes, S. Ehlert and S. Grimme, Phys. Chem. Chem. Phys.
     2020, 22, 8499-8512. DOI: 10.1039/D0CP00502A
   
   for sTDA-xTB:
   * S. Grimme and C. Bannwarth, J. Chem. Phys., 2016, 145, 054103.
     DOI: 10.1063/1.4959605
   
   in the mass-spec context:
   * V. Asgeirsson, C. Bauer and S. Grimme, Chem. Sci., 2017, 8, 4879.
     DOI: 10.1039/c7sc00601b
   * J. Koopman and S. Grimme, ACS Omega 2019, 4, 12, 15120-15133.
     DOI: 10.1021/acsomega.9b02011
   
   for metadynamics refer to:
   * S. Grimme, J. Chem. Theory Comput., 2019, 155, 2847-2862
     DOI: 10.1021/acs.jctc.9b00143
   
   for SPH calculations refer to:
   * S. Spicher and S. Grimme, J. Chem. Theory Comput., 2021, 17, 1701-1714
     DOI: 10.1021/acs.jctc.0c01306
   
   for ONIOM refer to:
   * C. Plett, A. Katbashev, S. Ehlert, S. Grimme, M. Bursch,
     Phys. Chem. Chem. Phys., 2023, 25, 17860-17868. DOI: 10.1039/D3CP02178E
   
   for DIPRO refer to:
   * J. Kohn, N. Gildemeister, S. Grimme, D. Fazzi, A. Hansen,
     J. Chem. Phys., 2023, just accepted.
   
   for PTB refer to:
   * S. Grimme, M. Mueller, A. Hansen, J. Chem. Phys., 2023, 158, 124111.
     DOI: 10.1063/5.0137838
   
   with help from (in alphabetical order)
   P. Atkinson, C. Bannwarth, F. Bohle, G. Brandenburg, E. Caldeweyher
   M. Checinski, S. Dohm, S. Ehlert, S. Ehrlich, I. Gerasimov, C. Hölzer
   A. Katbashev, J. Kohn, J. Koopman, C. Lavigne, S. Lehtola, F. März, M. Müller,
   F. Musil, H. Neugebauer, J. Pisarek, C. Plett, P. Pracht, F. Pultar,
   J. Seibert, P. Shushkov, S. Spicher, M. Stahn, M. Steiner, T. Strunk,
   J. Stückrath, T. Rose, and J. Unsleber
   
 * started run on 2025/04/16 at 11:24:58.296     
   ID    Z sym.   atoms
    1    6 C      1, 2, 4, 6, 8, 10
    2    1 H      3, 5, 7, 9, 11, 18-24
    3    8 O      12-17

           -------------------------------------------------
          |                Calculation Setup                |
           -------------------------------------------------

          program call               : /software/projects/pawsey0265/mwang1/xtb/bin/xtb xtb_rrho.coord --gfn2 --bhess vtight --chrg 0 --enso --norestart -I rrho-xcontrol-inp --parallel 1
          hostname                   : nid002811
          coordinate file            : xtb_rrho.coord
          omp threads                :                     1


           -------------------------------------------------
          |                 G F N 2 - x T B                 |
           -------------------------------------------------

        Reference                      10.1021/acs.jctc.8b01176
      * Hamiltonian:
        H0-scaling (s, p, d)           1.850000    2.230000    2.230000
        zeta-weighting                 0.500000
      * Dispersion:
        s8                             2.700000
        a1                             0.520000
        a2                             5.000000
        s9                             5.000000
      * Repulsion:
        kExp                           1.500000    1.000000
        rExp                           1.000000
      * Coulomb:
        alpha                          2.000000
        third order                    shell-resolved
        anisotropic                    true
        a3                             3.000000
        a5                             4.000000
        cn-shift                       1.200000
        cn-exp                         4.000000
        max-rad                        5.000000


          ...................................................
          :                      SETUP                      :
          :.................................................:
          :  # basis functions                  60          :
          :  # atomic orbitals                  60          :
          :  # shells                           36          :
          :  # electrons                        72          :
          :  max. iterations                   250          :
          :  Hamiltonian                  GFN2-xTB          :
          :  restarted?                      false          :
          :  GBSA solvation                  false          :
          :  PC potential                    false          :
          :  electronic temp.          300.0000000     K    :
          :  accuracy                    1.0000000          :
          :  -> integral cutoff          0.2500000E+02      :
          :  -> integral neglect         0.1000000E-07      :
          :  -> SCF convergence          0.1000000E-05 Eh   :
          :  -> wf. convergence          0.1000000E-03 e    :
          :  Broyden damping             0.4000000          :
          :  net charge                          0          :
          :  unpaired electrons                  0          :
          ...................................................

 iter      E             dE          RMSdq      gap      omega  full diag
   1    -43.6176155 -0.436176E+02  0.453E+00   10.03       0.0  T
   2    -43.6523767 -0.347611E-01  0.247E+00    9.80       1.0  T
   3    -43.6533553 -0.978642E-03  0.727E-01    9.75       1.0  T
   4    -43.6544188 -0.106344E-02  0.142E-01    9.71       1.0  T
   5    -43.6544901 -0.712901E-04  0.573E-02    9.75       1.0  T
   6    -43.6545004 -0.103089E-04  0.195E-02    9.76       1.0  T
   7    -43.6545010 -0.655635E-06  0.594E-03    9.75       3.4  T
   8    -43.6545013 -0.295574E-06  0.167E-03    9.75      12.2  T
   9    -43.6545013 -0.607012E-08  0.712E-04    9.75      28.7  T
  10    -43.6545013 -0.253021E-08  0.267E-04    9.75      76.5  T

   *** convergence criteria satisfied after 10 iterations ***

         #    Occupation            Energy/Eh            Energy/eV
      -------------------------------------------------------------
         1        2.0000           -0.7377337             -20.0748
       ...           ...                  ...                  ...
        30        2.0000           -0.4691614             -12.7665
        31        2.0000           -0.4560821             -12.4106
        32        2.0000           -0.4491032             -12.2207
        33        2.0000           -0.4433092             -12.0631
        34        2.0000           -0.4283817             -11.6569
        35        2.0000           -0.4243875             -11.5482
        36        2.0000           -0.4038658             -10.9897 (HOMO)
        37                         -0.0454527              -1.2368 (LUMO)
        38                         -0.0389214              -1.0591
        39                         -0.0202229              -0.5503
        40                          0.0070145               0.1909
        41                          0.0326492               0.8884
       ...                                ...                  ...
        60                          0.2912243               7.9246
      -------------------------------------------------------------
                  HL-Gap            0.3584131 Eh            9.7529 eV
             Fermi-level           -0.2246593 Eh           -6.1133 eV

 SCC (total)                   0 d,  0 h,  0 min,  0.046 sec
 SCC setup                      ...        0 min,  0.000 sec (  0.539%)
 Dispersion                     ...        0 min,  0.000 sec (  0.406%)
 classical contributions        ...        0 min,  0.000 sec (  0.101%)
 integral evaluation            ...        0 min,  0.003 sec (  6.380%)
 iterations                     ...        0 min,  0.035 sec ( 77.023%)
 molecular gradient             ...        0 min,  0.007 sec ( 15.254%)
 printout                       ...        0 min,  0.000 sec (  0.252%)

         :::::::::::::::::::::::::::::::::::::::::::::::::::::
         ::                     SUMMARY                     ::
         :::::::::::::::::::::::::::::::::::::::::::::::::::::
         :: total energy             -43.360172866206 Eh    ::
         :: gradient norm              0.046296567204 Eh/a0 ::
         :: HOMO-LUMO gap              9.752916220674 eV    ::
         ::.................................................::
         :: SCC energy               -43.654304739502 Eh    ::
         :: -> isotropic ES            0.139742775271 Eh    ::
         :: -> anisotropic ES         -0.002697751355 Eh    ::
         :: -> anisotropic XC         -0.007981170566 Eh    ::
         :: -> dispersion             -0.020679194763 Eh    ::
         :: repulsion energy           0.294131873296 Eh    ::
         :: add. restraining           0.000000000000 Eh    ::
         :: total charge               0.000000000000 e     ::
         :::::::::::::::::::::::::::::::::::::::::::::::::::::

metadynamics with 1 initial structures loaded
           -------------------------------------------------
          |           Optimal kpush determination           |
           -------------------------------------------------
      ----------------------------------------------------------- 
     |                   =====================                   |
     |                        A N C O P T                        |
     |                   =====================                   |
     |               Approximate Normal Coordinate               |
     |                Rational Function Optimizer                |
      ----------------------------------------------------------- 
target rmsd / Å         0.100000
unbiased initial rmsd   0.068802
 
iter. min.        max.        rmsd       kpush
final kpush:  0.000000
           -------------------------------------------------
          |            Biased Numerical Hessian             |
           -------------------------------------------------
kpush                :   0.00000
alpha                :   1.00000
step length          :   0.00500
SCC accuracy         :   0.30000
Hessian scale factor :   1.00000
frozen atoms in %    :   0.00000    0
RMS gradient         :   0.00006
estimated CPU  time      0.05 min
estimated wall time      0.05 min

writing file <hessian>.

 projected vibrational frequencies (cm⁻¹)
eigval :       -0.00    -0.00    -0.00    -0.00    -0.00     0.00
eigval :       65.44   113.71   166.47   183.31   223.51   268.88
eigval :      285.53   295.15   310.12   321.05   370.11   376.04
eigval :      385.45   435.48   468.16   482.72   559.33   571.44
eigval :      573.97   626.18   666.93   743.93   802.84   860.26
eigval :      875.59   897.23   954.83   992.61  1019.03  1065.71
eigval :     1072.96  1080.13  1090.30  1102.31  1126.39  1127.04
eigval :     1174.78  1189.32  1206.39  1214.35  1225.40  1264.24
eigval :     1270.76  1289.22  1302.55  1308.42  1323.54  1330.33
eigval :     1331.11  1347.55  1351.66  1356.83  1375.53  1465.02
eigval :     2870.23  2885.35  2895.20  2905.98  2920.86  2961.49
eigval :     2981.76  3221.10  3290.10  3452.98  3525.81  3535.93
           -------------------------------------------------
          |                Property Printout                |
           -------------------------------------------------

    * Orbital Energies and Occupations

         #    Occupation            Energy/Eh            Energy/eV
      -------------------------------------------------------------
         1        2.0000           -0.7394212             -20.1207
       ...           ...                  ...                  ...
        24        2.0000           -0.5142273             -13.9928
        25        2.0000           -0.5115264             -13.9193
        26        2.0000           -0.5052395             -13.7483
        27        2.0000           -0.4941478             -13.4464
        28        2.0000           -0.4894740             -13.3193
        29        2.0000           -0.4734038             -12.8820
        30        2.0000           -0.4652802             -12.6609
        31        2.0000           -0.4536280             -12.3438
        32        2.0000           -0.4486167             -12.2075
        33        2.0000           -0.4398761             -11.9696
        34        2.0000           -0.4251385             -11.5686
        35        2.0000           -0.4195993             -11.4179
        36        2.0000           -0.4018008             -10.9336 (HOMO)
        37                         -0.0253162              -0.6889 (LUMO)
        38                         -0.0186438              -0.5073
        39                          0.0005568               0.0152
        40                          0.0229022               0.6232
        41                          0.0342189               0.9311
        42                          0.0452100               1.2302
        43                          0.0587406               1.5984
        44                          0.0675193               1.8373
        45                          0.0937503               2.5511
        46                          0.1000492               2.7225
        47                          0.1108263               3.0157
       ...                                ...                  ...
        60                          0.3059897               8.3264
      -------------------------------------------------------------
                  HL-Gap            0.3764846 Eh           10.2447 eV
             Fermi-level           -0.2135585 Eh           -5.8112 eV

     #   Z          covCN         q      C6AA      α(0)
     1   6 C        3.672     0.067    19.679     6.358
     2   6 C        3.733     0.085    19.249     6.262
     3   1 H        0.923     0.045     2.379     2.412
     4   6 C        3.723     0.092    19.166     6.252
     5   1 H        0.923     0.033     2.543     2.494
     6   6 C        3.725     0.102    19.000     6.224
     7   1 H        0.923     0.072     2.062     2.245
     8   6 C        3.724     0.083    19.305     6.274
     9   1 H        0.924     0.073     2.053     2.241
    10   6 C        3.611     0.234    17.408     6.024
    11   1 H        0.923     0.048     2.342     2.393
    12   8 O        1.700    -0.337    19.654     5.986
    13   8 O        1.655    -0.457    21.979     6.329
    14   8 O        1.656    -0.445    21.743     6.295
    15   8 O        1.655    -0.458    22.003     6.332
    16   8 O        1.656    -0.448    21.803     6.303
    17   8 O        1.654    -0.459    22.031     6.336
    18   1 H        0.924     0.050     2.321     2.382
    19   1 H        0.923     0.037     2.492     2.469
    20   1 H        0.805     0.313     0.682     1.297
    21   1 H        0.804     0.318     0.670     1.285
    22   1 H        0.803     0.324     0.653     1.269
    23   1 H        0.805     0.297     0.730     1.342
    24   1 H        0.803     0.330     0.638     1.255

 Mol. C6AA /au·bohr⁶  :       4696.393939
 Mol. C8AA /au·bohr⁸  :      99938.837626
 Mol. α(0) /au        :         98.061540


Wiberg/Mayer (AO) data.
largest (>0.10) Wiberg bond orders for each atom

 ---------------------------------------------------------------------------
     #   Z sym  total        # sym  WBO       # sym  WBO       # sym  WBO
 ---------------------------------------------------------------------------
     1   6 C    3.962 --    17 O    1.012    18 H    0.971     2 C    0.969
                            19 H    0.967
     2   6 C    3.949 --     1 C    0.969     4 C    0.969    12 O    0.964
                             3 H    0.955
     3   1 H    0.998 --     2 C    0.955
     4   6 C    3.952 --    16 O    0.987     2 C    0.969     6 C    0.964
                             5 H    0.959
     5   1 H    0.999 --     4 C    0.959
     6   6 C    3.964 --    15 O    1.025     4 C    0.964     8 C    0.957
                             7 H    0.953
     7   1 H    0.995 --     6 C    0.953
     8   6 C    3.960 --    14 O    1.009     9 H    0.957     6 C    0.957
                            10 C    0.954
     9   1 H    0.995 --     8 C    0.957
    10   6 C    3.917 --    12 O    0.982    13 O    0.968     8 C    0.954
                            11 H    0.951
    11   1 H    0.998 --    10 C    0.951
    12   8 O    2.097 --    10 C    0.982     2 C    0.964
    13   8 O    2.011 --    10 C    0.968    20 H    0.886
    14   8 O    1.962 --     8 C    1.009    21 H    0.871
    15   8 O    1.963 --     6 C    1.025    22 H    0.829
    16   8 O    1.968 --     4 C    0.987    23 H    0.892
    17   8 O    1.997 --     1 C    1.012    24 H    0.826
    18   1 H    0.998 --     1 C    0.971
    19   1 H    0.999 --     1 C    0.967
    20   1 H    0.902 --    13 O    0.886
    21   1 H    0.899 --    14 O    0.871
    22   1 H    0.895 --    15 O    0.829
    23   1 H    0.912 --    16 O    0.892
    24   1 H    0.891 --    17 O    0.826
 ---------------------------------------------------------------------------

Topologies differ in total number of bonds
Writing topology from bond orders to xtbtopo.mol

molecular dipole:
                 x           y           z       tot (Debye)
 q only:       -0.820      -0.767       0.718
   full:       -1.226      -1.199       1.163       5.267
molecular quadrupole (traceless):
                xx          xy          yy          xz          yz          zz
 q only:       -1.098      -4.035       3.086      -5.309       4.883      -1.988
  q+dip:       -1.390      -6.371       6.733      -8.117       5.115      -5.343
   full:       -1.678      -6.182       5.681      -7.944       5.880      -4.002

           -------------------------------------------------
          |                Geometry Summary                 |
           -------------------------------------------------

      molecular mass/u    :      180.1561339
   center of mass at/Å    :       -0.0000434      -0.0000389      -0.0000299
  moments of inertia/u·Å² :        0.4281359E+03   0.5394722E+03   0.6023791E+03
rotational constants/cm⁻¹ :        0.3937449E-01   0.3124838E-01   0.2798509E-01

 * 19 selected distances

     #   Z          #   Z                                           value/Å
     2   6 C        3   1 H                                       1.1005009
     4   6 C        5   1 H                                       1.1010186
     6   6 C        7   1 H                                       1.0986411
     8   6 C        9   1 H                                       1.0948772
    10   6 C       11   1 H                                       1.0998552
     2   6 C       12   8 O                                       1.4225410 (max)
    10   6 C       12   8 O                                       1.4003545
    10   6 C       13   8 O                                       1.4115796
     8   6 C       14   8 O                                       1.4027721
     6   6 C       15   8 O                                       1.3901499
     4   6 C       16   8 O                                       1.4149842
     1   6 C       17   8 O                                       1.4009597
     1   6 C       18   1 H                                       1.0929507
     1   6 C       19   1 H                                       1.0992124
    13   8 O       20   1 H                                       0.9650300
    14   8 O       21   1 H                                       0.9691448
    15   8 O       22   1 H                                       0.9771498
    16   8 O       23   1 H                                       0.9639047 (min)
    17   8 O       24   1 H                                       0.9803923

 * 3 distinct bonds (by element types)

   Z      Z             #   av. dist./Å        max./Å        min./Å
   1 H    6 C           7     1.0981509     1.1010186     1.0929507
   1 H    8 O           5     0.9711243     0.9803923     0.9639047
   6 C    8 O           7     1.4061916     1.4225410     1.3901499

           -------------------------------------------------
          |               Frequency Printout                |
           -------------------------------------------------
 projected vibrational frequencies (cm⁻¹)
eigval :       -0.00    -0.00    -0.00    -0.00    -0.00     0.00
eigval :       65.44   113.71   166.47   183.31   223.51   268.88
eigval :      285.53   295.15   310.12   321.05   370.11   376.04
eigval :      385.45   435.48   468.16   482.72   559.33   571.44
eigval :      573.97   626.18   666.93   743.93   802.84   860.26
eigval :      875.59   897.23   954.83   992.61  1019.03  1065.71
eigval :     1072.96  1080.13  1090.30  1102.31  1126.39  1127.04
eigval :     1174.78  1189.32  1206.39  1214.35  1225.40  1264.24
eigval :     1270.76  1289.22  1302.55  1308.42  1323.54  1330.33
eigval :     1331.11  1347.55  1351.66  1356.83  1375.53  1465.02
eigval :     2870.23  2885.35  2895.20  2905.98  2920.86  2961.49
eigval :     2981.76  3221.10  3290.10  3452.98  3525.81  3535.93
 reduced masses (amu)
   1: 13.45   2: 13.15   3: 13.53   4: 13.39   5: 13.38   6: 13.38   7: 13.51   8: 12.26
   9: 12.67  10: 14.20  11: 13.92  12: 13.39  13: 13.31  14:  4.12  15: 11.79  16: 12.72
  17:  8.50  18: 11.86  19:  7.30  20: 12.15  21: 12.58  22:  4.27  23: 11.27  24: 12.37
  25:  3.49  26: 12.89  27: 10.65  28:  2.82  29: 11.19  30:  9.83  31:  8.95  32: 10.43
  33:  7.18  34:  9.86  35: 11.63  36:  8.35  37:  9.57  38:  9.95  39:  9.91  40:  9.66
  41: 10.67  42: 10.75  43:  3.75  44:  3.04  45:  3.43  46:  3.59  47:  5.00  48:  4.78
  49:  3.75  50:  4.30  51:  3.72  52:  3.94  53:  3.65  54:  4.32  55:  3.69  56:  4.02
  57:  4.41  58:  3.79  59:  3.78  60:  1.77  61:  1.73  62:  1.73  63:  1.75  64:  1.73
  65:  1.74  66:  1.75  67:  1.69  68:  1.89  69:  1.86  70:  1.88  71:  1.87  72:  1.87
 IR intensities (km·mol⁻¹)
   1:  1.54   2:  0.16   3:  0.56   4:  1.76   5:  0.48   6:  0.30   7:  2.30   8:  5.05
   9:  3.46  10:  0.96  11:  2.66  12:  8.20  13:  4.73  14: 98.87  15:  8.18  16:  4.19
  17: 30.93  18:  4.98  19: 94.73  20: 27.30  21: 43.36  22:192.04  23: 40.73  24:  6.15
  25:111.47  26: 24.77  27:  8.25  28:216.85  29: 13.63  30: 12.73  31: 40.11  32: 27.84
  33: 62.18  34: 20.02  35:105.53  36: 30.76  37: 28.64  38:137.39  39: 79.58  40: 16.95
  41:234.13  42: 40.25  43: 35.96  44: 22.07  45: 13.52  46: 92.47  47: 26.49  48:  5.63
  49:  4.43  50: 14.59  51: 23.29  52: 14.68  53: 16.39  54: 32.52  55: 40.17  56: 26.25
  57: 97.10  58:100.09  59:111.84  60:  2.40  61: 50.04  62: 29.23  63: 68.96  64: 41.19
  65: 24.83  66: 15.84  67: 35.39  68:303.14  69:438.81  70: 73.11  71: 22.83  72:  7.89
 Raman intensities (Ä⁴*amu⁻¹)
   1:  0.00   2:  0.00   3:  0.00   4:  0.00   5:  0.00   6:  0.00   7:  0.00   8:  0.00
   9:  0.00  10:  0.00  11:  0.00  12:  0.00  13:  0.00  14:  0.00  15:  0.00  16:  0.00
  17:  0.00  18:  0.00  19:  0.00  20:  0.00  21:  0.00  22:  0.00  23:  0.00  24:  0.00
  25:  0.00  26:  0.00  27:  0.00  28:  0.00  29:  0.00  30:  0.00  31:  0.00  32:  0.00
  33:  0.00  34:  0.00  35:  0.00  36:  0.00  37:  0.00  38:  0.00  39:  0.00  40:  0.00
  41:  0.00  42:  0.00  43:  0.00  44:  0.00  45:  0.00  46:  0.00  47:  0.00  48:  0.00
  49:  0.00  50:  0.00  51:  0.00  52:  0.00  53:  0.00  54:  0.00  55:  0.00  56:  0.00
  57:  0.00  58:  0.00  59:  0.00  60:  0.00  61:  0.00  62:  0.00  63:  0.00  64:  0.00
  65:  0.00  66:  0.00  67:  0.00  68:  0.00  69:  0.00  70:  0.00  71:  0.00  72:  0.00
 output can be read by thermo (or use thermo option).
 writing <g98.out> molden fake output.
 recommended (thermochemical) frequency scaling factor: 1.0
           -------------------------------------------------
          |             Thermodynamic Functions             |
           -------------------------------------------------

Molecule has no symmetry elements
It seems to be the C1 point group
c1  symmetry found (for desy threshold:  0.10E+00) used in thermo

          ...................................................
          :                      SETUP                      :
          :.................................................:
          :  # frequencies                          66      :
          :  # imaginary freq.                       0      :
          :  linear?                             false      :
          :  only rotor calc.                    false      :
          :  symmetry                               c1      :
          :  rotational number                       1      :
          :  scaling factor                  1.0000000      :
          :  rotor cutoff                    0.0000000 cm⁻¹ :
          :  imag. cutoff                 -100.0000000 cm⁻¹ :
          :.................................................:

    mode    ω/cm⁻¹     T·S(HO)/kcal·mol⁻¹    T·S(FR)/kcal·mol⁻¹   T·S(vib)
   ------------------------------------------------------------------------
       1     65.44    -1.27786 (100.00%)    -0.97668 (  0.00%)    -1.27786
       2    113.71    -0.95544 (100.00%)    -0.81306 (  0.00%)    -0.95544
       3    166.47    -0.73792 (100.00%)    -0.70018 (  0.00%)    -0.73792
       4    183.31    -0.68409 (100.00%)    -0.67164 (  0.00%)    -0.68409
       5    223.51    -0.57557 (100.00%)    -0.61291 (  0.00%)    -0.57557
       6    268.88    -0.47806 (100.00%)    -0.55817 (  0.00%)    -0.47806
       7    285.53    -0.44732 (100.00%)    -0.54037 (  0.00%)    -0.44732
       8    295.15    -0.43061 (100.00%)    -0.53056 (  0.00%)    -0.43061
   ------------------------------------------------------------------------

   temp. (K)  partition function   enthalpy   heat capacity  entropy
                                   cal/mol     cal/K/mol   cal/K/mol   J/K/mol
 298.15  VIB   628.                 5517.121     40.518     31.309
         ROT  0.901E+06              888.752      2.981     30.229
         INT  0.566E+09             6405.873     43.499     61.538
         TR   0.234E+28             1481.254      4.968     41.454
         TOT                        7887.1273    48.4668   102.9914   430.9160

       T/K    H(0)-H(T)+PV         H(T)/Eh          T*S/Eh         G(T)/Eh
   ------------------------------------------------------------------------
    298.15    0.125689E-01    0.202418E+00    0.489345E-01    0.153483E+00
   ------------------------------------------------------------------------

         :::::::::::::::::::::::::::::::::::::::::::::::::::::
         ::                  THERMODYNAMIC                  ::
         :::::::::::::::::::::::::::::::::::::::::::::::::::::
         :: total free energy         -43.209684955279 Eh   ::
         ::.................................................::
         :: total energy              -43.363168017660 Eh   ::
         :: zero point energy           0.189848664881 Eh   ::
         :: G(RRHO) w/o ZPVE           -0.036365602500 Eh   ::
         :: G(RRHO) contrib.            0.153483062381 Eh   ::
         :::::::::::::::::::::::::::::::::::::::::::::::::::::

optimized geometry written to: xtbopt.coord


           -------------------------------------------------
          | TOTAL ENERGY              -43.363168017660 Eh   |
          | TOTAL ENTHALPY            -43.160750415409 Eh   |
          | TOTAL FREE ENERGY         -43.209684955279 Eh   |
          | GRADIENT NORM               0.000064097550 Eh/α |
          | HOMO-LUMO GAP              10.244666596845 eV   |
           -------------------------------------------------

------------------------------------------------------------------------
 * finished run on 2025/04/16 at 11:25:01.959     
------------------------------------------------------------------------
 total:
 * wall-time:     0 d,  0 h,  0 min,  3.661 sec
 *  cpu-time:     0 d,  0 h,  0 min,  3.512 sec
 * ratio c/w:     0.959 speedup
 SCF:
 * wall-time:     0 d,  0 h,  0 min,  0.046 sec
 *  cpu-time:     0 d,  0 h,  0 min,  0.027 sec
 * ratio c/w:     0.589 speedup
 analytical hessian:
 * wall-time:     0 d,  0 h,  0 min,  3.196 sec
 *  cpu-time:     0 d,  0 h,  0 min,  3.104 sec
 * ratio c/w:     0.971 speedup

