12
 energy: -492.058118959200 gnorm: 0.032485394462 xtb: 6.7.1 (edcfbbe)
C           -1.69751430995221       -1.17939697182262        0.10793128894783
C           -0.92877457451156       -0.01113828200494       -0.49522547821945
H           -0.87843822478926       -0.10650461814720       -1.59345436830610
C            0.52819536283406       -0.03338899211480       -0.00578669110256
F            1.19623339483008        1.05075687146562       -0.44710362329812
F            0.64299107308493       -0.03669696641626        1.32370739798657
F            1.19196636402819       -1.10452783148945       -0.46219874620481
O           -1.54644698238527        1.18508523322514       -0.11688938875180
H           -1.22586463994321       -2.11987548683937       -0.16184072227172
H           -2.71631625360367       -1.16124065541458       -0.26590665221783
H           -1.72113277836268       -1.07704619917727        1.18965623362717
H           -1.04367400326248        1.94323357476110       -0.43998733409497
12
 energy: -492.059076961679 gnorm: 0.013297435457 xtb: 6.7.1 (edcfbbe)
C           -1.69879835692202       -1.17444557740445        0.10671896757963
C           -0.91888340236936       -0.01416551397672       -0.48911255785062
H           -0.86786147728595       -0.11370064371935       -1.58683231191103
C            0.53742434264678       -0.03015086416412       -0.00749478358304
F            1.19869814685824        1.06509021797749       -0.45744258620604
F            0.64016235570198       -0.03301435129304        1.33071194619270
F            1.19137721391192       -1.11321085857060       -0.47252304461182
O           -1.54839394612889        1.18419451613251       -0.10275046670392
H           -1.23268556833879       -2.12326489629975       -0.16245015302087
H           -2.72023843529594       -1.15624027682800       -0.27470294180935
H           -1.72836493302322       -1.07887830373976        1.19353146994659
H           -1.05121148909691        1.93704611214517       -0.44475149649359
12
 energy: -492.059250774370 gnorm: 0.003890088037 xtb: 6.7.1 (edcfbbe)
C           -1.69707827577997       -1.17380397285524        0.10631110716940
C           -0.91560938124220       -0.01632472247327       -0.48539452376630
H           -0.86562969371913       -0.11167790108578       -1.58322047524913
C            0.53819187043305       -0.02939277181502       -0.00612371470875
F            1.19857050059811        1.06988481890776       -0.46221094132776
F            0.64576362405297       -0.03055279485981        1.33613716876784
F            1.19133602806847       -1.11625811722435       -0.47662645989065
O           -1.54813647705308        1.18633700560770       -0.09179188451503
H           -1.23825489260255       -2.12892954744497       -0.16143355941662
H           -2.71767842819305       -1.15048966844605       -0.28221507172585
H           -1.73372628483198       -1.08285402340619        1.19496049714353
H           -1.05652414659389        1.93332121890650       -0.45548992672732
12
 energy: -492.059277775776 gnorm: 0.002072901449 xtb: 6.7.1 (edcfbbe)
C           -1.69768810031683       -1.17434102416708        0.10595568023164
C           -0.91436310091976       -0.01775070949160       -0.48244378828150
H           -0.86540145005273       -0.10780631679032       -1.58032755255113
C            0.53851761460928       -0.02924048682102       -0.00555149787070
F            1.19933528288104        1.07029088840831       -0.46357831233711
F            0.65028019489474       -0.02950501119656        1.33688712279961
F            1.19292799480524       -1.11639935449566       -0.47668829127256
O           -1.54682088282094        1.18696106485830       -0.08578396332342
H           -1.24067835063426       -2.13023215146821       -0.16165610205506
H           -2.71729292553808       -1.14868506520699       -0.28483645786820
H           -1.73707010568071       -1.08477149103795        1.19444124588059
H           -1.06052174426957        1.93073917176868       -0.46351574915452
12
 energy: -492.059291015699 gnorm: 0.001729537276 xtb: 6.7.1 (edcfbbe)
C           -1.69774075578260       -1.17490143866846        0.10567612532776
C           -0.91353093524370       -0.01807765162507       -0.48007604765494
H           -0.86587225813633       -0.10307363193512       -1.57813227168157
C            0.53887871269003       -0.02993943405289       -0.00464240435121
F            1.19958414646922        1.06880584261799       -0.46454160965057
F            0.65350719296093       -0.02928060013171        1.33703798846757
F            1.19361773516619       -1.11716890701722       -0.47568703977744
O           -1.54476076267922        1.18793251893518       -0.08008044744671
H           -1.24112630207070       -2.13052960908918       -0.16200909745321
H           -2.71632227572918       -1.14751485372845       -0.28677816253927
H           -1.73925243654481       -1.08618777776229        1.19381135580822
H           -1.06575765173235        1.92919506840733       -0.47167594739627
12
 energy: -492.059297906289 gnorm: 0.001353311455 xtb: 6.7.1 (edcfbbe)
C           -1.69765648005831       -1.17506156514122        0.10519098923146
C           -0.91266228797012       -0.01762952855426       -0.47838835444730
H           -0.86663415833270       -0.09811107422698       -1.57653603853365
C            0.53982506323329       -0.03078755565332       -0.00379753246284
F            1.20125985896531        1.06593582165382       -0.46543015020095
F            0.65538411721780       -0.02935326614794        1.33671343197720
F            1.19322588253186       -1.11890040434664       -0.47384954710484
O           -1.54201387698229        1.18858887160837       -0.07429771438643
H           -1.24009299690106       -2.12984485437667       -0.16243664878565
H           -2.71552928853065       -1.14741729016046       -0.28819261601023
H           -1.74061957178536       -1.08692017655806        1.19311683362365
H           -1.07326186559028        1.92876056958541       -0.47919012214373
12
 energy: -492.059301126973 gnorm: 0.000731917244 xtb: 6.7.1 (edcfbbe)
C           -1.69719605328612       -1.17472760733746        0.10488404818882
C           -0.91258807122413       -0.01644798056886       -0.47803935504076
H           -0.86682985088695       -0.09668760945934       -1.57624910497678
C            0.54058675482198       -0.03136746839151       -0.00362635288391
F            1.20302723656477        1.06401329193504       -0.46597314251295
F            0.65512807057995       -0.02946001206980        1.33678818359999
F            1.19199911381569       -1.12091297629911       -0.47307509619264
O           -1.54103652453296        1.18899035184102       -0.07207971763200
H           -1.23850650796067       -2.12926213119137       -0.16249509011818
H           -2.71505945744373       -1.14805677971179       -0.28895862477614
H           -1.74046467747346       -1.08670000439995        1.19299323456836
H           -1.07783563853834        1.92987848617265       -0.48126643687485
12
 energy: -492.059301126973 gnorm: 0.000731917244 xtb: 6.7.1 (edcfbbe)
C           -1.69719605328612       -1.17472760733746        0.10488404818882
C           -0.91258807122413       -0.01644798056886       -0.47803935504076
H           -0.86682985088695       -0.09668760945934       -1.57624910497678
C            0.54058675482198       -0.03136746839151       -0.00362635288391
F            1.20302723656477        1.06401329193504       -0.46597314251295
F            0.65512807057995       -0.02946001206980        1.33678818359999
F            1.19199911381569       -1.12091297629911       -0.47307509619264
O           -1.54103652453296        1.18899035184102       -0.07207971763200
H           -1.23850650796067       -2.12926213119137       -0.16249509011818
H           -2.71505945744373       -1.14805677971179       -0.28895862477614
H           -1.74046467747346       -1.08670000439995        1.19299323456836
H           -1.07783563853834        1.92987848617265       -0.48126643687485
