 Entering Gaussian System
 *********************************************
 Gaussian 98:
 frequency output generated by the xtb code
 *********************************************
                         Standard orientation:
 --------------------------------------------------------------------
  Center     Atomic     Atomic              Coordinates (Angstroms)
  Number     Number      Type              X           Y           Z
 --------------------------------------------------------------------
    1          6             0       -2.474455   -1.049953    0.032702
    2          6             0       -1.736543    0.228595    0.416865
    3          6             0       -0.578690    0.566892   -0.533841
    4          6             0        0.836504    0.177334   -0.065033
    5          6             0        1.809461    0.478262   -1.210993
    6          6             0        1.247842    1.008982    1.152589
    7          6             0        0.928426   -1.310195    0.277610
    8          1             0       -3.287184   -1.241271    0.730859
    9          1             0       -2.899143   -0.957163   -0.964924
   10          1             0       -1.808455   -1.907858    0.041531
   11          1             0       -2.455336    1.051152    0.405096
   12          1             0       -1.372877    0.139732    1.440821
   13          1             0       -0.572414    1.644570   -0.714039
   14          1             0       -0.768420    0.084021   -1.495211
   15          1             0        2.830862    0.249560   -0.914569
   16          1             0        1.567353   -0.118640   -2.087776
   17          1             0        1.762234    1.528944   -1.489348
   18          1             0        2.266159    0.765257    1.448108
   19          1             0        0.597188    0.817259    2.001951
   20          1             0        1.203585    2.071267    0.922088
   21          1             0        0.299415   -1.556088    1.128796
   22          1             0        0.622673   -1.917649   -0.571398
   23          1             0        1.954018   -1.572332    0.530694
 --------------------------------------------------------------------
     1 basis functions        1 primitive gaussians
     1 alpha electrons        1 beta electrons
 
 Harmonic frequencies (cm**-1), IR intensities (km*mol⁻¹),
 Raman scattering activities (A**4/amu), Raman depolarization ratios,
 reduced masses (AMU), force constants (mDyne/A) and normal coordinates:
                      1                      2                      3
                        a                      a                      a 
 Frequencies --    83.3435                98.0881               188.1375
 Red. masses --     6.9641                 7.2453                 1.9345
 Frc consts  --     0.0000                 0.0000                 0.0000
 IR Inten    --     0.0181                 0.0013                 0.0155
 Raman Activ --     0.0000                 0.0000                 0.0000
 Depolar     --     0.0000                 0.0000                 0.0000
 Atom AN      X      Y      Z        X      Y      Z        X      Y      Z
   1   6    -0.20   0.08  -0.41    -0.37   0.25   0.12    -0.16   0.04   0.07
   2   6     0.09  -0.27   0.22     0.10  -0.01   0.05    -0.01  -0.03   0.01
   3   6    -0.02  -0.01   0.17     0.03  -0.35  -0.17     0.01  -0.09  -0.00
   4   6     0.03   0.04   0.05     0.06  -0.05  -0.03     0.04  -0.01  -0.01
   5   6    -0.09  -0.13  -0.10     0.12   0.18   0.07     0.04   0.12   0.03
   6   6     0.15   0.20  -0.11    -0.20   0.01   0.02    -0.02  -0.02   0.02
   7   6     0.05   0.08   0.22     0.28  -0.05  -0.08     0.10  -0.03  -0.11
   8   1    -0.01  -0.08  -0.09    -0.05   0.10   0.11    -0.13   0.12  -0.05
   9   1    -0.14   0.23  -0.07    -0.20   0.15   0.08     0.06  -0.04  -0.03
  10   1    -0.08   0.00  -0.34    -0.16   0.03  -0.07    -0.11  -0.03   0.16
  11   1     0.07  -0.04   0.24     0.11   0.06   0.08     0.02   0.01   0.00
  12   1     0.08  -0.27   0.03     0.08  -0.07  -0.01    -0.01  -0.02   0.00
  13   1    -0.04   0.00   0.09    -0.01  -0.13  -0.19    -0.01  -0.03  -0.01
  14   1    -0.01   0.03   0.04     0.01  -0.23   0.02     0.01  -0.04   0.00
  15   1    -0.01  -0.00  -0.04     0.03   0.05   0.03     0.05   0.32   0.11
  16   1    -0.04  -0.09   0.01     0.06   0.09  -0.01     0.20  -0.16   0.09
  17   1    -0.05  -0.05  -0.09     0.03   0.06   0.07    -0.21  -0.02  -0.17
  18   1     0.03   0.02  -0.00    -0.01   0.13  -0.04    -0.14  -0.28   0.26
  19   1     0.02   0.15  -0.03     0.00  -0.12   0.02    -0.25   0.29  -0.12
  20   1     0.10   0.05  -0.09    -0.22   0.00   0.04     0.37  -0.02  -0.12
  21   1     0.01   0.04   0.06     0.02  -0.06  -0.08     0.16   0.00   0.07
  22   1     0.02  -0.00   0.08     0.18  -0.02  -0.06    -0.13   0.01   0.01
  23   1     0.01   0.03   0.08     0.07   0.04   0.06     0.06  -0.04  -0.20
                      4                      5                      6
                        a                      a                      a 
 Frequencies --   198.0661               235.0589               253.1996
 Red. masses --     3.4611                 1.9940                 5.9275
 Frc consts  --     0.0000                 0.0000                 0.0000
 IR Inten    --     0.0559                 0.0685                 0.0250
 Raman Activ --     0.0000                 0.0000                 0.0000
 Depolar     --     0.0000                 0.0000                 0.0000
 Atom AN      X      Y      Z        X      Y      Z        X      Y      Z
   1   6    -0.17   0.05  -0.14     0.09   0.06  -0.06    -0.02   0.04  -0.05
   2   6    -0.12  -0.01  -0.01    -0.05   0.13  -0.05    -0.25   0.20  -0.17
   3   6     0.02  -0.07   0.14     0.01   0.06   0.02    -0.00  -0.05   0.06
   4   6     0.06  -0.02   0.07    -0.02  -0.05   0.03     0.01  -0.08   0.07
   5   6    -0.16   0.05  -0.11    -0.12  -0.05  -0.05    -0.26   0.07  -0.12
   6   6     0.18  -0.01   0.01    -0.01  -0.11   0.07     0.14  -0.15   0.07
   7   6     0.21  -0.01   0.09     0.07  -0.04   0.05     0.36  -0.05   0.15
   8   1    -0.33   0.24  -0.31     0.11  -0.08   0.05     0.11  -0.11   0.09
   9   1     0.33  -0.12  -0.22    -0.08   0.06   0.03    -0.15   0.02   0.05
  10   1    -0.16  -0.07   0.36     0.09   0.06  -0.14     0.09   0.08  -0.16
  11   1    -0.02   0.01  -0.05    -0.02   0.03  -0.05    -0.08   0.05  -0.18
  12   1    -0.09  -0.00   0.02    -0.03   0.07  -0.00    -0.15   0.15  -0.01
  13   1     0.01  -0.02   0.04     0.03   0.02   0.02     0.05  -0.02   0.00
  14   1     0.02  -0.02   0.03     0.00   0.04  -0.00     0.01  -0.02   0.02
  15   1    -0.03  -0.00  -0.10     0.03   0.41   0.10    -0.06  -0.03  -0.14
  16   1    -0.11   0.04  -0.03     0.21  -0.34   0.14    -0.17   0.09  -0.06
  17   1    -0.06   0.02  -0.00    -0.36  -0.11  -0.32    -0.07   0.04   0.04
  18   1     0.12   0.12  -0.13     0.08   0.15  -0.14    -0.02  -0.20   0.11
  19   1     0.18  -0.13   0.07     0.15  -0.24   0.09    -0.06   0.09  -0.03
  20   1    -0.12   0.00   0.06    -0.25  -0.02   0.12     0.23  -0.04  -0.01
  21   1     0.10  -0.00   0.06     0.08  -0.01   0.06     0.00  -0.07  -0.05
  22   1     0.03  -0.02   0.05    -0.03  -0.03   0.04     0.31  -0.07   0.01
  23   1     0.08   0.02  -0.01     0.04   0.00  -0.05     0.10   0.11   0.21
                      7                      8                      9
                        a                      a                      a 
 Frequencies --   275.6773               300.0921               341.9176
 Red. masses --     1.6459                 8.1373                 7.7275
 Frc consts  --     0.0000                 0.0000                 0.0000
 IR Inten    --     0.1302                 0.0601                 0.0546
 Raman Activ --     0.0000                 0.0000                 0.0000
 Depolar     --     0.0000                 0.0000                 0.0000
 Atom AN      X      Y      Z        X      Y      Z        X      Y      Z
   1   6     0.04  -0.01   0.05    -0.30  -0.19   0.09     0.24   0.09  -0.06
   2   6     0.05  -0.04   0.11    -0.15  -0.15  -0.21     0.29   0.01   0.03
   3   6    -0.02   0.08   0.05     0.01  -0.08  -0.05     0.06  -0.18  -0.22
   4   6    -0.01   0.01  -0.05     0.07   0.12   0.03    -0.02  -0.01  -0.02
   5   6     0.05  -0.05  -0.02     0.13   0.20   0.09    -0.25   0.27  -0.13
   6   6    -0.02   0.01  -0.05     0.50  -0.01  -0.01     0.00  -0.20   0.09
   7   6    -0.08   0.01  -0.10    -0.25   0.11   0.05    -0.29   0.04   0.28
   8   1    -0.09   0.07  -0.08    -0.01  -0.02   0.13     0.02   0.04  -0.07
   9   1     0.14  -0.04  -0.04    -0.20  -0.07   0.07     0.13   0.04  -0.04
  10   1    -0.03  -0.04   0.14    -0.10  -0.07  -0.03     0.05   0.01   0.02
  11   1     0.01  -0.02   0.06    -0.04  -0.04  -0.12     0.10   0.02   0.09
  12   1     0.03  -0.03   0.03    -0.07   0.02  -0.05     0.15  -0.04  -0.02
  13   1    -0.01   0.03   0.06    -0.05  -0.03  -0.04    -0.01  -0.08  -0.21
  14   1    -0.03   0.06   0.00     0.07  -0.05  -0.01     0.03  -0.19   0.00
  15   1     0.02   0.13   0.07     0.04   0.13   0.07    -0.03   0.14  -0.12
  16   1     0.13  -0.14   0.05     0.11   0.03   0.02    -0.09   0.10  -0.05
  17   1    -0.09  -0.05  -0.13    -0.02   0.05   0.01    -0.17   0.09   0.02
  18   1    -0.02  -0.02   0.02     0.18  -0.04  -0.14    -0.02  -0.13   0.03
  19   1    -0.04   0.03  -0.03     0.24  -0.02   0.07    -0.02  -0.06   0.01
  20   1     0.03   0.00  -0.03     0.14   0.01   0.04     0.07  -0.04   0.08
  21   1    -0.41  -0.10  -0.34    -0.15   0.08  -0.03    -0.14   0.12   0.07
  22   1     0.45   0.01  -0.20    -0.07   0.05  -0.00    -0.08  -0.04   0.12
  23   1    -0.12   0.10   0.46    -0.11  -0.04   0.08    -0.11  -0.03   0.15
                     10                     11                     12
                        a                      a                      a 
 Frequencies --   382.4203               411.6676               433.9687
 Red. masses --     7.5471                 7.4453                 7.0443
 Frc consts  --     0.0000                 0.0000                 0.0000
 IR Inten    --     0.3572                 0.2541                 0.6107
 Raman Activ --     0.0000                 0.0000                 0.0000
 Depolar     --     0.0000                 0.0000                 0.0000
 Atom AN      X      Y      Z        X      Y      Z        X      Y      Z
   1   6     0.21   0.09  -0.12    -0.01   0.02   0.01    -0.12  -0.05   0.08
   2   6    -0.10   0.16   0.13    -0.05   0.02   0.07     0.17  -0.11  -0.22
   3   6    -0.02  -0.25   0.12    -0.11   0.14   0.03     0.34   0.11   0.12
   4   6    -0.04  -0.17   0.17    -0.10  -0.26  -0.25     0.22  -0.18   0.12
   5   6    -0.09   0.12   0.23     0.19   0.26   0.11    -0.15   0.13  -0.12
   6   6     0.14   0.27  -0.20    -0.05  -0.17  -0.38    -0.15   0.19   0.01
   7   6    -0.13  -0.28  -0.18     0.05  -0.16   0.28    -0.12  -0.25   0.03
   8   1     0.04  -0.09  -0.09    -0.02  -0.00  -0.02     0.02   0.09   0.11
   9   1     0.10   0.06  -0.05     0.02   0.01  -0.01    -0.12  -0.03   0.06
  10   1     0.13   0.08  -0.06     0.00   0.01   0.01    -0.11  -0.07   0.01
  11   1    -0.03   0.05  -0.04    -0.02  -0.00   0.04     0.06  -0.02  -0.11
  12   1    -0.07   0.08   0.06    -0.00  -0.01   0.01    -0.00   0.00  -0.04
  13   1     0.01  -0.10  -0.11     0.04   0.07   0.18     0.15   0.06   0.23
  14   1    -0.01  -0.19   0.09    -0.11   0.21  -0.06     0.10   0.22  -0.06
  15   1    -0.02   0.08   0.07     0.04   0.13   0.13     0.01   0.09  -0.18
  16   1     0.03   0.07   0.03     0.21   0.17  -0.08    -0.12   0.08  -0.04
  17   1    -0.09   0.05   0.12     0.00   0.11   0.17    -0.16   0.05   0.03
  18   1     0.06   0.14  -0.09    -0.00  -0.03  -0.13    -0.04   0.19   0.10
  19   1     0.10   0.21   0.02     0.02  -0.02  -0.08    -0.09   0.08  -0.03
  20   1     0.02   0.04  -0.23    -0.03  -0.06  -0.14    -0.13   0.03  -0.11
  21   1    -0.06  -0.14  -0.09     0.04   0.07   0.13    -0.09  -0.04  -0.02
  22   1    -0.04   0.02  -0.12     0.03  -0.19   0.18    -0.07  -0.01  -0.02
  23   1    -0.05  -0.14  -0.07     0.03   0.04   0.11    -0.07  -0.17   0.03
                     13                     14                     15
                        a                      a                      a 
 Frequencies --   488.0627               745.1541               826.8303
 Red. masses --     8.0109                 7.4630                 4.9123
 Frc consts  --     0.0000                 0.0000                 0.0000
 IR Inten    --     0.7288                 2.2838                 5.0425
 Raman Activ --     0.0000                 0.0000                 0.0000
 Depolar     --     0.0000                 0.0000                 0.0000
 Atom AN      X      Y      Z        X      Y      Z        X      Y      Z
   1   6    -0.00  -0.01  -0.05     0.06   0.04  -0.00    -0.08   0.01  -0.06
   2   6    -0.25   0.07   0.21     0.24  -0.13   0.00    -0.15   0.13  -0.13
   3   6     0.06  -0.21   0.32     0.23  -0.19   0.24     0.21  -0.02   0.19
   4   6     0.32   0.04  -0.16    -0.12   0.03  -0.04     0.10  -0.02   0.04
   5   6     0.30   0.08  -0.33    -0.20  -0.06   0.22    -0.11  -0.04   0.15
   6   6    -0.12  -0.04   0.01    -0.10  -0.17  -0.27    -0.04  -0.18  -0.24
   7   6    -0.13   0.08   0.02    -0.02   0.37  -0.09    -0.01   0.25  -0.05
   8   1    -0.01  -0.12  -0.06    -0.01   0.11   0.00     0.09  -0.07   0.09
   9   1     0.02   0.05  -0.02    -0.00   0.18   0.02    -0.08  -0.36  -0.02
  10   1     0.06   0.04  -0.07    -0.14  -0.11  -0.09     0.21   0.18   0.18
  11   1    -0.07   0.02  -0.12     0.03  -0.07  -0.34     0.11   0.17   0.30
  12   1    -0.23   0.10   0.12    -0.15   0.22   0.10     0.04  -0.36  -0.09
  13   1    -0.01  -0.07   0.01     0.05  -0.04   0.13     0.09  -0.02  -0.04
  14   1    -0.03  -0.12   0.13     0.04   0.00   0.04     0.12  -0.07   0.07
  15   1     0.09   0.02  -0.10    -0.08  -0.04   0.13    -0.02  -0.00   0.03
  16   1     0.07   0.01  -0.08    -0.02  -0.02   0.06    -0.04  -0.01   0.04
  17   1     0.08   0.02  -0.10    -0.01  -0.02   0.05    -0.05  -0.01   0.05
  18   1    -0.06   0.04   0.13    -0.03  -0.09  -0.11    -0.02   0.01  -0.01
  19   1    -0.14  -0.11  -0.10    -0.01  -0.06  -0.06    -0.06  -0.07  -0.11
  20   1    -0.09  -0.00   0.06    -0.00  -0.04  -0.05    -0.06  -0.06  -0.09
  21   1    -0.10   0.18   0.00     0.01   0.10  -0.02    -0.02   0.09  -0.02
  22   1    -0.11   0.01   0.04    -0.00   0.09  -0.02    -0.02   0.10  -0.03
  23   1    -0.09  -0.11   0.06     0.01   0.14  -0.04    -0.02   0.03   0.00
                     16                     17                     18
                        a                      a                      a 
 Frequencies --   885.1557               922.3254               958.9812
 Red. masses --     5.6238                 6.5117                 5.3082
 Frc consts  --     0.0000                 0.0000                 0.0000
 IR Inten    --     2.6215                 1.7410                 3.3668
 Raman Activ --     0.0000                 0.0000                 0.0000
 Depolar     --     0.0000                 0.0000                 0.0000
 Atom AN      X      Y      Z        X      Y      Z        X      Y      Z
   1   6    -0.05  -0.21  -0.06    -0.14  -0.16   0.12     0.10   0.07  -0.03
   2   6     0.06   0.05   0.09    -0.11   0.07   0.21     0.01  -0.04  -0.07
   3   6     0.12   0.52   0.10     0.01   0.08  -0.37    -0.17   0.01   0.00
   4   6     0.04   0.06   0.04     0.28  -0.07   0.05     0.17   0.06  -0.21
   5   6    -0.01  -0.00   0.04    -0.05  -0.09   0.26    -0.31  -0.06   0.17
   6   6     0.01  -0.12  -0.15     0.03  -0.11  -0.10     0.23   0.16  -0.04
   7   6    -0.02  -0.13   0.03     0.11   0.17  -0.01     0.17  -0.14  -0.06
   8   1    -0.02   0.07   0.02    -0.16  -0.27  -0.18     0.05   0.13   0.06
   9   1    -0.07   0.02   0.01     0.14   0.19  -0.03    -0.03  -0.00   0.02
  10   1    -0.16  -0.17  -0.05     0.01  -0.01  -0.11    -0.04  -0.03   0.02
  11   1    -0.10  -0.09  -0.02    -0.06  -0.01   0.04    -0.04  -0.04   0.01
  12   1    -0.08   0.04   0.06     0.09   0.16   0.02    -0.02  -0.03  -0.01
  13   1    -0.08   0.05  -0.47     0.05   0.04  -0.00    -0.07   0.00  -0.01
  14   1     0.09  -0.33   0.25    -0.02   0.11  -0.14    -0.07  -0.00   0.01
  15   1     0.01   0.02  -0.02     0.07   0.05  -0.17    -0.16  -0.06   0.29
  16   1    -0.02   0.00   0.01    -0.18  -0.01   0.11     0.09  -0.01  -0.01
  17   1    -0.03   0.00   0.02    -0.19  -0.02   0.10     0.03  -0.00   0.08
  18   1    -0.01   0.06   0.06     0.00   0.05   0.07    -0.01   0.09   0.27
  19   1    -0.07  -0.04  -0.10    -0.05  -0.04  -0.08    -0.18  -0.23  -0.25
  20   1    -0.07  -0.05  -0.09    -0.05  -0.04  -0.08    -0.04   0.09   0.23
  21   1     0.05  -0.09   0.03    -0.06   0.13  -0.05    -0.08   0.23  -0.03
  22   1     0.04  -0.08   0.03    -0.06   0.14  -0.04    -0.08  -0.08   0.05
  23   1     0.03   0.07  -0.01    -0.02  -0.14   0.02    -0.04  -0.25   0.10
                     19                     20                     21
                        a                      a                      a 
 Frequencies --   964.6480               966.1912               979.5764
 Red. masses --     3.0190                 5.1264                 6.1955
 Frc consts  --     0.0000                 0.0000                 0.0000
 IR Inten    --     0.0624                 0.9499                 4.6563
 Raman Activ --     0.0000                 0.0000                 0.0000
 Depolar     --     0.0000                 0.0000                 0.0000
 Atom AN      X      Y      Z        X      Y      Z        X      Y      Z
   1   6    -0.02  -0.02  -0.01    -0.05  -0.03   0.02     0.27   0.21  -0.06
   2   6     0.01   0.02   0.01     0.01   0.01   0.03    -0.05  -0.12  -0.15
   3   6     0.03   0.01   0.00     0.06  -0.01  -0.03    -0.39  -0.02   0.05
   4   6     0.01  -0.02  -0.07    -0.05  -0.24  -0.12     0.13  -0.10   0.12
   5   6    -0.06   0.18   0.10    -0.05  -0.23  -0.09     0.18  -0.06   0.06
   6   6    -0.02  -0.12   0.18     0.20   0.04   0.27     0.05  -0.19   0.01
   7   6     0.06  -0.06  -0.27    -0.18   0.22  -0.18     0.04   0.17   0.01
   8   1    -0.01  -0.02  -0.00    -0.03  -0.06  -0.03     0.13   0.35   0.14
   9   1    -0.00  -0.01  -0.00     0.02   0.01  -0.01    -0.09   0.01   0.05
  10   1     0.01   0.00   0.00     0.02   0.01  -0.01    -0.11  -0.08   0.04
  11   1     0.01   0.01   0.01     0.02   0.02  -0.01    -0.13  -0.13   0.02
  12   1     0.01   0.00   0.00    -0.00   0.01   0.01    -0.01  -0.06  -0.04
  13   1     0.02   0.00  -0.01     0.03  -0.00  -0.01    -0.17  -0.01   0.02
  14   1    -0.00  -0.00   0.01     0.01  -0.00  -0.01    -0.12  -0.01   0.02
  15   1    -0.06  -0.13   0.04    -0.01   0.10   0.07     0.14   0.07  -0.24
  16   1    -0.16  -0.15   0.20     0.22   0.15  -0.23    -0.12   0.02   0.04
  17   1     0.19  -0.02  -0.25    -0.17   0.02   0.28    -0.14  -0.01   0.05
  18   1     0.05   0.13  -0.01     0.05   0.24   0.27     0.03   0.14   0.08
  19   1     0.09   0.24   0.18    -0.06   0.08   0.01    -0.02   0.09   0.01
  20   1    -0.05  -0.10  -0.29    -0.10  -0.03  -0.10    -0.10  -0.10  -0.24
  21   1    -0.04   0.44   0.02     0.09   0.06   0.05    -0.02   0.04  -0.02
  22   1    -0.02  -0.37   0.20     0.09  -0.17   0.07    -0.03   0.12  -0.04
  23   1    -0.03   0.01   0.15     0.04   0.38  -0.04    -0.01  -0.03  -0.01
                     22                     23                     24
                        a                      a                      a 
 Frequencies --  1030.0894              1032.1977              1089.5127
 Red. masses --     4.2500                 4.1755                 5.5311
 Frc consts  --     0.0000                 0.0000                 0.0000
 IR Inten    --     0.9906                 0.0496                 0.9252
 Raman Activ --     0.0000                 0.0000                 0.0000
 Depolar     --     0.0000                 0.0000                 0.0000
 Atom AN      X      Y      Z        X      Y      Z        X      Y      Z
   1   6     0.01   0.12   0.17    -0.01   0.14   0.02    -0.10  -0.21  -0.26
   2   6    -0.07  -0.12  -0.12    -0.00  -0.14   0.01     0.24   0.24   0.24
   3   6    -0.03  -0.06  -0.01     0.01  -0.05  -0.02    -0.08  -0.11  -0.14
   4   6    -0.01   0.11   0.14     0.06   0.13  -0.10    -0.01  -0.06  -0.06
   5   6    -0.05   0.20  -0.09     0.13   0.00   0.27    -0.00   0.15   0.05
   6   6     0.19  -0.21  -0.11     0.07   0.14  -0.11     0.16  -0.04   0.04
   7   6    -0.14  -0.04   0.13    -0.21  -0.17  -0.12    -0.07   0.05   0.12
   8   1    -0.07  -0.12  -0.09     0.02  -0.03   0.02     0.07   0.07   0.08
   9   1     0.13   0.17  -0.00     0.01  -0.05  -0.01    -0.17  -0.27  -0.02
  10   1     0.07   0.09  -0.05     0.10   0.12   0.05    -0.05  -0.08   0.06
  11   1    -0.01  -0.02   0.01     0.07   0.02  -0.10     0.12   0.11  -0.10
  12   1     0.11   0.04  -0.07    -0.13  -0.04   0.05    -0.13   0.05   0.13
  13   1    -0.12  -0.00   0.08    -0.14   0.00   0.06     0.16  -0.01   0.04
  14   1     0.22   0.03  -0.07    -0.01   0.02  -0.02    -0.38   0.10  -0.03
  15   1    -0.10  -0.11   0.15     0.15   0.04  -0.30    -0.02  -0.06   0.01
  16   1     0.02  -0.08   0.06    -0.30  -0.05   0.19    -0.09  -0.08   0.12
  17   1     0.24   0.01  -0.21    -0.15  -0.03  -0.01     0.11  -0.00  -0.15
  18   1     0.02   0.22   0.27    -0.02  -0.05   0.04     0.03   0.13   0.17
  19   1    -0.16  -0.05  -0.18    -0.07  -0.16  -0.14    -0.07  -0.02  -0.08
  20   1    -0.18  -0.10  -0.19     0.03   0.08   0.20    -0.07  -0.03  -0.05
  21   1     0.07  -0.26   0.04     0.11  -0.07   0.08     0.02  -0.19   0.00
  22   1     0.06   0.05  -0.05     0.12  -0.32   0.10     0.02   0.13  -0.07
  23   1     0.03   0.13  -0.07     0.04   0.31  -0.02     0.02   0.06  -0.07
                     25                     26                     27
                        a                      a                      a 
 Frequencies --  1103.6251              1130.8199              1206.6458
 Red. masses --     4.6851                 7.9698                 5.5271
 Frc consts  --     0.0000                 0.0000                 0.0000
 IR Inten    --     0.9603                 0.4163                 7.7574
 Raman Activ --     0.0000                 0.0000                 0.0000
 Depolar     --     0.0000                 0.0000                 0.0000
 Atom AN      X      Y      Z        X      Y      Z        X      Y      Z
   1   6     0.17  -0.22  -0.01     0.18   0.19  -0.02     0.01   0.11   0.22
   2   6    -0.22   0.32  -0.06    -0.37  -0.23   0.30    -0.01  -0.20  -0.26
   3   6     0.06  -0.20   0.09     0.35   0.04  -0.38    -0.00   0.15   0.11
   4   6    -0.01  -0.08   0.03     0.03  -0.04  -0.02    -0.07  -0.36  -0.13
   5   6     0.04   0.08   0.02    -0.10   0.05  -0.02     0.03   0.12   0.05
   6   6     0.02   0.10  -0.07    -0.01   0.00   0.04     0.05   0.11   0.06
   7   6    -0.12   0.03  -0.07    -0.04   0.02   0.03    -0.01   0.13   0.04
   8   1    -0.02   0.19  -0.00     0.09   0.20   0.10    -0.08  -0.12  -0.08
   9   1    -0.03   0.17   0.04    -0.06   0.00   0.04     0.14   0.17   0.01
  10   1    -0.26  -0.29  -0.10    -0.04  -0.02   0.06     0.06   0.07  -0.06
  11   1    -0.20  -0.05   0.31    -0.19  -0.14   0.03    -0.01  -0.06  -0.02
  12   1     0.28   0.01  -0.14    -0.32  -0.20   0.15    -0.09  -0.19  -0.05
  13   1     0.26  -0.04   0.07     0.16   0.02  -0.04     0.37  -0.01  -0.21
  14   1     0.06   0.03  -0.03     0.08   0.05  -0.12    -0.40  -0.09   0.16
  15   1     0.01  -0.03  -0.04    -0.06  -0.04   0.08     0.00  -0.05  -0.03
  16   1    -0.06  -0.04   0.07     0.03  -0.02   0.00    -0.09  -0.06   0.10
  17   1     0.04  -0.00  -0.08     0.07   0.01  -0.04     0.06  -0.01  -0.13
  18   1    -0.03  -0.05   0.02     0.01  -0.00  -0.04     0.00  -0.01   0.04
  19   1    -0.03  -0.10  -0.07     0.02   0.03   0.03    -0.00  -0.03  -0.01
  20   1     0.03   0.06   0.15     0.01  -0.00  -0.02     0.02   0.05   0.10
  21   1     0.04  -0.01   0.03     0.01  -0.06   0.00    -0.01  -0.02  -0.02
  22   1     0.04  -0.11   0.04     0.02   0.03  -0.02    -0.01   0.12  -0.05
  23   1     0.02   0.18  -0.02     0.01   0.04  -0.03     0.00   0.01  -0.04
                     28                     29                     30
                        a                      a                      a 
 Frequencies --  1231.2529              1258.3051              1282.7494
 Red. masses --     8.2336                 4.7341                 7.7783
 Frc consts  --     0.0000                 0.0000                 0.0000
 IR Inten    --    15.3436                10.7756                11.3741
 Raman Activ --     0.0000                 0.0000                 0.0000
 Depolar     --     0.0000                 0.0000                 0.0000
 Atom AN      X      Y      Z        X      Y      Z        X      Y      Z
   1   6     0.04  -0.03   0.05    -0.16   0.16  -0.17    -0.04   0.06  -0.08
   2   6    -0.07   0.07  -0.11     0.07  -0.16   0.11    -0.08  -0.07   0.08
   3   6     0.06  -0.04   0.08    -0.09   0.06   0.01     0.20  -0.03   0.13
   4   6     0.47   0.17  -0.47     0.29  -0.25   0.10    -0.41   0.03  -0.52
   5   6    -0.18  -0.04   0.13    -0.08   0.07  -0.03     0.11  -0.00   0.14
   6   6    -0.14  -0.06   0.15    -0.09   0.07  -0.06     0.11  -0.01   0.12
   7   6    -0.14  -0.05   0.16    -0.10   0.08  -0.04     0.12  -0.01   0.14
   8   1    -0.03   0.01  -0.03     0.07  -0.03   0.07     0.04   0.01   0.04
   9   1     0.02   0.07   0.01    -0.06  -0.22  -0.05    -0.03  -0.08  -0.02
  10   1    -0.03  -0.04  -0.04     0.14   0.18   0.13     0.04   0.06   0.06
  11   1    -0.02   0.02   0.05    -0.29  -0.31   0.01    -0.14  -0.12   0.03
  12   1     0.06  -0.04  -0.06     0.33   0.39  -0.05     0.23   0.20  -0.05
  13   1    -0.19  -0.01   0.01     0.05   0.00  -0.03     0.03  -0.01  -0.01
  14   1    -0.20   0.01   0.05     0.00  -0.04   0.03     0.22  -0.05   0.01
  15   1    -0.08  -0.03   0.14    -0.06  -0.05   0.09     0.06   0.00  -0.13
  16   1    -0.03  -0.03   0.04     0.04  -0.05   0.02    -0.15   0.01   0.07
  17   1    -0.04  -0.00   0.08     0.09   0.01  -0.04    -0.12  -0.02  -0.03
  18   1     0.03   0.01  -0.14    -0.03  -0.09  -0.04     0.02   0.13   0.14
  19   1     0.11   0.16   0.17     0.06  -0.04   0.04    -0.01   0.09   0.02
  20   1     0.07  -0.04  -0.12     0.07   0.04   0.08    -0.05  -0.00   0.00
  21   1     0.06  -0.26   0.03     0.04  -0.01   0.03    -0.08  -0.07  -0.07
  22   1     0.09   0.05  -0.06     0.05  -0.01  -0.01    -0.06   0.13  -0.04
  23   1     0.03   0.07  -0.10     0.01   0.13  -0.02    -0.00  -0.16  -0.03
                     31                     32                     33
                        a                      a                      a 
 Frequencies --  1310.1469              1344.0632              1368.6412
 Red. masses --     5.8574                 4.1533                 4.6807
 Frc consts  --     0.0000                 0.0000                 0.0000
 IR Inten    --    10.3585                 0.2539                 2.5404
 Raman Activ --     0.0000                 0.0000                 0.0000
 Depolar     --     0.0000                 0.0000                 0.0000
 Atom AN      X      Y      Z        X      Y      Z        X      Y      Z
   1   6     0.06  -0.07  -0.01     0.08  -0.05  -0.08    -0.07   0.02   0.05
   2   6    -0.04   0.04   0.05    -0.27  -0.30   0.11     0.27   0.14  -0.01
   3   6    -0.10   0.12  -0.01    -0.22   0.09   0.04    -0.41  -0.03   0.04
   4   6     0.07  -0.56  -0.14     0.11   0.13  -0.03     0.13   0.06  -0.17
   5   6    -0.02   0.14   0.04    -0.03  -0.04   0.02    -0.04  -0.02   0.07
   6   6    -0.03   0.14   0.03    -0.04  -0.04  -0.02    -0.03  -0.02   0.05
   7   6    -0.01   0.13   0.04    -0.03  -0.02   0.00    -0.04   0.02   0.03
   8   1     0.01   0.05   0.01     0.06   0.15   0.07    -0.01  -0.08  -0.01
   9   1    -0.01   0.03   0.01    -0.02   0.08   0.01     0.05  -0.03  -0.02
  10   1    -0.05  -0.07  -0.01     0.02  -0.01   0.05     0.00   0.01  -0.03
  11   1     0.24   0.22  -0.04     0.43   0.36  -0.15    -0.18  -0.18  -0.03
  12   1    -0.08  -0.02   0.04     0.22   0.21  -0.05    -0.26  -0.21   0.09
  13   1    -0.39   0.03   0.02     0.45  -0.00  -0.14     0.43  -0.01  -0.01
  14   1     0.40  -0.04  -0.05     0.12   0.00  -0.01     0.50  -0.02  -0.10
  15   1    -0.03  -0.11  -0.01     0.00   0.03   0.01     0.01   0.01  -0.05
  16   1    -0.02  -0.08   0.09     0.01   0.02  -0.01     0.02   0.01  -0.00
  17   1     0.07  -0.00  -0.11     0.00   0.00   0.03     0.01  -0.01  -0.01
  18   1    -0.02  -0.05   0.01    -0.00   0.03   0.01     0.02   0.04  -0.06
  19   1     0.06  -0.04   0.05     0.03   0.03   0.03     0.00   0.04   0.02
  20   1     0.08   0.06   0.12     0.02  -0.01  -0.00     0.04  -0.00  -0.02
  21   1    -0.03   0.02  -0.02     0.03  -0.04   0.02     0.02  -0.09   0.00
  22   1    -0.00   0.13  -0.06     0.03  -0.03   0.01     0.04  -0.03   0.01
  23   1     0.02   0.06  -0.06    -0.00  -0.00  -0.00    -0.01  -0.04  -0.03
                     34                     35                     36
                        a                      a                      a 
 Frequencies --  1407.9663              1410.7504              1415.9918
 Red. masses --     3.2792                 3.1877                 3.1457
 Frc consts  --     0.0000                 0.0000                 0.0000
 IR Inten    --     3.8746                 3.3171                 1.9627
 Raman Activ --     0.0000                 0.0000                 0.0000
 Depolar     --     0.0000                 0.0000                 0.0000
 Atom AN      X      Y      Z        X      Y      Z        X      Y      Z
   1   6    -0.01  -0.02  -0.01    -0.05  -0.09  -0.03     0.21   0.35   0.08
   2   6    -0.01   0.01   0.02    -0.01  -0.01  -0.01    -0.07  -0.06   0.02
   3   6     0.01   0.02  -0.01     0.03  -0.00   0.02    -0.01   0.02   0.01
   4   6    -0.02  -0.07   0.02    -0.00  -0.03  -0.05     0.02   0.00  -0.01
   5   6     0.13   0.06  -0.15    -0.16  -0.04   0.21    -0.05  -0.02   0.06
   6   6     0.03   0.08   0.07     0.08   0.18   0.26     0.01   0.04   0.05
   7   6    -0.01   0.37  -0.08    -0.01   0.05   0.01     0.02   0.05  -0.00
   8   1     0.01   0.03   0.01     0.03   0.12   0.07    -0.09  -0.41  -0.24
   9   1     0.01   0.02  -0.00     0.05   0.11  -0.01    -0.19  -0.44   0.05
  10   1     0.02   0.01   0.00     0.10   0.08   0.03    -0.39  -0.29  -0.10
  11   1     0.01   0.01  -0.03     0.00   0.00   0.04     0.07   0.05  -0.06
  12   1     0.02  -0.01  -0.01     0.02   0.06  -0.00     0.09   0.02  -0.03
  13   1    -0.03   0.01   0.01    -0.03  -0.00  -0.02     0.03   0.00   0.00
  14   1     0.01  -0.01   0.01    -0.01   0.02  -0.00    -0.00  -0.02   0.02
  15   1    -0.08  -0.09   0.21     0.09   0.08  -0.29     0.03   0.03  -0.09
  16   1    -0.17  -0.11   0.12     0.24   0.14  -0.15     0.08   0.04  -0.05
  17   1    -0.17   0.04   0.16     0.21  -0.06  -0.23     0.07  -0.02  -0.06
  18   1    -0.00  -0.11  -0.07     0.03  -0.26  -0.28     0.00  -0.05  -0.05
  19   1    -0.05  -0.10  -0.06    -0.20  -0.25  -0.20    -0.03  -0.06  -0.03
  20   1    -0.05  -0.02  -0.12    -0.12  -0.07  -0.36    -0.02  -0.02  -0.08
  21   1     0.13  -0.41  -0.04     0.01  -0.04  -0.00    -0.03  -0.08  -0.05
  22   1     0.07  -0.35   0.24     0.03  -0.04   0.02    -0.03  -0.07   0.07
  23   1    -0.13  -0.42   0.06    -0.01  -0.07  -0.01    -0.00  -0.02  -0.01
                     37                     38                     39
                        a                      a                      a 
 Frequencies --  1432.1761              1485.6631              1493.2303
 Red. masses --     3.0151                 1.8505                 1.6590
 Frc consts  --     0.0000                 0.0000                 0.0000
 IR Inten    --     2.2695                 0.0187                 0.2365
 Raman Activ --     0.0000                 0.0000                 0.0000
 Depolar     --     0.0000                 0.0000                 0.0000
 Atom AN      X      Y      Z        X      Y      Z        X      Y      Z
   1   6    -0.01  -0.04  -0.00    -0.03   0.02   0.02    -0.02   0.01   0.07
   2   6    -0.01   0.03   0.00    -0.01   0.05   0.09     0.04  -0.09  -0.11
   3   6     0.05   0.01  -0.03     0.02  -0.10   0.20     0.01  -0.03   0.03
   4   6     0.00  -0.01   0.02     0.01  -0.02   0.00    -0.01   0.01   0.01
   5   6    -0.17  -0.05   0.19    -0.06   0.01  -0.03    -0.01  -0.08  -0.03
   6   6    -0.07  -0.14  -0.20     0.06  -0.00  -0.04    -0.01   0.04  -0.06
   7   6    -0.02   0.21  -0.05     0.03   0.01  -0.03    -0.02   0.05   0.12
   8   1    -0.00   0.05   0.01     0.04   0.02   0.05    -0.01   0.10   0.02
   9   1     0.01   0.05   0.00     0.09  -0.05  -0.04     0.12  -0.16  -0.06
  10   1     0.04   0.03   0.01    -0.01  -0.00  -0.08     0.01   0.01  -0.23
  11   1    -0.01  -0.00  -0.04    -0.05  -0.05  -0.21     0.05   0.05   0.38
  12   1     0.01  -0.05  -0.01     0.11  -0.16  -0.05    -0.24   0.28   0.11
  13   1    -0.08   0.01   0.07    -0.11  -0.09  -0.53    -0.00  -0.02  -0.11
  14   1    -0.07  -0.05   0.04     0.01   0.50  -0.25     0.01   0.11  -0.06
  15   1     0.09   0.09  -0.29     0.03   0.06  -0.09     0.03   0.25   0.09
  16   1     0.25   0.14  -0.15     0.06  -0.13   0.07    -0.17   0.05   0.00
  17   1     0.22  -0.06  -0.23     0.13   0.04   0.13     0.17   0.01   0.02
  18   1    -0.02   0.22   0.23    -0.04  -0.15   0.03    -0.08  -0.09   0.18
  19   1     0.16   0.19   0.16     0.01   0.14   0.03     0.16  -0.07   0.10
  20   1     0.11   0.06   0.29    -0.21   0.01   0.09    -0.05  -0.01  -0.06
  21   1     0.08  -0.23  -0.01     0.00  -0.06  -0.02    -0.21   0.07  -0.13
  22   1     0.06  -0.20   0.13    -0.10   0.00   0.04     0.20  -0.15   0.05
  23   1    -0.08  -0.25   0.04    -0.01   0.04   0.08     0.07  -0.09  -0.38
                     40                     41                     42
                        a                      a                      a 
 Frequencies --  1496.0142              1499.1467              1500.4894
 Red. masses --     1.6088                 1.6339                 1.6285
 Frc consts  --     0.0000                 0.0000                 0.0000
 IR Inten    --     0.0471                 0.1137                 0.8093
 Raman Activ --     0.0000                 0.0000                 0.0000
 Depolar     --     0.0000                 0.0000                 0.0000
 Atom AN      X      Y      Z        X      Y      Z        X      Y      Z
   1   6     0.06  -0.03   0.02     0.00  -0.01   0.01    -0.05   0.01  -0.08
   2   6    -0.01   0.04   0.05    -0.02   0.07   0.10    -0.03   0.06   0.04
   3   6    -0.02   0.03  -0.04    -0.00  -0.01   0.02    -0.01   0.05  -0.08
   4   6     0.01  -0.02  -0.01     0.00  -0.01   0.00     0.02  -0.00  -0.03
   5   6     0.00  -0.03  -0.01     0.09  -0.10   0.05    -0.08  -0.06  -0.08
   6   6     0.15   0.00  -0.04    -0.07   0.11  -0.05     0.03   0.05  -0.02
   7   6    -0.13  -0.01   0.04    -0.01  -0.01  -0.01     0.09   0.00   0.05
   8   1    -0.15   0.07  -0.16    -0.03   0.02  -0.02     0.17  -0.15   0.16
   9   1    -0.19  -0.02   0.08    -0.03   0.02   0.02     0.12   0.16  -0.04
  10   1     0.07   0.05  -0.01     0.03   0.02   0.00    -0.08  -0.05   0.20
  11   1    -0.02  -0.02  -0.16    -0.05  -0.05  -0.28    -0.02  -0.02  -0.19
  12   1     0.10  -0.12  -0.04     0.15  -0.23  -0.07     0.11  -0.17  -0.06
  13   1     0.01   0.03   0.13    -0.02  -0.01  -0.07     0.03   0.04   0.25
  14   1     0.02  -0.12   0.06     0.01   0.06  -0.04    -0.01  -0.23   0.12
  15   1     0.00   0.08   0.05    -0.04   0.12   0.25     0.07   0.32  -0.01
  16   1    -0.08   0.04  -0.01    -0.27   0.34  -0.16    -0.09  -0.14   0.11
  17   1     0.05  -0.01  -0.02    -0.07  -0.09  -0.30     0.32   0.07   0.22
  18   1    -0.06  -0.31  -0.02    -0.10  -0.07   0.28    -0.06  -0.15   0.08
  19   1    -0.05   0.30   0.02     0.27  -0.32   0.14     0.07  -0.00   0.05
  20   1    -0.46   0.01   0.15     0.12  -0.04  -0.24    -0.14  -0.01  -0.04
  21   1     0.12   0.21   0.16     0.04   0.02   0.04    -0.24  -0.08  -0.20
  22   1     0.39   0.02  -0.15     0.01   0.03  -0.03    -0.19  -0.07   0.12
  23   1    -0.02  -0.19  -0.16    -0.01   0.00   0.04     0.07   0.14  -0.12
                     43                     44                     45
                        a                      a                      a 
 Frequencies --  1508.4391              1509.4457              1513.3235
 Red. masses --     1.6203                 1.6351                 1.6310
 Frc consts  --     0.0000                 0.0000                 0.0000
 IR Inten    --     1.0177                 0.8257                 1.4494
 Raman Activ --     0.0000                 0.0000                 0.0000
 Depolar     --     0.0000                 0.0000                 0.0000
 Atom AN      X      Y      Z        X      Y      Z        X      Y      Z
   1   6    -0.04   0.07  -0.15    -0.14   0.06   0.05     0.04  -0.02  -0.02
   2   6     0.03  -0.03  -0.10    -0.06   0.03   0.06     0.03  -0.02  -0.05
   3   6    -0.00  -0.02   0.03     0.00   0.02  -0.05    -0.01  -0.01  -0.01
   4   6     0.03  -0.01  -0.00     0.04   0.03   0.05     0.01   0.10  -0.03
   5   6     0.05  -0.04   0.04     0.06   0.07   0.06    -0.03   0.12   0.03
   6   6     0.05  -0.01  -0.03     0.04  -0.02  -0.02     0.02   0.11  -0.10
   7   6    -0.04   0.01  -0.04     0.00  -0.00   0.06     0.02  -0.03   0.00
   8   1     0.27  -0.38   0.20     0.22   0.04   0.28    -0.06  -0.02  -0.08
   9   1     0.10   0.24  -0.03     0.44  -0.18  -0.21    -0.14   0.08   0.07
  10   1    -0.22  -0.16   0.42    -0.11  -0.08  -0.29     0.03   0.02   0.11
  11   1     0.03   0.03   0.23     0.00   0.01  -0.15     0.01   0.00   0.11
  12   1    -0.16   0.14   0.06     0.11  -0.11  -0.05    -0.10   0.05   0.04
  13   1    -0.02  -0.02  -0.10     0.02   0.02   0.09     0.06   0.00   0.03
  14   1     0.00   0.10  -0.05    -0.04  -0.08   0.05    -0.01  -0.03   0.02
  15   1    -0.03   0.01   0.12    -0.07  -0.32  -0.01    -0.02  -0.36  -0.21
  16   1    -0.11   0.19  -0.10     0.13   0.09  -0.09     0.31  -0.17   0.04
  17   1    -0.08  -0.06  -0.19    -0.30  -0.05  -0.16    -0.20   0.02   0.09
  18   1    -0.03  -0.12   0.00    -0.01  -0.08  -0.02    -0.18  -0.30   0.36
  19   1    -0.01   0.15   0.02    -0.03   0.10  -0.00     0.32  -0.13   0.21
  20   1    -0.18   0.01   0.08    -0.13   0.01   0.06    -0.21  -0.04  -0.18
  21   1     0.13  -0.01   0.10    -0.14   0.05  -0.09    -0.02  -0.04  -0.02
  22   1     0.06   0.03  -0.05     0.05  -0.08   0.04    -0.07   0.01   0.02
  23   1    -0.04  -0.05   0.10     0.05   0.02  -0.20     0.01   0.04   0.03
                     46                     47                     48
                        a                      a                      a 
 Frequencies --  1517.2843              1521.4924              2957.3637
 Red. masses --     1.5963                 1.5881                 1.9053
 Frc consts  --     0.0000                 0.0000                 0.0000
 IR Inten    --     1.1339                 4.9919                19.9642
 Raman Activ --     0.0000                 0.0000                 0.0000
 Depolar     --     0.0000                 0.0000                 0.0000
 Atom AN      X      Y      Z        X      Y      Z        X      Y      Z
   1   6    -0.02  -0.02   0.09    -0.08   0.06   0.03    -0.01   0.00  -0.01
   2   6     0.01  -0.04  -0.03    -0.03   0.01   0.01     0.10  -0.10   0.03
   3   6    -0.03   0.03  -0.05     0.03   0.01  -0.02     0.02   0.24   0.07
   4   6     0.06  -0.02  -0.05    -0.08   0.01  -0.06    -0.00   0.01   0.00
   5   6     0.01  -0.06   0.02    -0.06   0.00  -0.05     0.00  -0.01  -0.00
   6   6     0.08   0.01  -0.02    -0.03   0.05   0.00     0.01  -0.01   0.00
   7   6     0.08  -0.02  -0.12    -0.11  -0.04  -0.08    -0.01  -0.00  -0.00
   8   1    -0.06   0.18  -0.02     0.15  -0.03   0.17    -0.00   0.00  -0.00
   9   1     0.08  -0.17  -0.05     0.28  -0.13  -0.13     0.01  -0.00   0.04
  10   1     0.06   0.04  -0.29    -0.12  -0.09  -0.18     0.01  -0.02  -0.00
  11   1     0.03   0.03   0.14     0.01   0.02   0.00    -0.33   0.37  -0.01
  12   1    -0.09   0.12   0.05     0.01   0.00  -0.00    -0.02  -0.00  -0.10
  13   1     0.03   0.02   0.12     0.00   0.01   0.08    -0.00  -0.70   0.12
  14   1     0.03  -0.12   0.05    -0.00  -0.07   0.04    -0.07  -0.16  -0.36
  15   1    -0.01   0.13   0.11     0.05   0.12  -0.11    -0.00  -0.00  -0.00
  16   1    -0.14   0.13  -0.05     0.04  -0.19   0.12     0.00   0.01   0.01
  17   1     0.05  -0.03  -0.10     0.17   0.07   0.21    -0.00   0.02  -0.00
  18   1    -0.05  -0.20   0.01    -0.03   0.01   0.13    -0.01   0.00  -0.00
  19   1     0.00   0.17   0.04     0.12  -0.18   0.05    -0.01  -0.00   0.01
  20   1    -0.27   0.01   0.07     0.10  -0.02  -0.14    -0.00   0.02  -0.01
  21   1     0.13  -0.22   0.02     0.37   0.12   0.31    -0.00   0.00  -0.00
  22   1    -0.40   0.12   0.06     0.22   0.16  -0.21     0.01   0.01   0.01
  23   1    -0.05   0.18   0.42    -0.11  -0.17   0.24     0.01  -0.00   0.00
                     49                     50                     51
                        a                      a                      a 
 Frequencies --  2968.5842              2979.6578              2997.4396
 Red. masses --     1.8800                 1.5606                 1.5961
 Frc consts  --     0.0000                 0.0000                 0.0000
 IR Inten    --    38.3289                49.3900                22.3347
 Raman Activ --     0.0000                 0.0000                 0.0000
 Depolar     --     0.0000                 0.0000                 0.0000
 Atom AN      X      Y      Z        X      Y      Z        X      Y      Z
   1   6     0.02  -0.01  -0.00    -0.01   0.01  -0.01     0.01   0.01  -0.06
   2   6    -0.14   0.14  -0.08     0.08  -0.09   0.02     0.02   0.04   0.21
   3   6     0.03   0.11   0.14     0.03  -0.10   0.16     0.00   0.02   0.03
   4   6     0.00   0.00   0.01     0.00  -0.00   0.00     0.00   0.00   0.00
   5   6    -0.00  -0.00  -0.01    -0.01   0.01  -0.01    -0.01  -0.00  -0.01
   6   6     0.00  -0.01   0.00    -0.00   0.01  -0.01     0.02  -0.00  -0.01
   7   6    -0.01  -0.00  -0.01     0.00   0.00  -0.00     0.01  -0.00  -0.01
   8   1    -0.02  -0.01   0.03    -0.00   0.00  -0.00    -0.10  -0.02   0.08
   9   1    -0.01  -0.00  -0.03     0.02  -0.00   0.05     0.07  -0.02   0.16
  10   1    -0.04   0.05   0.00     0.02  -0.03  -0.00    -0.01   0.02  -0.01
  11   1     0.41  -0.48   0.01    -0.27   0.31  -0.01     0.22  -0.24   0.04
  12   1     0.10  -0.01   0.30    -0.01  -0.01  -0.05    -0.32   0.09  -0.81
  13   1     0.00  -0.12   0.04     0.01   0.64  -0.07     0.00  -0.01   0.01
  14   1    -0.11  -0.28  -0.55    -0.10  -0.30  -0.51    -0.02  -0.06  -0.11
  15   1     0.01  -0.00   0.00     0.03  -0.01   0.01     0.02  -0.00   0.00
  16   1     0.01   0.02   0.02     0.01   0.02   0.03     0.00   0.01   0.02
  17   1    -0.00   0.00  -0.00     0.00  -0.05   0.01    -0.00  -0.00  -0.00
  18   1    -0.02   0.00  -0.00     0.01  -0.00   0.00    -0.02   0.01  -0.01
  19   1     0.00   0.00  -0.00    -0.01  -0.00   0.01    -0.05  -0.01   0.06
  20   1    -0.00   0.02  -0.01     0.00  -0.03   0.01     0.00   0.02  -0.01
  21   1     0.01   0.00  -0.01    -0.01  -0.00   0.01    -0.02  -0.01   0.02
  22   1     0.01   0.02   0.02     0.00   0.00   0.00     0.00   0.01   0.01
  23   1     0.01  -0.00   0.00     0.00  -0.00  -0.00    -0.01   0.00  -0.00
                     52                     53                     54
                        a                      a                      a 
 Frequencies --  3021.3600              3023.1701              3024.1016
 Red. masses --     1.9155                 1.9216                 1.9433
 Frc consts  --     0.0000                 0.0000                 0.0000
 IR Inten    --    12.6155                 3.6726                 1.0062
 Raman Activ --     0.0000                 0.0000                 0.0000
 Depolar     --     0.0000                 0.0000                 0.0000
 Atom AN      X      Y      Z        X      Y      Z        X      Y      Z
   1   6    -0.02   0.01   0.01     0.01   0.01  -0.04     0.03   0.02  -0.09
   2   6     0.00  -0.00   0.01    -0.00  -0.00  -0.00    -0.00   0.00  -0.01
   3   6     0.00  -0.01  -0.00     0.00   0.00   0.00     0.00  -0.00   0.00
   4   6    -0.00  -0.00  -0.00     0.00   0.00   0.00     0.00   0.00   0.00
   5   6     0.07  -0.03   0.04     0.06   0.21   0.11     0.15  -0.11   0.09
   6   6     0.07  -0.06   0.02    -0.08  -0.08   0.05    -0.14   0.09  -0.03
   7   6    -0.24  -0.01  -0.09     0.02  -0.04  -0.08    -0.01   0.02   0.04
   8   1     0.04   0.01  -0.03    -0.07  -0.01   0.06    -0.19  -0.04   0.16
   9   1    -0.01   0.00  -0.01     0.04  -0.01   0.10     0.08  -0.02   0.18
  10   1     0.03  -0.03   0.00    -0.00   0.00  -0.01     0.00   0.01  -0.01
  11   1    -0.00   0.00   0.00    -0.00   0.00  -0.00    -0.00   0.00  -0.00
  12   1    -0.01   0.00  -0.02     0.00  -0.00   0.01     0.01  -0.00   0.03
  13   1    -0.00   0.04  -0.01     0.00  -0.00   0.00    -0.00   0.01   0.00
  14   1     0.00   0.00   0.01    -0.00  -0.00  -0.01    -0.01  -0.01  -0.02
  15   1    -0.22   0.05  -0.07    -0.12   0.06  -0.02    -0.52   0.11  -0.16
  16   1    -0.01  -0.04  -0.05    -0.14  -0.32  -0.49    -0.01  -0.09  -0.09
  17   1     0.00   0.11  -0.02     0.04  -0.46   0.14     0.00   0.36  -0.08
  18   1    -0.24   0.06  -0.06     0.17  -0.06   0.06     0.46  -0.11   0.13
  19   1     0.00  -0.01   0.01     0.13   0.03  -0.17     0.05   0.04  -0.10
  20   1     0.00   0.15  -0.03    -0.03   0.31  -0.07    -0.01  -0.26   0.06
  21   1     0.04   0.03  -0.12    -0.07  -0.03   0.08     0.04   0.01  -0.04
  22   1     0.06   0.18   0.25     0.08   0.15   0.21    -0.04  -0.08  -0.11
  23   1     0.75  -0.19   0.18    -0.10   0.02  -0.04     0.05  -0.01   0.02
                     55                     56                     57
                        a                      a                      a 
 Frequencies --  3026.0225              3029.5464              3030.3168
 Red. masses --     1.9106                 1.5880                 1.8251
 Frc consts  --     0.0000                 0.0000                 0.0000
 IR Inten    --    59.7247                49.2925                64.4733
 Raman Activ --     0.0000                 0.0000                 0.0000
 Depolar     --     0.0000                 0.0000                 0.0000
 Atom AN      X      Y      Z        X      Y      Z        X      Y      Z
   1   6     0.09   0.04  -0.24     0.20  -0.02   0.10     0.01   0.01  -0.03
   2   6    -0.00  -0.01  -0.05     0.02  -0.01   0.02    -0.00   0.00  -0.01
   3   6    -0.00  -0.01  -0.02     0.00   0.00   0.01    -0.00   0.01  -0.01
   4   6     0.00  -0.00  -0.00    -0.00   0.00  -0.00    -0.01   0.01  -0.01
   5   6    -0.05   0.00  -0.04     0.01   0.02   0.00    -0.08   0.07  -0.01
   6   6     0.08  -0.04   0.02    -0.00   0.01  -0.01    -0.04   0.19  -0.07
   7   6    -0.00   0.01   0.01    -0.01   0.01   0.00    -0.07  -0.06  -0.10
   8   1    -0.54  -0.11   0.45    -0.39  -0.10   0.38    -0.06  -0.01   0.05
   9   1     0.20  -0.05   0.41    -0.28   0.08  -0.73     0.03  -0.01   0.06
  10   1     0.01   0.01  -0.04    -0.05   0.09   0.01     0.01  -0.00  -0.00
  11   1    -0.04   0.05  -0.01    -0.03   0.04   0.00     0.00  -0.00  -0.00
  12   1     0.07  -0.02   0.18    -0.03   0.01  -0.08     0.01  -0.00   0.02
  13   1    -0.00   0.01  -0.00     0.00   0.01  -0.00     0.00  -0.04   0.01
  14   1     0.01   0.03   0.06    -0.00  -0.01  -0.02     0.00   0.01   0.02
  15   1     0.16  -0.04   0.05    -0.04   0.01  -0.01     0.34  -0.07   0.11
  16   1     0.02   0.06   0.08    -0.01  -0.01  -0.02    -0.04  -0.05  -0.09
  17   1    -0.01  -0.03   0.00     0.01  -0.07   0.02    -0.01  -0.12   0.03
  18   1    -0.27   0.06  -0.07     0.02  -0.00   0.01     0.18  -0.02   0.04
  19   1    -0.00  -0.01   0.02    -0.02  -0.01   0.02    -0.07   0.01   0.07
  20   1     0.01   0.10  -0.02     0.00  -0.03   0.00     0.03  -0.66   0.15
  21   1    -0.00   0.00   0.01    -0.01  -0.00   0.02     0.01  -0.00  -0.04
  22   1    -0.02  -0.04  -0.06    -0.01  -0.02  -0.03     0.13   0.26   0.38
  23   1     0.04  -0.01   0.01     0.06  -0.01   0.01     0.11  -0.04   0.01
                     58                     59                     60
                        a                      a                      a 
 Frequencies --  3030.7606              3032.8608              3036.9884
 Red. masses --     1.7577                 1.8007                 1.3314
 Frc consts  --     0.0000                 0.0000                 0.0000
 IR Inten    --    75.8738                77.9425                61.1363
 Raman Activ --     0.0000                 0.0000                 0.0000
 Depolar     --     0.0000                 0.0000                 0.0000
 Atom AN      X      Y      Z        X      Y      Z        X      Y      Z
   1   6     0.00  -0.01   0.01     0.02   0.00   0.00    -0.00   0.00  -0.01
   2   6     0.00  -0.00  -0.00     0.00  -0.00   0.00    -0.00  -0.00  -0.01
   3   6     0.00  -0.00   0.01    -0.00  -0.01  -0.00    -0.00   0.00  -0.01
   4   6     0.01  -0.00   0.00    -0.00  -0.01  -0.00     0.01   0.00  -0.01
   5   6     0.08  -0.03   0.14    -0.02  -0.15  -0.03     0.11   0.02  -0.08
   6   6     0.18   0.03  -0.04    -0.06  -0.08   0.06     0.06   0.04  -0.02
   7   6     0.08  -0.03  -0.02     0.05  -0.09  -0.15     0.03  -0.05  -0.04
   8   1     0.01   0.00  -0.01    -0.06  -0.01   0.06    -0.01  -0.00   0.01
   9   1    -0.01   0.00  -0.03    -0.02   0.01  -0.06     0.01  -0.00   0.03
  10   1    -0.01   0.01   0.00     0.00   0.00   0.00     0.00  -0.00  -0.00
  11   1    -0.01   0.01  -0.00    -0.01   0.01  -0.00    -0.00   0.00  -0.00
  12   1     0.01  -0.00   0.02    -0.00  -0.00  -0.01     0.01  -0.00   0.02
  13   1    -0.00   0.03  -0.00    -0.00   0.03  -0.01     0.00  -0.02   0.00
  14   1    -0.01  -0.02  -0.03     0.00   0.01   0.02     0.01   0.01   0.02
  15   1    -0.17   0.04  -0.04     0.05  -0.04   0.01    -0.54   0.13  -0.18
  16   1    -0.11  -0.29  -0.39     0.06   0.13   0.21     0.12   0.26   0.36
  17   1    -0.01   0.34  -0.07    -0.03   0.44  -0.12     0.04  -0.45   0.10
  18   1    -0.49   0.13  -0.15     0.08  -0.03   0.03    -0.17   0.05  -0.05
  19   1    -0.18  -0.06   0.25     0.16   0.04  -0.20    -0.08  -0.02   0.10
  20   1     0.04  -0.17   0.03    -0.02   0.27  -0.06     0.02  -0.17   0.04
  21   1    -0.03  -0.02   0.05    -0.12  -0.05   0.14     0.01  -0.01  -0.01
  22   1     0.04   0.06   0.09     0.19   0.34   0.48     0.09   0.15   0.22
  23   1    -0.30   0.07  -0.08    -0.24   0.05  -0.08    -0.20   0.04  -0.06
                     61                     62                     63
                        a                      a                      a 
 Frequencies --  3041.5906              3047.4892              3055.1824
 Red. masses --     1.3559                 1.5519                 1.6326
 Frc consts  --     0.0000                 0.0000                 0.0000
 IR Inten    --    31.6074                59.8444                33.3820
 Raman Activ --     0.0000                 0.0000                 0.0000
 Depolar     --     0.0000                 0.0000                 0.0000
 Atom AN      X      Y      Z        X      Y      Z        X      Y      Z
   1   6    -0.00  -0.01   0.01    -0.01   0.00  -0.01    -0.13   0.20   0.01
   2   6     0.00   0.00   0.01    -0.01   0.00  -0.01    -0.01   0.02   0.00
   3   6     0.00   0.01   0.00     0.00   0.00  -0.00     0.00   0.01   0.00
   4   6     0.00   0.00   0.00     0.00   0.00  -0.01     0.00   0.00   0.00
   5   6     0.01   0.01   0.00     0.00  -0.00  -0.01     0.00   0.00   0.00
   6   6    -0.03   0.03   0.15     0.02   0.02  -0.08    -0.00   0.00   0.00
   7   6     0.05   0.05  -0.05     0.08   0.07  -0.17     0.01   0.00   0.00
   8   1     0.03   0.01  -0.03     0.02   0.00  -0.02    -0.08   0.01   0.05
   9   1    -0.01   0.00  -0.02     0.01  -0.00   0.04    -0.06   0.04  -0.09
  10   1    -0.01   0.01   0.00     0.00  -0.01  -0.00     0.60  -0.74   0.01
  11   1     0.01  -0.01   0.00     0.00  -0.00  -0.00     0.05  -0.05   0.00
  12   1    -0.02   0.01  -0.05     0.02  -0.01   0.06    -0.00   0.00  -0.00
  13   1     0.00  -0.01   0.00     0.00  -0.01   0.00    -0.00  -0.02   0.00
  14   1    -0.00  -0.01  -0.02     0.00   0.01   0.01    -0.00  -0.00  -0.01
  15   1    -0.04   0.01  -0.01    -0.03   0.01  -0.01    -0.00   0.00  -0.00
  16   1    -0.00  -0.01  -0.01     0.01   0.02   0.04    -0.00  -0.01  -0.01
  17   1     0.00  -0.03   0.01     0.00  -0.02   0.00     0.00  -0.00   0.00
  18   1    -0.35   0.09  -0.07     0.15  -0.03   0.03    -0.00   0.00  -0.00
  19   1     0.45   0.14  -0.56    -0.23  -0.07   0.28     0.00   0.00  -0.00
  20   1     0.01  -0.34   0.10     0.00   0.03  -0.02     0.00  -0.01   0.00
  21   1    -0.21  -0.07   0.29    -0.51  -0.17   0.66    -0.00  -0.00   0.01
  22   1    -0.04  -0.08  -0.13    -0.01  -0.03  -0.08    -0.01  -0.01  -0.01
  23   1     0.08  -0.01   0.01     0.21  -0.04   0.02    -0.03   0.01  -0.01
