      -----------------------------------------------------------      
     |                   =====================                   |     
     |                           x T B                           |     
     |                   =====================                   |     
     |                         S. Grimme                         |     
     |          Mulliken Center for Theoretical Chemistry        |     
     |                    University of Bonn                     |     
      -----------------------------------------------------------      

   * xtb version 6.7.1 (edcfbbe) compiled by 'albert@albert-system' on 2024-07-22

   xtb is free software: you can redistribute it and/or modify it under
   the terms of the GNU Lesser General Public License as published by
   the Free Software Foundation, either version 3 of the License, or
   (at your option) any later version.
   
   xtb is distributed in the hope that it will be useful,
   but WITHOUT ANY WARRANTY; without even the implied warranty of
   MERCHANTABILITY or FITNESS FOR A PARTICULAR PURPOSE.  See the
   GNU Lesser General Public License for more details.
   
   Cite this work as:
   * C. Bannwarth, E. Caldeweyher, S. Ehlert, A. Hansen, P. Pracht,
     J. Seibert, S. Spicher, S. Grimme, WIREs Comput. Mol. Sci., 2020, 11,
     e01493. DOI: 10.1002/wcms.1493
   
   for GFN2-xTB:
   * C. Bannwarth, S. Ehlert and S. Grimme., J. Chem. Theory Comput., 2019,
     15, 1652-1671. DOI: 10.1021/acs.jctc.8b01176
   for GFN1-xTB:
   * S. Grimme, C. Bannwarth, P. Shushkov, J. Chem. Theory Comput., 2017,
     13, 1989-2009. DOI: 10.1021/acs.jctc.7b00118
   for GFN0-xTB:
   * P. Pracht, E. Caldeweyher, S. Ehlert, S. Grimme, ChemRxiv, 2019, preprint.
     DOI: 10.26434/chemrxiv.8326202.v1
   for GFN-FF:
   * S. Spicher and S. Grimme, Angew. Chem. Int. Ed., 2020, 59, 15665-15673.
     DOI: 10.1002/anie.202004239
   
   for ALPB and GBSA implicit solvation:
   * S. Ehlert, M. Stahn, S. Spicher, S. Grimme, J. Chem. Theory Comput.,
     2021, 17, 4250-4261. DOI: 10.1021/acs.jctc.1c00471
   
   for ddCOSMO and CPCM-X implicit solvation:
   * M. Stahn, S. Ehlert, S. Grimme, J. Phys. Chem. A,
     2023, XX, XXXX-XXXX. DOI: 10.1021/acs.jpca.3c04382
   
   for DFT-D4:
   * E. Caldeweyher, C. Bannwarth and S. Grimme, J. Chem. Phys., 2017,
     147, 034112. DOI: 10.1063/1.4993215
   * E. Caldeweyher, S. Ehlert, A. Hansen, H. Neugebauer, S. Spicher,
     C. Bannwarth and S. Grimme, J. Chem. Phys., 2019, 150, 154122.
     DOI: 10.1063/1.5090222
   * E. Caldeweyher, J.-M. Mewes, S. Ehlert and S. Grimme, Phys. Chem. Chem. Phys.
     2020, 22, 8499-8512. DOI: 10.1039/D0CP00502A
   
   for sTDA-xTB:
   * S. Grimme and C. Bannwarth, J. Chem. Phys., 2016, 145, 054103.
     DOI: 10.1063/1.4959605
   
   in the mass-spec context:
   * V. Asgeirsson, C. Bauer and S. Grimme, Chem. Sci., 2017, 8, 4879.
     DOI: 10.1039/c7sc00601b
   * J. Koopman and S. Grimme, ACS Omega 2019, 4, 12, 15120-15133.
     DOI: 10.1021/acsomega.9b02011
   
   for metadynamics refer to:
   * S. Grimme, J. Chem. Theory Comput., 2019, 155, 2847-2862
     DOI: 10.1021/acs.jctc.9b00143
   
   for SPH calculations refer to:
   * S. Spicher and S. Grimme, J. Chem. Theory Comput., 2021, 17, 1701-1714
     DOI: 10.1021/acs.jctc.0c01306
   
   for ONIOM refer to:
   * C. Plett, A. Katbashev, S. Ehlert, S. Grimme, M. Bursch,
     Phys. Chem. Chem. Phys., 2023, 25, 17860-17868. DOI: 10.1039/D3CP02178E
   
   for DIPRO refer to:
   * J. Kohn, N. Gildemeister, S. Grimme, D. Fazzi, A. Hansen,
     J. Chem. Phys., 2023, just accepted.
   
   for PTB refer to:
   * S. Grimme, M. Mueller, A. Hansen, J. Chem. Phys., 2023, 158, 124111.
     DOI: 10.1063/5.0137838
   
   with help from (in alphabetical order)
   P. Atkinson, C. Bannwarth, F. Bohle, G. Brandenburg, E. Caldeweyher
   M. Checinski, S. Dohm, S. Ehlert, S. Ehrlich, I. Gerasimov, C. Hölzer
   A. Katbashev, J. Kohn, J. Koopman, C. Lavigne, S. Lehtola, F. März, M. Müller,
   F. Musil, H. Neugebauer, J. Pisarek, C. Plett, P. Pracht, F. Pultar,
   J. Seibert, P. Shushkov, S. Spicher, M. Stahn, M. Steiner, T. Strunk,
   J. Stückrath, T. Rose, and J. Unsleber
   
 * started run on 2025/04/15 at 19:20:17.816     
   ID    Z sym.   atoms
    1    6 C      1-5
    2    8 O      6
    3    1 H      7-16

           -------------------------------------------------
          |                Calculation Setup                |
           -------------------------------------------------

          program call               : /software/projects/pawsey0265/mwang1/xtb/bin/xtb xtb_opt.coord --opt normal --orca -I xtb_opt-xcontrol-inp
          hostname                   : nid002793
          coordinate file            : xtb_opt.coord
          omp threads                :                    12

           -------------------------------------------------
          |                   Orca driver                   |
           -------------------------------------------------
orca executable           : /software/projects/pawsey0265/mwang1/orca_avx2/orca
orca input file           : xtb_opt.inp
orca input line           : 
orca parallel             : true
orca number of threads    : 12
                         * ORCA takes the control...
  ------------------------------------------------------------------------

                                 *****************
                                 * O   R   C   A *
                                 *****************

                                            #,                                       
                                            ###                                      
                                            ####                                     
                                            #####                                    
                                            ######                                   
                                           ########,                                 
                                     ,,################,,,,,                         
                               ,,#################################,,                 
                          ,,##########################################,,             
                       ,#########################################, ''#####,          
                    ,#############################################,,   '####,        
                  ,##################################################,,,,####,       
                ,###########''''           ''''###############################       
              ,#####''   ,,,,##########,,,,          '''####'''          '####       
            ,##' ,,,,###########################,,,                        '##       
           ' ,,###''''                  '''############,,,                           
         ,,##''                                '''############,,,,        ,,,,,,###''
      ,#''                                            '''#######################'''  
     '                                                          ''''####''''         
             ,#######,   #######,   ,#######,      ##                                
            ,#'     '#,  ##    ##  ,#'     '#,    #''#        ,####,   ,####,        
            ##       ##  ##   ,#'  ##            #'  '#       #'       #'  '#        
            ##       ##  #######   ##           ,######,      #####,   #    #        
            '#,     ,#'  ##    ##  '#,     ,#' ,#      #,     #,   #   #,  ,#        
             '#######'   ##     ##  '#######'  #'      '#     '####' # '####'        



                #########################################################
                #                        -***-                          #
                #          Department of theory and spectroscopy        #
                #                                                       #
                #                      Frank Neese                      #
                #                                                       #
                #     Directorship, Architecture, Infrastructure        #
                #                    SHARK, DRIVERS                     #
                #        Core code/Algorithms in most modules           #
                #                                                       #
                #        Max Planck Institute fuer Kohlenforschung      #
                #                Kaiser Wilhelm Platz 1                 #
                #                 D-45470 Muelheim/Ruhr                 #
                #                      Germany                          #
                #                                                       #
                #                  All rights reserved                  #
                #                        -***-                          #
                #########################################################


                         Program Version 6.0.1  -  RELEASE   -


 With contributions from (in alphabetic order):
[Max-Planck-Institut fuer Kohlenforschung]                               
  Daniel Aravena         : Magnetic Suceptibility                        
  Michael Atanasov       : Ab Initio Ligand Field Theory (pilot matlab implementation)
  Alexander A. Auer      : GIAO ZORA, VPT2 properties, NMR spectrum      
  Ute Becker             : All parallelization in ORCA, NUMFREQ, NUMCALC 
  Giovanni Bistoni       : ED, misc. LED, open-shell LED, HFLD           
  Martin Brehm           : Molecular dynamics                            
  Dmytro Bykov           : pre 5.0 version of the SCF Hessian            
  Marcos Casanova-Páez   : Triplet and SCS-CIS(D). UHF-(DLPNO)-IP/EA/STEOM-CCSD. UHF-CVS-IP/STEOM-CCSD   
  Vijay G. Chilkuri      : MRCI spin determinant printing, contributions to CSF-ICE 
  Pauline Colinet        : FMM embedding                                 
  Dipayan Datta          : RHF DLPNO-CCSD density                        
  Achintya Kumar Dutta   : EOM-CC, STEOM-CC                              
  Nicolas Foglia         : Exact transition moments, OPA infrastructure, MCD improvements    
  Dmitry Ganyushin       : Spin-Orbit,Spin-Spin,Magnetic field MRCI      
  Miquel Garcia-Rates    : C-PCM and meta-GGA Hessian, CCSD/C-PCM, Gaussian charge scheme 
  Tiago L. C. Gouveia    : GS-ROHF, GS-ROCIS                             
  Yang Guo               : DLPNO-NEVPT2, F12-NEVPT2, CIM, IAO-localization        
  Andreas Hansen         : Spin unrestricted coupled pair/coupled cluster methods 
  Ingolf Harden          : AUTO-CI MPn and infrastructure                
  Benjamin Helmich-Paris : MC-RPA, TRAH-(SCF,CASSCF), AVAS, COSX integrals, SCF dyn. polar. 
  Lee Huntington         : MR-EOM, pCC                                   
  Robert Izsak           : Overlap fitted RIJCOSX, COSX-SCS-MP3, EOM     
  Riya Kayal             : Wick's Theorem for AUTO-CI, AUTO-CI UHF-CCSDT 
  Emily Kempfer          : AUTO-CI, RHF CISDT and CCSDT                  
  Christian Kollmar      : KDIIS, OOCD, Brueckner-CCSD(T), CCSD density, CASPT2, CASPT2-K, improved NEVPT2 
  Axel Koslowski         : Symmetry handling                             
  Simone Kossmann        : meta-GGA functionals, TD-DFT gradient, OOMP2, (MP2 Hessian; deprecated post 5.0) 
  Lucas Lang             : DCDCAS                                        
  Marvin Lechner         : AUTO-CI (C++ implementation), FIC-MRCC        
  Spencer Leger          : CASSCF response                               
  Dagmar Lenk            : GEPOL surface, SMD, ORCA-2-JSON               
  Dimitrios Liakos       : Extrapolation schemes; Compound Job, initial MDCI parallelization 
  Dimitrios Manganas     : Further ROCIS development; embedding schemes. LFT, Crystal Embedding 
  Dimitrios Pantazis     : SARC Basis sets                               
  Anastasios Papadopoulos: AUTO-CI, single reference methods and gradients 
  Taras Petrenko         : pre 6.0 DFT Hessian and TD-DFT gradient, (ASA, deprecated), ECA, 1-Electron XAS/XES, NRVS 
  Peter Pinski           : DLPNO-MP2, DLPNO-MP2 Gradient                 
  Christoph Reimann      : Effective Core Potentials                     
  Marius Retegan         : Local ZFS, SOC                                
  Christoph Riplinger    : Optimizer, TS searches, QM/MM, DLPNO-CCSD(T), (RO)-DLPNO pert. Triples 
  Michael Roemelt        : Original ROCIS implementation                 
  Masaaki Saitow         : Open-shell DLPNO-CCSD energy and density      
  Barbara Sandhoefer     : DKH picture change effects                    
  Kantharuban Sivalingam : CASSCF convergence/infrastructure, NEVPT2 and variants, FIC-MRCI 
  Bernardo de Souza      : ESD, SOC TD-DFT                               
  Georgi L. Stoychev     : AutoAux, RI-MP2 NMR, DLPNO-MP2 response, X2C  
  Van Anh Tran           : RI-MP2 g-tensors                              
  Willem Van den Heuvel  : Paramagnetic NMR                              
  Zikuan Wang            : NOTCH, Electric field optimization            
  Frank Wennmohs         : Technical directorship and infrastructure     
  Hang Xu                : AUTO-CI-Response properties                   
                                                                         
[FACCTs GmbH]                                                            
  Markus Bursch, Miquel Garcia-Rates, Christoph Riplinger, Bernardo de Souza, Georgi L. Stoychev 
                                                                 
  APM, Basis sets (HGBS, AHGBS, def-TZVP (Ac-Lr), def2-XVPD (La-Lu)), CI-OPT, improved COSX, DLPNO-Multilevel,           
  DOCKER, DRACO, updates on ESD, GOAT, IRC, LR-CPCM, MBIS, meta-GGA TD-DFT gradient, ML-optimized integration grids, 
  MM, NACMEs, nearIR, NEB, NEB-TS, NL-DFT gradient (VV10), 2- and 3-layer-ONIOM, interface openCOSMO-RS, QMMM,   
  Crystal-QMMM, SF, symmetry and pop. for TD-DFT, r2SCAN hybrids, SOLVATOR                                   
                                                                         
[Other institutions]                                                     
  V. Asgeirsson          : NEB                                           
  Christoph Bannwarth    : sTDA-DFT, sTD-DFT, PBEh-3c, B97-3c, D3        
  Sebastian Ehlert       : rSCAN, r2SCAN, r2SCAN-3c, D4, dhf basis sets  
  Marvin Friede          : D4 for Fr, Ra, Ac-Lr                          
  Lars Goerigk           : TD-DFT with DH, B97 family of functionals     
  Stefan Grimme          : VdW corrections, initial TS optimization, DFT functionals, gCP, sTDA/sTD-DF 
  Waldemar Hujo          : DFT-NL                                        
  H. Jonsson             : NEB                                           
  Holger Kruse           : gCP                                           
  Marcel Mueller         : wB97X-3c, vDZP basis set                      
  Hagen Neugebauer       : wr2SCAN                                       
  Tobias Risthaus        : range-separated hybrid DFT                    
  Lukas Wittmann         : regularized MP2, r2SCAN double-hybrids, wr2SCAN        
                                                                         
We gratefully acknowledge several colleagues who have allowed us to      
interface, adapt or use parts of their codes:                            
  Ed Valeev, F. Pavosevic, A. Kumar             : LibInt (2-el integral package), F12 methods 
  Garnet Chan, S. Sharma, J. Yang, R. Olivares  : DMRG                   
  Ulf Ekstrom                                   : XCFun DFT Library      
  Mihaly Kallay                                 : mrcc  (arbitrary order and MRCC methods)
  Frank Weinhold                                : gennbo (NPA and NBO analysis)           
  Simon Mueller                                 : openCOSMO-RS                            
  Christopher J. Cramer and Donald G. Truhlar   : smd solvation model                     
  S Lehtola, MJT Oliveira, MAL Marques          : LibXC Library                           
  Liviu Ungur et al                             : ANISO software                          


 Your calculation uses the libint2 library for the computation of 2-el integrals
 For citations please refer to: http://libint.valeyev.net

 Your ORCA version has been built with support for libXC version: 6.2.2
 For citations please refer to: https://libxc.gitlab.io

 This ORCA versions uses:
   CBLAS   interface :  Fast vector & matrix operations
   LAPACKE interface :  Fast linear algebra routines
   SCALAPACK package :  Parallel linear algebra routines
   Shared memory     :  Shared parallel matrices
   BLAS/LAPACK       :  OpenBLAS 0.3.27  USE64BITINT DYNAMIC_ARCH NO_AFFINITY Zen SINGLE_THREADED
        Core in use  :  Zen
   Copyright (c) 2011-2014, The OpenBLAS Project




***************************************
The coordinates will be read from file: xtb_opt.xyz
***************************************


Your calculation utilizes the geometrical counterpoise correction gCP
Please cite in your paper:
H.Kruse, S. Grimme J.Chem.Phys., 136, (2012), 154101 
   

Your calculation utilizes the atom-pairwise dispersion correction
based on EEQ partial charges (D4)


================================================================================

----- Orbital basis set information -----
Your calculation utilizes the basis: def2-mTZVPP
   Stefan Grimme, Andreas Hansen, Sebastian Ehlert, and Jan-Michael Mewes 
   J. Chem. Phys. 154, 064103 (2021). DOI: 10.1063/5.0040021

----- AuxJ basis set information -----
Your calculation utilizes the auxiliary basis: def2/J
   F. Weigend, Phys. Chem. Chem. Phys. 8, 1057 (2006).

================================================================================
                                        WARNINGS
                       Please study these warnings very carefully!
================================================================================

WARNING: Old DensityContainer found on disk!
         Will remove this file - 
         If you want to keep old densities, please start your calculation with a different basename. 



WARNING: SCAN, rSCAN, or r2SCAN functional requested.
  ===> : libXC variant has now been activated.



================================================================================
                                       INPUT FILE
================================================================================
NAME = xtb_opt.inp
|  1> ! r2scan-3c def2/J RI DEFGRID2 scfconv7 ENGRAD tightSCF miniprint
|  2> * xyzfile 0 1 xtb_opt.xyz
|  3> 
|  4>                          ****END OF INPUT****
================================================================================

                     *******************************
                     * Energy+Gradient Calculation *
                     *******************************

---------------------------------
CARTESIAN COORDINATES (ANGSTROEM)
---------------------------------
  C     -1.487842    0.644991   -0.199285
  C     -1.189281   -0.844183   -0.447042
  C     -0.086998   -1.144672    0.572772
  C      0.830523    0.078533    0.457728
  C     -0.138336    1.258940    0.265793
  O      1.642635    0.008856   -0.727254
  H     -2.236376    0.742091    0.596608
  H     -1.892411    1.143990   -1.085141
  H     -2.071868   -1.480016   -0.331047
  H     -0.795642   -0.990176   -1.458529
  H     -0.510168   -1.181864    1.585938
  H      0.443524   -2.087183    0.396519
  H      1.473329    0.208966    1.341164
  H     -0.256011    1.813057    1.203286
  H      0.286664    1.948893   -0.470181
  H      2.228363   -0.750808   -0.641620

----------------------------
CARTESIAN COORDINATES (A.U.)
----------------------------
  NO LB      ZA    FRAG     MASS         X           Y           Z
   0 C     6.0000    0    12.011   -2.811615    1.218856   -0.376594
   1 C     6.0000    0    12.011   -2.247416   -1.595275   -0.844787
   2 C     6.0000    0    12.011   -0.164403   -2.163117    1.082382
   3 C     6.0000    0    12.011    1.569461    0.148405    0.864981
   4 C     6.0000    0    12.011   -0.261417    2.379051    0.502277
   5 O     8.0000    0    15.999    3.104131    0.016736   -1.374311
   6 H     1.0000    0     1.008   -4.226138    1.402348    1.127426
   7 H     1.0000    0     1.008   -3.576139    2.161827   -2.050619
   8 H     1.0000    0     1.008   -3.915262   -2.796824   -0.625588
   9 H     1.0000    0     1.008   -1.503545   -1.871162   -2.756221
  10 H     1.0000    0     1.008   -0.964078   -2.233400    2.996989
  11 H     1.0000    0     1.008    0.838138   -3.944203    0.749312
  12 H     1.0000    0     1.008    2.784188    0.394888    2.534432
  13 H     1.0000    0     1.008   -0.483790    3.426180    2.273881
  14 H     1.0000    0     1.008    0.541717    3.682874   -0.888513
  15 H     1.0000    0     1.008    4.210995   -1.418822   -1.212486

------------------------------------------------------------------------------
                   ___                                                        
                  /   \      - P O W E R E D   B Y -                         
                 /     \                                                     
                 |  |  |   _    _      __       _____    __    __             
                 |  |  |  | |  | |    /  \     |  _  \  |  |  /  |          
                  \  \/   | |  | |   /    \    | | | |  |  | /  /          
                 / \  \   | |__| |  /  /\  \   | |_| |  |  |/  /          
                |  |  |   |  __  | /  /__\  \  |    /   |      \           
                |  |  |   | |  | | |   __   |  |    \   |  |\   \          
                \     /   | |  | | |  |  |  |  | |\  \  |  | \   \       
                 \___/    |_|  |_| |__|  |__|  |_| \__\ |__|  \__/        
                                                                              
                      - O R C A' S   B I G   F R I E N D -                    
                                      &                                       
                       - I N T E G R A L  F E E D E R -                       
                                                                              
 v1 FN, 2020, v2 2021, v3 2022-2024                                           
------------------------------------------------------------------------------


----------------------
SHARK INTEGRAL PACKAGE
----------------------

Number of atoms                             ...     16
Number of basis functions                   ...    169
Number of shells                            ...     85
Maximum angular momentum                    ...      2
Integral batch strategy                     ... SHARK/LIBINT Hybrid
RI-J (if used) integral strategy            ... SPLIT-RIJ (Revised 2003 algorithm where possible)
Printlevel                                  ...      1
Contraction scheme used                     ... SEGMENTED contraction
Prescreening option                         ... SCHWARTZ
   Thresh                                   ... 3.000e-11
   Tcut                                     ... 1.000e-12
   Tpresel                                  ... 1.000e-12 
Coulomb Range Separation                    ... NOT USED
Exchange Range Separation                   ... NOT USED
Multipole approximations                    ... NOT USED
Finite Nucleus Model                        ... NOT USED
CABS basis                                  ... NOT available
Auxiliary Coulomb fitting basis             ... AVAILABLE
   # of basis functions in Aux-J            ...    404
   # of shells in Aux-J                     ...    140
   Maximum angular momentum in Aux-J        ...      4
Auxiliary J/K fitting basis                 ... NOT available
Auxiliary Correlation fitting basis         ... NOT available
Auxiliary 'external' fitting basis          ... NOT available

Checking pre-screening integrals            ... done (  0.0 sec) Dimension = 85
Check shell pair data                       ... done (  0.0 sec)
Shell pair information
Shell pair cut-off parameter TPreSel        ...   1.0e-12
Total number of shell pairs                 ...      3655
Shell pairs after pre-screening             ...      3544
Total number of primitive shell pairs       ...     12882
Primitive shell pairs kept                  ...      9486
          la=0 lb=0:   1221 shell pairs
          la=1 lb=0:   1355 shell pairs
          la=1 lb=1:    398 shell pairs
          la=2 lb=0:    347 shell pairs
          la=2 lb=1:    195 shell pairs
          la=2 lb=2:     28 shell pairs

Calculating one electron integrals          ... done (  0.0 sec)
Calculating RI/J V-Matrix + Cholesky decomp.... done (  0.0 sec)
Calculating Nuclear repulsion               ... done (  0.0 sec) ENN=    257.150628299240 Eh

Diagonalization of the overlap matrix:
Smallest eigenvalue                        ... 6.346e-05
Time for diagonalization                   ...    0.003 sec
Threshold for overlap eigenvalues          ... 1.000e-07
Number of eigenvalues below threshold      ... 0
Time for construction of square roots      ...    0.004 sec
Total time needed                          ...    0.007 sec

-------------------
DFT GRID GENERATION
-------------------

General Integration Accuracy     IntAcc      ... 4.388
Radial Grid Type                 RadialGrid  ... OptM3 with GC (2021)
Angular Grid (max. ang.)         AngularGrid ... 4 (Lebedev-302)
Angular grid pruning method      GridPruning ... 4 (adaptive)
Weight generation scheme         WeightScheme... mBecke (2022)
Basis function cutoff            BFCut       ... 1.0000e-11
Integration weight cutoff        WCut        ... 1.0000e-14
Partially contracted basis set               ... off
Rotationally invariant grid construction     ... off
Angular grids for H and He will be reduced by one unit
Diffuse basis detected: some atoms will have their outermost
                        angular grid increased by 1.

Total number of grid points                  ...    68409
Total number of batches                      ...     1078
Average number of points per batch           ...       63
Average number of grid points per atom       ...     4276
Initializing property integral containers    ... done (  0.0 sec)

SHARK setup successfully completed in   0.6 seconds

Maximum memory used throughout the entire STARTUP-calculation: 30.5 MB
Occupation numbers will be reassigned to an Aufbau configuration
             **** ENERGY FILE WAS UPDATED (xtb_opt.en.tmp) ****
Finished Guess after   0.3 sec
Maximum memory used throughout the entire GUESS-calculation: 12.4 MB
----------------------------------------D-I-I-S--------------------------------------------
Iteration    Energy (Eh)           Delta-E    RMSDP     MaxDP     DIISErr   Damp  Time(sec)
-------------------------------------------------------------------------------------------
               ***  Starting incremental Fock matrix formation  ***
                              *** Initializing SOSCF ***
---------------------------------------S-O-S-C-F--------------------------------------
Iteration    Energy (Eh)           Delta-E    RMSDP     MaxDP     MaxGrad    Time(sec)
--------------------------------------------------------------------------------------
    1    -271.7029771795487250     0.00e+00  3.87e-07  8.11e-06  6.68e-07     1.3
               *** Restarting incremental Fock matrix formation ***
    2    -271.7029771794901762     5.85e-11  6.93e-07  1.25e-05  3.81e-06     1.5
                  *** Gradient check signals convergence ***

               *****************************************************
               *                     SUCCESS                       *
               *           SCF CONVERGED AFTER   2 CYCLES          *
               *****************************************************

             **** ENERGY FILE WAS UPDATED (xtb_opt.en.tmp) ****

----------------
TOTAL SCF ENERGY
----------------

Total Energy       :       -271.70297717949018 Eh           -7393.41388 eV

Components:
Nuclear Repulsion  :        257.15062829924022 Eh            6997.42434 eV
Electronic Energy  :       -528.85360547873040 Eh          -14390.83822 eV
One Electron Energy:       -877.09894180861784 Eh          -23867.07559 eV
Two Electron Energy:        348.24533632988744 Eh            9476.23736 eV

Virial components:
Potential Energy   :       -542.09400540163244 Eh          -14751.12782 eV
Kinetic Energy     :        270.39102822214227 Eh            7357.71394 eV
Virial Ratio       :          2.00485204322782

DFT components:
N(Alpha)           :       23.999990150442 electrons
N(Beta)            :       23.999990150442 electrons
N(Total)           :       47.999980300883 electrons
E(X)               :      -37.861283209121 Eh       
E(C)               :       -1.523774514314 Eh       
E(XC)              :      -39.385057723435 Eh       

---------------
SCF CONVERGENCE
---------------

  Last Energy change         ...   -5.8549e-11  Tolerance :   1.0000e-07
  Last MAX-Density change    ...    1.2502e-05  Tolerance :   1.0000e-07
  Last RMS-Density change    ...    6.9304e-07  Tolerance :   5.0000e-09
  Last DIIS Error            ...    1.3975e-05  Tolerance :   1.0000e-07
  Last Orbital Gradient      ...    3.8149e-06  Tolerance :   1.0000e-04
  Last Orbital Rotation      ...    4.1721e-06  Tolerance :   1.0000e-04


----------------
ORBITAL ENERGIES
----------------

  NO   OCC          E(Eh)            E(eV) 
   0   2.0000     -18.943616      -515.4820 
   1   2.0000     -10.078803      -274.2582 
   2   2.0000     -10.026256      -272.8283 
   3   2.0000     -10.023885      -272.7638 
   4   2.0000     -10.022362      -272.7223 
   5   2.0000     -10.022240      -272.7190 
   6   2.0000      -0.977680       -26.6040 
   7   2.0000      -0.790468       -21.5097 
   8   2.0000      -0.674891       -18.3647 
   9   2.0000      -0.664083       -18.0706 
  10   2.0000      -0.542915       -14.7735 
  11   2.0000      -0.525611       -14.3026 
  12   2.0000      -0.470981       -12.8160 
  13   2.0000      -0.449884       -12.2420 
  14   2.0000      -0.431276       -11.7356 
  15   2.0000      -0.388059       -10.5596 
  16   2.0000      -0.346366        -9.4251 
  17   2.0000      -0.333321        -9.0701 
  18   2.0000      -0.321608        -8.7514 
  19   2.0000      -0.306843        -8.3496 
  20   2.0000      -0.304086        -8.2746 
  21   2.0000      -0.290728        -7.9111 
  22   2.0000      -0.277034        -7.5385 
  23   2.0000      -0.233663        -6.3583 
  24   0.0000       0.064334         1.7506 
  25   0.0000       0.098779         2.6879 
  26   0.0000       0.106371         2.8945 
  27   0.0000       0.120667         3.2835 
  28   0.0000       0.126465         3.4413 
  29   0.0000       0.136052         3.7022 
  30   0.0000       0.139505         3.7961 
  31   0.0000       0.157577         4.2879 
  32   0.0000       0.167218         4.5502 
  33   0.0000       0.176383         4.7996 
  34   0.0000       0.184310         5.0153 
*Only the first 10 virtual orbitals were printed.
Total SCF time: 0 days 0 hours 0 min 3 sec 
Finished LeanSCF after   6.2 sec

Maximum memory used throughout the entire LEANSCF-calculation: 19.0 MB


-------------------------------------------------------------------------------
                          DFT DISPERSION CORRECTION                            
                                                                               
                                DFTD4 V3.4.0                                   
-------------------------------------------------------------------------------
-------------------------   ----------------
Dispersion correction           -0.003984516
-------------------------   ----------------

------------------   -----------------
gCP correction             0.007488444
------------------   -----------------

-------------------------   --------------------
FINAL SINGLE POINT ENERGY      -271.699473250952
-------------------------   --------------------

------------------------------------------------------------------------------
                         ORCA SCF GRADIENT CALCULATION
------------------------------------------------------------------------------

Nuc. rep. gradient        (SHARK) ... done (  0.0 sec)
HCore & Overlap gradient  (SHARK) ... done (  0.1 sec)
Split-RIJ-J gradient      (SHARK) ... done (  0.8 sec)
XC gradient                       ... done (  3.9 sec)
Dispersion correction             ... done (  0.0 sec)

-------------------
DISPERSION GRADIENT
-------------------

   1   C   :   -0.000050075    0.000024638   -0.000006419
   2   C   :   -0.000037034   -0.000029683   -0.000016006
   3   C   :    0.000003642   -0.000039115    0.000020803
   4   C   :    0.000026806    0.000000838    0.000012893
   5   C   :    0.000000156    0.000046677    0.000010974
   6   O   :    0.000085427   -0.000012558   -0.000020510
   7   H   :   -0.000029075    0.000012327    0.000002216
   8   H   :   -0.000027658    0.000017698   -0.000015257
   9   H   :   -0.000028470   -0.000022333   -0.000006939
  10   H   :   -0.000012520   -0.000014389   -0.000016214
  11   H   :   -0.000004041   -0.000021231    0.000019494
  12   H   :    0.000009258   -0.000030467    0.000005242
  13   H   :    0.000027796    0.000003434    0.000012224
  14   H   :   -0.000000694    0.000031910    0.000015200
  15   H   :    0.000007880    0.000028502   -0.000005295
  16   H   :    0.000028601    0.000003753   -0.000012405

Difference to translation invariance:
           :   -0.0000000000    0.0000000000   -0.0000000000

Difference to rotation invariance:
           :   -0.0000000000   -0.0000000000   -0.0000000000

Norm of the Dispersion gradient    ...    0.0001701741
RMS gradient                       ...    0.0000245625
MAX gradient                       ...    0.0000854268
gCP correction                   ... done

------------------
CARTESIAN GRADIENT
------------------

   1   C   :    0.000177738   -0.000485662   -0.000277580
   2   C   :    0.000059580   -0.000063536    0.000078258
   3   C   :   -0.000283283   -0.000006260   -0.000021822
   4   C   :    0.000775652   -0.000064947   -0.000570637
   5   C   :   -0.000187338   -0.000806490    0.000128701
   6   O   :   -0.000200332   -0.000854262    0.000635740
   7   H   :   -0.000491703    0.000076270    0.000689985
   8   H   :   -0.000418133    0.000310387   -0.000596172
   9   H   :   -0.000086471   -0.000006461   -0.000070733
  10   H   :    0.000142232   -0.000021120   -0.000161712
  11   H   :   -0.000013865    0.000050230    0.000036720
  12   H   :    0.000015171   -0.000033966   -0.000014288
  13   H   :    0.000099557    0.000042146    0.000274055
  14   H   :   -0.000020607    0.000476256    0.000823384
  15   H   :    0.000458306    0.000749680   -0.000701175
  16   H   :   -0.000026505    0.000637734   -0.000252723

Difference to translation invariance:
           :    0.0000000000    0.0000000000   -0.0000000000

Difference to rotation invariance:
           :    0.0003453975   -0.0000680782    0.0000448616

Norm of the Cartesian gradient     ...    0.0027182469
RMS gradient                       ...    0.0003923451
MAX gradient                       ...    0.0008542622

-------
TIMINGS
-------

Total SCF gradient time     ....        4.868 sec

Densities                   ....       0.000 sec  (  0.0%)
One electron gradient       ....       0.145 sec  (  3.0%)
RI-J Coulomb gradient       ....       0.822 sec  ( 16.9%)
XC gradient                 ....       3.864 sec  ( 79.4%)

Maximum memory used throughout the entire SCFGRAD-calculation: 32.5 MB

------------------------------------------------------------------------------
                              ORCA PROPERTY CALCULATIONS
------------------------------------------------------------------------------

GBWName                                 ... xtb_opt.gbw
Number of atoms                         ...     16
Number of basis functions               ...    169
Max core memory                         ...   1024 MB

Electric properties:
Dipole moment                           ... YES
Quadrupole moment                       ...  NO
Static polarizability (Dipole/Dipole)   ...  NO
Static polarizability (Dipole/Quad.)    ...  NO
Static polarizability (Quad./Quad.)     ...  NO
Static polarizability (Velocity)        ...  NO

Atomic electric properties:
Dipole moment                           ...  NO
Quadrupole moment                       ...  NO
Static polarizability                   ...  NO

Choice of electric origin               ... Center of mass
Position of electric origin             ...    -0.043061    -0.012576    -0.058852

General magnetic properties:
Magnetizability                         ...  NO

EPR properties:
g-Tensor (aka g-matrix)                 ...  NO
Zero-Field splitting spin-orbit         ...  NO
Zero-field splitting spin-spin          ...  NO
Hyperfine couplings                     ...  NO (   0 nuclei)
Quadrupole couplings                    ...  NO (   0 nuclei)
Contact density                         ...  NO (   0 nuclei)

NMR properties:
Chemical shifts                         ...  NO (   0 nuclei)
Spin-rotation constants                 ...  NO (   0 nuclei)
Spin-spin couplings                     ...  NO (   0 nuclei,    0 pairs)

Choice of magnetic origin               ... GIAO
Position of magnetic origin             ...     0.000000     0.000000     0.000000

Properties with geometric perturbations:
SCF Hessian                             ...  NO
IR spectrum                             ...  NO
VCD spectrum                            ...  NO
X-ray spectroscopy properties:
SCF XES/XAS/RIXS spectra                ...  NO


-------------
DIPOLE MOMENT
-------------

Method             : SCF
Type of density    : Electron Density
Multiplicity       :   1
Irrep              :   0
Energy             :  -271.7029771794901762 Eh
Relativity type    : 
Basis              : AO
                                X                 Y                 Z
Electronic contribution:      2.860735383       0.158378746      -0.914574002
Nuclear contribution   :     -2.886274022      -0.531250996       1.348587984
                        -----------------------------------------
Total Dipole Moment    :     -0.025538639      -0.372872250       0.434013982
                        -----------------------------------------
Magnitude (a.u.)       :      0.572760049
Magnitude (Debye)      :      1.455840346



--------------------
Rotational spectrum 
--------------------
 
Rotational constants in cm-1:             0.175925             0.115694             0.091665 
Rotational constants in MHz :          5274.088250          3468.417923          2748.059993 

Dipole components along the rotational axes: 
x,y,z [a.u.] :    -0.036529     0.375093     0.431306 
x,y,z [Debye]:    -0.092849     0.953410     1.096294 

 

Dipole moment calculation done in   1.0 sec 

Maximum memory used throughout the entire PROP-calculation: 10.7 MB

--------------------------------
SUGGESTED CITATIONS FOR THIS RUN
--------------------------------

Below you find a list of papers that are relevant to this ORCA run
We neither can nor want to force you to cite these papers, but we appreciate if you do
You receive ORCA, which is the product of decades of hard work by many enthusiastic individuals, for free
The only thing we kindly ask in return is that you cite our papers,
We deeply appreciate it, if you show your appreciation for ORCA by not just citing the generic ORCA reference.

Please note that relegating all ORCA citations to the supporting information does *not* help us.
SI sections are not indexed - citations you put there will not count into any citation statistics
But we need these citations in order to attract the funding resources that allow us to do what we are doing

Therefore, if you are a happy ORCA user, please consider citing a few of the papers listed below in the main body of your paper

In addition to the list printed below, the program has created the file xtb_opt.bibtex that contains the list in bibtex format
You can import this file easily into all common literature databanks and citation aid programs


List of essential papers. We consider these as the minimum necessary citations

  1. Neese,F.
     Software update: the ORCA program system, version 5.0
     WIRES Comput. Molec. Sci., 2022 12(1)e1606
     doi.org/10.1002/wcms.1606
  2. Grimme,S.; Hansen,A.; Ehlert,S.; Mewes,J.
     r2SCAN-3c: A 'Swiss army knife' composite electronic-structure method
     J. Chem. Phys., 2021 154 064103
     doi.org/10.1063/5.0040021

List of papers to cite with high priority. The work reported in these papers was absolutely
necessary for this run to complete.
Our perspective: the developers of density functionals and basis sets usually get cited in chemistry papers
Good! But without the algorithms to do something with them, the functionals or basis sets would not do anything.
Hence, in our opinion, the algorithm design and method developments papers are equally worthy of getting cited

  1. Neese,F.
     An improvement of the resolution of the identity approximation for the formation of the Coulomb matrix
     J. Comp. Chem., 2003 24(14)1740-1747
     doi.org/10.1002/jcc.10318
  2. Neese,F.
     The SHARK Integral Generation and Digestion System
     J. Comp. Chem., 2022  1-16
     doi.org/10.1002/jcc.26942
  3. Lehtola,S.; Steigemann,C.; Oliveira,M.; Marques,M.
     Recent developments in Libxc - A comprehensive library of functionals for density functional theory
     Software X, 2018 7 
     doi.org/10.1016/j.softx.2017.11.002
  4. Caldeweyher,E.; Bannwarth,C.; Grimme,S.
     Extension of the D3 dispersion coefficient model
     J. Chem. Phys., 2017 147 034112
     doi.org/10.1063/1.4993215
  5. Caldeweyher,E.; Ehlert,S.; Hansen,A.; Neugebauer,H.; Spicher,S.; Bannwarth,C.; Grimme,S.
     A generally applicable atomic-charge dependent London dispersion correction
     J. Chem. Phys., 2019 150 154122
     doi.org/10.1063/1.5090222
  6. Caldeweyher,E.; Mewes,J.; Ehlert,S.; Grimme,S.
     Extension and evaluation of the D4 London-dispersion model for periodic systems
     Phys. Chem. Chem. Phys., 2020 22(16)8499-8512
     doi.org/10.1039/D0CP00502A
  7. Wittmann,L.; Gordiy,I.; Friede,M.; Helmich-Paris,B.; Grimme,S.; Hansen,A.; Bursch,M.
     Extension of the D3 and D4 London Dispersion Corrections to the full Actinides Series
     Phys. Chem. Chem. Phys., 2024 26(32)21379-21394
     doi.org/https://doi.org/10.1039/D4CP01514B 

List of suggested additional citations. These are papers that are important in the 'surrounding' of 
of this run, or papers that preceded the highly important papers. If you like your results we are grateful for a citation.

  1. Neese,F.
     The ORCA program system
     WIRES Comput. Molec. Sci., 2012 2(1)73-78
     doi.org/10.1002/wcms.81
  2. Neese,F.
     Software update: the ORCA program system, version 4.0
     WIRES Comput. Molec. Sci., 2018 8(1)1-6
     doi.org/10.1002/wcms.1327
  3. Neese,F.; Wennmohs,F.; Becker,U.; Riplinger,C.
     The ORCA quantum chemistry program package
     J. Chem. Phys., 2020 152 Art. No. L224108
     doi.org/10.1063/5.0004608

List of optional additional citations

  1. Neese,F.
     Approximate second-order SCF convergence for spin unrestricted wavefunctions
     Chem. Phys. Lett., 2000 325(1-3)93-98
     doi.org/10.1016/s0009-2614(00)00662-x

Timings for individual modules:

Sum of individual times          ...       14.023 sec (=   0.234 min)
Startup calculation              ...        0.619 sec (=   0.010 min)   4.4 %
SCF iterations                   ...        6.480 sec (=   0.108 min)  46.2 %
Property calculations            ...        1.074 sec (=   0.018 min)   7.7 %
SCF Gradient evaluation          ...        5.851 sec (=   0.098 min)  41.7 %
                             ****ORCA TERMINATED NORMALLY****
TOTAL RUN TIME: 0 days 0 hours 0 minutes 17 seconds 496 msec
  ------------------------------------------------------------------------
          * successful ORCA run, taking over control again...

         :::::::::::::::::::::::::::::::::::::::::::::::::::::
         ::                  ORCA SUMMARY                   ::
         :::::::::::::::::::::::::::::::::::::::::::::::::::::
         :: total energy            -271.699473250952 Eh    ::
         :: gradient norm              0.002718246851 Eh/a0 ::
         :: HOMO-LUMO gap              0.000000000000 eV    ::
         :::::::::::::::::::::::::::::::::::::::::::::::::::::

      ----------------------------------------------------------- 
     |                       L-ANC optimizer                     |
      ----------------------------------------------------------- 
          low memory version by Sebastian Ehlert

          ...................................................
          :                      SETUP                      :
          :.................................................:
          :   energy convergence        0.5000000E-05 Eh    :
          :   grad. convergence         0.1000000E-02 Eh/a0 :
          :   optimization log               true           :
          :   writing optlog all                1     steps :
          :   Hessian reset                     8     steps :
          :   maximium step len.        1.0000000     a0    :
          :   LBFGS images                      8           :
          ...................................................
 * calculating model hessian...
Using Lindh-Hessian (1995)
 Shifting diagonal of input Hessian by   1.000000000000000E-002
 Lowest  eigenvalues of input Hessian
    0.000000    0.000000    0.000000    0.000000    0.000000    0.000000
    0.017444    0.020134    0.028027    0.032652    0.041053    0.051106
    0.055554    0.056599    0.057341    0.058851    0.060916    0.062745
 Highest eigenvalues
    1.179044    1.184599    1.212599    1.231299    1.263321    1.434232
 

........................................................................
.............................. CYCLE    1 ..............................
........................................................................
                         * ORCA takes the control...
  ------------------------------------------------------------------------

                                 *****************
                                 * O   R   C   A *
                                 *****************

                                            #,                                       
                                            ###                                      
                                            ####                                     
                                            #####                                    
                                            ######                                   
                                           ########,                                 
                                     ,,################,,,,,                         
                               ,,#################################,,                 
                          ,,##########################################,,             
                       ,#########################################, ''#####,          
                    ,#############################################,,   '####,        
                  ,##################################################,,,,####,       
                ,###########''''           ''''###############################       
              ,#####''   ,,,,##########,,,,          '''####'''          '####       
            ,##' ,,,,###########################,,,                        '##       
           ' ,,###''''                  '''############,,,                           
         ,,##''                                '''############,,,,        ,,,,,,###''
      ,#''                                            '''#######################'''  
     '                                                          ''''####''''         
             ,#######,   #######,   ,#######,      ##                                
            ,#'     '#,  ##    ##  ,#'     '#,    #''#        ,####,   ,####,        
            ##       ##  ##   ,#'  ##            #'  '#       #'       #'  '#        
            ##       ##  #######   ##           ,######,      #####,   #    #        
            '#,     ,#'  ##    ##  '#,     ,#' ,#      #,     #,   #   #,  ,#        
             '#######'   ##     ##  '#######'  #'      '#     '####' # '####'        



                #########################################################
                #                        -***-                          #
                #          Department of theory and spectroscopy        #
                #                                                       #
                #                      Frank Neese                      #
                #                                                       #
                #     Directorship, Architecture, Infrastructure        #
                #                    SHARK, DRIVERS                     #
                #        Core code/Algorithms in most modules           #
                #                                                       #
                #        Max Planck Institute fuer Kohlenforschung      #
                #                Kaiser Wilhelm Platz 1                 #
                #                 D-45470 Muelheim/Ruhr                 #
                #                      Germany                          #
                #                                                       #
                #                  All rights reserved                  #
                #                        -***-                          #
                #########################################################


                         Program Version 6.0.1  -  RELEASE   -


 With contributions from (in alphabetic order):
[Max-Planck-Institut fuer Kohlenforschung]                               
  Daniel Aravena         : Magnetic Suceptibility                        
  Michael Atanasov       : Ab Initio Ligand Field Theory (pilot matlab implementation)
  Alexander A. Auer      : GIAO ZORA, VPT2 properties, NMR spectrum      
  Ute Becker             : All parallelization in ORCA, NUMFREQ, NUMCALC 
  Giovanni Bistoni       : ED, misc. LED, open-shell LED, HFLD           
  Martin Brehm           : Molecular dynamics                            
  Dmytro Bykov           : pre 5.0 version of the SCF Hessian            
  Marcos Casanova-Páez   : Triplet and SCS-CIS(D). UHF-(DLPNO)-IP/EA/STEOM-CCSD. UHF-CVS-IP/STEOM-CCSD   
  Vijay G. Chilkuri      : MRCI spin determinant printing, contributions to CSF-ICE 
  Pauline Colinet        : FMM embedding                                 
  Dipayan Datta          : RHF DLPNO-CCSD density                        
  Achintya Kumar Dutta   : EOM-CC, STEOM-CC                              
  Nicolas Foglia         : Exact transition moments, OPA infrastructure, MCD improvements    
  Dmitry Ganyushin       : Spin-Orbit,Spin-Spin,Magnetic field MRCI      
  Miquel Garcia-Rates    : C-PCM and meta-GGA Hessian, CCSD/C-PCM, Gaussian charge scheme 
  Tiago L. C. Gouveia    : GS-ROHF, GS-ROCIS                             
  Yang Guo               : DLPNO-NEVPT2, F12-NEVPT2, CIM, IAO-localization        
  Andreas Hansen         : Spin unrestricted coupled pair/coupled cluster methods 
  Ingolf Harden          : AUTO-CI MPn and infrastructure                
  Benjamin Helmich-Paris : MC-RPA, TRAH-(SCF,CASSCF), AVAS, COSX integrals, SCF dyn. polar. 
  Lee Huntington         : MR-EOM, pCC                                   
  Robert Izsak           : Overlap fitted RIJCOSX, COSX-SCS-MP3, EOM     
  Riya Kayal             : Wick's Theorem for AUTO-CI, AUTO-CI UHF-CCSDT 
  Emily Kempfer          : AUTO-CI, RHF CISDT and CCSDT                  
  Christian Kollmar      : KDIIS, OOCD, Brueckner-CCSD(T), CCSD density, CASPT2, CASPT2-K, improved NEVPT2 
  Axel Koslowski         : Symmetry handling                             
  Simone Kossmann        : meta-GGA functionals, TD-DFT gradient, OOMP2, (MP2 Hessian; deprecated post 5.0) 
  Lucas Lang             : DCDCAS                                        
  Marvin Lechner         : AUTO-CI (C++ implementation), FIC-MRCC        
  Spencer Leger          : CASSCF response                               
  Dagmar Lenk            : GEPOL surface, SMD, ORCA-2-JSON               
  Dimitrios Liakos       : Extrapolation schemes; Compound Job, initial MDCI parallelization 
  Dimitrios Manganas     : Further ROCIS development; embedding schemes. LFT, Crystal Embedding 
  Dimitrios Pantazis     : SARC Basis sets                               
  Anastasios Papadopoulos: AUTO-CI, single reference methods and gradients 
  Taras Petrenko         : pre 6.0 DFT Hessian and TD-DFT gradient, (ASA, deprecated), ECA, 1-Electron XAS/XES, NRVS 
  Peter Pinski           : DLPNO-MP2, DLPNO-MP2 Gradient                 
  Christoph Reimann      : Effective Core Potentials                     
  Marius Retegan         : Local ZFS, SOC                                
  Christoph Riplinger    : Optimizer, TS searches, QM/MM, DLPNO-CCSD(T), (RO)-DLPNO pert. Triples 
  Michael Roemelt        : Original ROCIS implementation                 
  Masaaki Saitow         : Open-shell DLPNO-CCSD energy and density      
  Barbara Sandhoefer     : DKH picture change effects                    
  Kantharuban Sivalingam : CASSCF convergence/infrastructure, NEVPT2 and variants, FIC-MRCI 
  Bernardo de Souza      : ESD, SOC TD-DFT                               
  Georgi L. Stoychev     : AutoAux, RI-MP2 NMR, DLPNO-MP2 response, X2C  
  Van Anh Tran           : RI-MP2 g-tensors                              
  Willem Van den Heuvel  : Paramagnetic NMR                              
  Zikuan Wang            : NOTCH, Electric field optimization            
  Frank Wennmohs         : Technical directorship and infrastructure     
  Hang Xu                : AUTO-CI-Response properties                   
                                                                         
[FACCTs GmbH]                                                            
  Markus Bursch, Miquel Garcia-Rates, Christoph Riplinger, Bernardo de Souza, Georgi L. Stoychev 
                                                                 
  APM, Basis sets (HGBS, AHGBS, def-TZVP (Ac-Lr), def2-XVPD (La-Lu)), CI-OPT, improved COSX, DLPNO-Multilevel,           
  DOCKER, DRACO, updates on ESD, GOAT, IRC, LR-CPCM, MBIS, meta-GGA TD-DFT gradient, ML-optimized integration grids, 
  MM, NACMEs, nearIR, NEB, NEB-TS, NL-DFT gradient (VV10), 2- and 3-layer-ONIOM, interface openCOSMO-RS, QMMM,   
  Crystal-QMMM, SF, symmetry and pop. for TD-DFT, r2SCAN hybrids, SOLVATOR                                   
                                                                         
[Other institutions]                                                     
  V. Asgeirsson          : NEB                                           
  Christoph Bannwarth    : sTDA-DFT, sTD-DFT, PBEh-3c, B97-3c, D3        
  Sebastian Ehlert       : rSCAN, r2SCAN, r2SCAN-3c, D4, dhf basis sets  
  Marvin Friede          : D4 for Fr, Ra, Ac-Lr                          
  Lars Goerigk           : TD-DFT with DH, B97 family of functionals     
  Stefan Grimme          : VdW corrections, initial TS optimization, DFT functionals, gCP, sTDA/sTD-DF 
  Waldemar Hujo          : DFT-NL                                        
  H. Jonsson             : NEB                                           
  Holger Kruse           : gCP                                           
  Marcel Mueller         : wB97X-3c, vDZP basis set                      
  Hagen Neugebauer       : wr2SCAN                                       
  Tobias Risthaus        : range-separated hybrid DFT                    
  Lukas Wittmann         : regularized MP2, r2SCAN double-hybrids, wr2SCAN        
                                                                         
We gratefully acknowledge several colleagues who have allowed us to      
interface, adapt or use parts of their codes:                            
  Ed Valeev, F. Pavosevic, A. Kumar             : LibInt (2-el integral package), F12 methods 
  Garnet Chan, S. Sharma, J. Yang, R. Olivares  : DMRG                   
  Ulf Ekstrom                                   : XCFun DFT Library      
  Mihaly Kallay                                 : mrcc  (arbitrary order and MRCC methods)
  Frank Weinhold                                : gennbo (NPA and NBO analysis)           
  Simon Mueller                                 : openCOSMO-RS                            
  Christopher J. Cramer and Donald G. Truhlar   : smd solvation model                     
  S Lehtola, MJT Oliveira, MAL Marques          : LibXC Library                           
  Liviu Ungur et al                             : ANISO software                          


 Your calculation uses the libint2 library for the computation of 2-el integrals
 For citations please refer to: http://libint.valeyev.net

 Your ORCA version has been built with support for libXC version: 6.2.2
 For citations please refer to: https://libxc.gitlab.io

 This ORCA versions uses:
   CBLAS   interface :  Fast vector & matrix operations
   LAPACKE interface :  Fast linear algebra routines
   SCALAPACK package :  Parallel linear algebra routines
   Shared memory     :  Shared parallel matrices
   BLAS/LAPACK       :  OpenBLAS 0.3.27  USE64BITINT DYNAMIC_ARCH NO_AFFINITY Zen SINGLE_THREADED
        Core in use  :  Zen
   Copyright (c) 2011-2014, The OpenBLAS Project




***************************************
The coordinates will be read from file: xtb_opt.xyz
***************************************


Your calculation utilizes the geometrical counterpoise correction gCP
Please cite in your paper:
H.Kruse, S. Grimme J.Chem.Phys., 136, (2012), 154101 
   

Your calculation utilizes the atom-pairwise dispersion correction
based on EEQ partial charges (D4)


================================================================================

----- Orbital basis set information -----
Your calculation utilizes the basis: def2-mTZVPP
   Stefan Grimme, Andreas Hansen, Sebastian Ehlert, and Jan-Michael Mewes 
   J. Chem. Phys. 154, 064103 (2021). DOI: 10.1063/5.0040021

----- AuxJ basis set information -----
Your calculation utilizes the auxiliary basis: def2/J
   F. Weigend, Phys. Chem. Chem. Phys. 8, 1057 (2006).

================================================================================
                                        WARNINGS
                       Please study these warnings very carefully!
================================================================================

WARNING: Old DensityContainer found on disk!
         Will remove this file - 
         If you want to keep old densities, please start your calculation with a different basename. 



WARNING: SCAN, rSCAN, or r2SCAN functional requested.
  ===> : libXC variant has now been activated.



================================================================================
                                       INPUT FILE
================================================================================
NAME = xtb_opt.inp
|  1> ! r2scan-3c def2/J RI DEFGRID2 scfconv7 ENGRAD tightSCF miniprint
|  2> * xyzfile 0 1 xtb_opt.xyz
|  3> 
|  4>                          ****END OF INPUT****
================================================================================

                     *******************************
                     * Energy+Gradient Calculation *
                     *******************************

---------------------------------
CARTESIAN COORDINATES (ANGSTROEM)
---------------------------------
  C     -1.486876    0.645173   -0.199150
  C     -1.189287   -0.844142   -0.446461
  C     -0.086286   -1.144882    0.572464
  C      0.829762    0.079169    0.457969
  C     -0.138504    1.259334    0.265936
  O      1.643304    0.010903   -0.726733
  H     -2.235922    0.742617    0.594790
  H     -1.889637    1.143881   -1.084804
  H     -2.071667   -1.479951   -0.329577
  H     -0.796752   -0.990290   -1.458105
  H     -0.509280   -1.183117    1.585619
  H      0.444588   -2.087010    0.395577
  H      1.472479    0.208968    1.341132
  H     -0.256971    1.813001    1.202214
  H      0.285911    1.948132   -0.469374
  H      2.225243   -0.752373   -0.641789

----------------------------
CARTESIAN COORDINATES (A.U.)
----------------------------
  NO LB      ZA    FRAG     MASS         X           Y           Z
   0 C     6.0000    0    12.011   -2.809789    1.219199   -0.376340
   1 C     6.0000    0    12.011   -2.247426   -1.595196   -0.843689
   2 C     6.0000    0    12.011   -0.163057   -2.163514    1.081800
   3 C     6.0000    0    12.011    1.568022    0.149607    0.865436
   4 C     6.0000    0    12.011   -0.261734    2.379796    0.502547
   5 O     8.0000    0    15.999    3.105394    0.020604   -1.373326
   6 H     1.0000    0     1.008   -4.225280    1.403343    1.123991
   7 H     1.0000    0     1.008   -3.570897    2.161622   -2.049982
   8 H     1.0000    0     1.008   -3.914884   -2.796702   -0.622811
   9 H     1.0000    0     1.008   -1.505643   -1.871376   -2.755418
  10 H     1.0000    0     1.008   -0.962399   -2.235767    2.996386
  11 H     1.0000    0     1.008    0.840150   -3.943877    0.747532
  12 H     1.0000    0     1.008    2.782582    0.394892    2.534372
  13 H     1.0000    0     1.008   -0.485605    3.426076    2.271856
  14 H     1.0000    0     1.008    0.540294    3.681435   -0.886988
  15 H     1.0000    0     1.008    4.205099   -1.421779   -1.212805

------------------------------------------------------------------------------
                   ___                                                        
                  /   \      - P O W E R E D   B Y -                         
                 /     \                                                     
                 |  |  |   _    _      __       _____    __    __             
                 |  |  |  | |  | |    /  \     |  _  \  |  |  /  |          
                  \  \/   | |  | |   /    \    | | | |  |  | /  /          
                 / \  \   | |__| |  /  /\  \   | |_| |  |  |/  /          
                |  |  |   |  __  | /  /__\  \  |    /   |      \           
                |  |  |   | |  | | |   __   |  |    \   |  |\   \          
                \     /   | |  | | |  |  |  |  | |\  \  |  | \   \       
                 \___/    |_|  |_| |__|  |__|  |_| \__\ |__|  \__/        
                                                                              
                      - O R C A' S   B I G   F R I E N D -                    
                                      &                                       
                       - I N T E G R A L  F E E D E R -                       
                                                                              
 v1 FN, 2020, v2 2021, v3 2022-2024                                           
------------------------------------------------------------------------------


----------------------
SHARK INTEGRAL PACKAGE
----------------------

Number of atoms                             ...     16
Number of basis functions                   ...    169
Number of shells                            ...     85
Maximum angular momentum                    ...      2
Integral batch strategy                     ... SHARK/LIBINT Hybrid
RI-J (if used) integral strategy            ... SPLIT-RIJ (Revised 2003 algorithm where possible)
Printlevel                                  ...      1
Contraction scheme used                     ... SEGMENTED contraction
Prescreening option                         ... SCHWARTZ
   Thresh                                   ... 3.000e-11
   Tcut                                     ... 1.000e-12
   Tpresel                                  ... 1.000e-12 
Coulomb Range Separation                    ... NOT USED
Exchange Range Separation                   ... NOT USED
Multipole approximations                    ... NOT USED
Finite Nucleus Model                        ... NOT USED
CABS basis                                  ... NOT available
Auxiliary Coulomb fitting basis             ... AVAILABLE
   # of basis functions in Aux-J            ...    404
   # of shells in Aux-J                     ...    140
   Maximum angular momentum in Aux-J        ...      4
Auxiliary J/K fitting basis                 ... NOT available
Auxiliary Correlation fitting basis         ... NOT available
Auxiliary 'external' fitting basis          ... NOT available

Checking pre-screening integrals            ... done (  0.0 sec) Dimension = 85
Check shell pair data                       ... done (  0.0 sec)
Shell pair information
Shell pair cut-off parameter TPreSel        ...   1.0e-12
Total number of shell pairs                 ...      3655
Shell pairs after pre-screening             ...      3544
Total number of primitive shell pairs       ...     12882
Primitive shell pairs kept                  ...      9487
          la=0 lb=0:   1221 shell pairs
          la=1 lb=0:   1355 shell pairs
          la=1 lb=1:    398 shell pairs
          la=2 lb=0:    347 shell pairs
          la=2 lb=1:    195 shell pairs
          la=2 lb=2:     28 shell pairs

Calculating one electron integrals          ... done (  0.0 sec)
Calculating RI/J V-Matrix + Cholesky decomp.... done (  0.0 sec)
Calculating Nuclear repulsion               ... done (  0.0 sec) ENN=    257.192824388569 Eh

Diagonalization of the overlap matrix:
Smallest eigenvalue                        ... 6.333e-05
Time for diagonalization                   ...    0.003 sec
Threshold for overlap eigenvalues          ... 1.000e-07
Number of eigenvalues below threshold      ... 0
Time for construction of square roots      ...    0.004 sec
Total time needed                          ...    0.007 sec

-------------------
DFT GRID GENERATION
-------------------

General Integration Accuracy     IntAcc      ... 4.388
Radial Grid Type                 RadialGrid  ... OptM3 with GC (2021)
Angular Grid (max. ang.)         AngularGrid ... 4 (Lebedev-302)
Angular grid pruning method      GridPruning ... 4 (adaptive)
Weight generation scheme         WeightScheme... mBecke (2022)
Basis function cutoff            BFCut       ... 1.0000e-11
Integration weight cutoff        WCut        ... 1.0000e-14
Partially contracted basis set               ... off
Rotationally invariant grid construction     ... off
Angular grids for H and He will be reduced by one unit
Diffuse basis detected: some atoms will have their outermost
                        angular grid increased by 1.

Total number of grid points                  ...    68407
Total number of batches                      ...     1078
Average number of points per batch           ...       63
Average number of grid points per atom       ...     4275
Initializing property integral containers    ... done (  0.0 sec)

SHARK setup successfully completed in   0.6 seconds

Maximum memory used throughout the entire STARTUP-calculation: 30.5 MB
Occupation numbers will be reassigned to an Aufbau configuration
             **** ENERGY FILE WAS UPDATED (xtb_opt.en.tmp) ****
Finished Guess after   0.1 sec
Maximum memory used throughout the entire GUESS-calculation: 12.4 MB
----------------------------------------D-I-I-S--------------------------------------------
Iteration    Energy (Eh)           Delta-E    RMSDP     MaxDP     DIISErr   Damp  Time(sec)
-------------------------------------------------------------------------------------------
               ***  Starting incremental Fock matrix formation  ***
                              *** Initializing SOSCF ***
---------------------------------------S-O-S-C-F--------------------------------------
Iteration    Energy (Eh)           Delta-E    RMSDP     MaxDP     MaxGrad    Time(sec)
--------------------------------------------------------------------------------------
    1    -271.7029920902283493     0.00e+00  5.61e-05  1.18e-03  7.17e-05     1.3
               *** Restarting incremental Fock matrix formation ***
    2    -271.7029983752497628    -6.29e-06  2.18e-05  3.96e-04  5.96e-05     1.3
    3    -271.7029984497152100    -7.45e-08  9.27e-06  1.36e-04  9.00e-05     1.0
                 **** Energy Check signals convergence ****

               *****************************************************
               *                     SUCCESS                       *
               *           SCF CONVERGED AFTER   3 CYCLES          *
               *****************************************************

             **** ENERGY FILE WAS UPDATED (xtb_opt.en.tmp) ****

----------------
TOTAL SCF ENERGY
----------------

Total Energy       :       -271.70299844971521 Eh           -7393.41446 eV

Components:
Nuclear Repulsion  :        257.19282438856874 Eh            6998.57255 eV
Electronic Energy  :       -528.89582283828395 Eh          -14391.98701 eV
One Electron Energy:       -877.17593985721317 Eh          -23869.17081 eV
Two Electron Energy:        348.28011701892922 Eh            9477.18379 eV

Virial components:
Potential Energy   :       -542.10245013911231 Eh          -14751.35761 eV
Kinetic Energy     :        270.39945168939710 Eh            7357.94315 eV
Virial Ratio       :          2.00482081880039

DFT components:
N(Alpha)           :       23.999989733346 electrons
N(Beta)            :       23.999989733346 electrons
N(Total)           :       47.999979466692 electrons
E(X)               :      -37.863317092184 Eh       
E(C)               :       -1.523846557304 Eh       
E(XC)              :      -39.387163649488 Eh       

---------------
SCF CONVERGENCE
---------------

  Last Energy change         ...    7.4465e-08  Tolerance :   1.0000e-07
  Last MAX-Density change    ...    1.3554e-04  Tolerance :   1.0000e-07
  Last RMS-Density change    ...    9.2658e-06  Tolerance :   5.0000e-09
  Last DIIS Error            ...    1.1238e-03  Tolerance :   1.0000e-07
  Last Orbital Gradient      ...    9.0020e-05  Tolerance :   1.0000e-04
  Last Orbital Rotation      ...    7.0920e-05  Tolerance :   1.0000e-04


----------------
ORBITAL ENERGIES
----------------

  NO   OCC          E(Eh)            E(eV) 
   0   2.0000     -18.943233      -515.4716 
   1   2.0000     -10.078851      -274.2595 
   2   2.0000     -10.026413      -272.8326 
   3   2.0000     -10.024017      -272.7674 
   4   2.0000     -10.022622      -272.7294 
   5   2.0000     -10.022285      -272.7203 
   6   2.0000      -0.977363       -26.5954 
   7   2.0000      -0.790796       -21.5186 
   8   2.0000      -0.675351       -18.3772 
   9   2.0000      -0.664265       -18.0756 
  10   2.0000      -0.543012       -14.7761 
  11   2.0000      -0.525856       -14.3093 
  12   2.0000      -0.470891       -12.8136 
  13   2.0000      -0.450167       -12.2497 
  14   2.0000      -0.431493       -11.7415 
  15   2.0000      -0.388319       -10.5667 
  16   2.0000      -0.346495        -9.4286 
  17   2.0000      -0.333339        -9.0706 
  18   2.0000      -0.321756        -8.7554 
  19   2.0000      -0.307121        -8.3572 
  20   2.0000      -0.304418        -8.2836 
  21   2.0000      -0.290928        -7.9166 
  22   2.0000      -0.277192        -7.5428 
  23   2.0000      -0.233532        -6.3547 
  24   0.0000       0.064332         1.7506 
  25   0.0000       0.098725         2.6864 
  26   0.0000       0.106291         2.8923 
  27   0.0000       0.120691         3.2842 
  28   0.0000       0.126396         3.4394 
  29   0.0000       0.136129         3.7043 
  30   0.0000       0.139500         3.7960 
  31   0.0000       0.157564         4.2875 
  32   0.0000       0.167278         4.5519 
  33   0.0000       0.176256         4.7962 
  34   0.0000       0.184292         5.0148 
*Only the first 10 virtual orbitals were printed.
Total SCF time: 0 days 0 hours 0 min 4 sec 
Finished LeanSCF after   7.9 sec

Maximum memory used throughout the entire LEANSCF-calculation: 19.1 MB


-------------------------------------------------------------------------------
                          DFT DISPERSION CORRECTION                            
                                                                               
                                DFTD4 V3.4.0                                   
-------------------------------------------------------------------------------
-------------------------   ----------------
Dispersion correction           -0.003985045
-------------------------   ----------------

------------------   -----------------
gCP correction             0.007498833
------------------   -----------------

-------------------------   --------------------
FINAL SINGLE POINT ENERGY      -271.699484661766
-------------------------   --------------------

------------------------------------------------------------------------------
                         ORCA SCF GRADIENT CALCULATION
------------------------------------------------------------------------------

Nuc. rep. gradient        (SHARK) ... done (  0.0 sec)
HCore & Overlap gradient  (SHARK) ... done (  0.1 sec)
Split-RIJ-J gradient      (SHARK) ... done (  0.8 sec)
XC gradient                       ... done (  3.8 sec)
Dispersion correction             ... done (  0.0 sec)

-------------------
DISPERSION GRADIENT
-------------------

   1   C   :   -0.000050004    0.000024638   -0.000006428
   2   C   :   -0.000037026   -0.000029678   -0.000015980
   3   C   :    0.000003678   -0.000039162    0.000020789
   4   C   :    0.000026738    0.000000839    0.000012830
   5   C   :    0.000000130    0.000046705    0.000010966
   6   O   :    0.000085398   -0.000012594   -0.000020466
   7   H   :   -0.000029080    0.000012331    0.000002224
   8   H   :   -0.000027627    0.000017709   -0.000015264
   9   H   :   -0.000028477   -0.000022343   -0.000006920
  10   H   :   -0.000012545   -0.000014396   -0.000016218
  11   H   :   -0.000004030   -0.000021256    0.000019494
  12   H   :    0.000009273   -0.000030478    0.000005237
  13   H   :    0.000027800    0.000003443    0.000012235
  14   H   :   -0.000000719    0.000031913    0.000015208
  15   H   :    0.000007887    0.000028489   -0.000005313
  16   H   :    0.000028605    0.000003840   -0.000012395

Difference to translation invariance:
           :    0.0000000000    0.0000000000   -0.0000000000

Difference to rotation invariance:
           :    0.0000000000    0.0000000000   -0.0000000000

Norm of the Dispersion gradient    ...    0.0001701449
RMS gradient                       ...    0.0000245583
MAX gradient                       ...    0.0000853979
gCP correction                   ... done

------------------
CARTESIAN GRADIENT
------------------

   1   C   :    0.000112025   -0.000158434   -0.000097280
   2   C   :   -0.000024351    0.000015543    0.000090621
   3   C   :   -0.000102238   -0.000145340    0.000031441
   4   C   :    0.000233830    0.000001527   -0.000400840
   5   C   :    0.000007087    0.000021096   -0.000020302
   6   O   :   -0.000323350   -0.000289366    0.000368264
   7   H   :   -0.000091626   -0.000019020    0.000170855
   8   H   :   -0.000110640    0.000091338   -0.000061214
   9   H   :   -0.000009987   -0.000034140   -0.000068891
  10   H   :    0.000069923    0.000036745   -0.000021951
  11   H   :   -0.000036823    0.000035292   -0.000015159
  12   H   :   -0.000020063   -0.000036397    0.000011886
  13   H   :    0.000012339   -0.000033683    0.000047802
  14   H   :   -0.000005396    0.000098772    0.000161885
  15   H   :    0.000087644    0.000190723   -0.000120537
  16   H   :    0.000201625    0.000225345   -0.000076580

Difference to translation invariance:
           :    0.0000000000   -0.0000000000   -0.0000000000

Difference to rotation invariance:
           :    0.0003498708   -0.0000496339    0.0000541907

Norm of the Cartesian gradient     ...    0.0009508154
RMS gradient                       ...    0.0001372384
MAX gradient                       ...    0.0004008397

-------
TIMINGS
-------

Total SCF gradient time     ....        4.824 sec

Densities                   ....       0.000 sec  (  0.0%)
One electron gradient       ....       0.145 sec  (  3.0%)
RI-J Coulomb gradient       ....       0.833 sec  ( 17.3%)
XC gradient                 ....       3.809 sec  ( 78.9%)

Maximum memory used throughout the entire SCFGRAD-calculation: 32.5 MB

------------------------------------------------------------------------------
                              ORCA PROPERTY CALCULATIONS
------------------------------------------------------------------------------

GBWName                                 ... xtb_opt.gbw
Number of atoms                         ...     16
Number of basis functions               ...    169
Max core memory                         ...   1024 MB

Electric properties:
Dipole moment                           ... YES
Quadrupole moment                       ...  NO
Static polarizability (Dipole/Dipole)   ...  NO
Static polarizability (Dipole/Quad.)    ...  NO
Static polarizability (Quad./Quad.)     ...  NO
Static polarizability (Velocity)        ...  NO

Atomic electric properties:
Dipole moment                           ...  NO
Quadrupole moment                       ...  NO
Static polarizability                   ...  NO

Choice of electric origin               ... Center of mass
Position of electric origin             ...    -0.042662    -0.011651    -0.058490

General magnetic properties:
Magnetizability                         ...  NO

EPR properties:
g-Tensor (aka g-matrix)                 ...  NO
Zero-Field splitting spin-orbit         ...  NO
Zero-field splitting spin-spin          ...  NO
Hyperfine couplings                     ...  NO (   0 nuclei)
Quadrupole couplings                    ...  NO (   0 nuclei)
Contact density                         ...  NO (   0 nuclei)

NMR properties:
Chemical shifts                         ...  NO (   0 nuclei)
Spin-rotation constants                 ...  NO (   0 nuclei)
Spin-spin couplings                     ...  NO (   0 nuclei,    0 pairs)

Choice of magnetic origin               ... GIAO
Position of magnetic origin             ...     0.000000     0.000000     0.000000

Properties with geometric perturbations:
SCF Hessian                             ...  NO
IR spectrum                             ...  NO
VCD spectrum                            ...  NO
X-ray spectroscopy properties:
SCF XES/XAS/RIXS spectra                ...  NO


-------------
DIPOLE MOMENT
-------------

Method             : SCF
Type of density    : Electron Density
Multiplicity       :   1
Irrep              :   0
Energy             :  -271.7029984497152100 Eh
Relativity type    : 
Basis              : AO
                                X                 Y                 Z
Electronic contribution:      2.859958533       0.164626882      -0.911766334
Nuclear contribution   :     -2.889575316      -0.538719540       1.345561409
                        -----------------------------------------
Total Dipole Moment    :     -0.029616783      -0.374092658       0.433795075
                        -----------------------------------------
Magnitude (a.u.)       :      0.573585772
Magnitude (Debye)      :      1.457939168



--------------------
Rotational spectrum 
--------------------
 
[...]

             **** ENERGY FILE WAS UPDATED (xtb_opt.en.tmp) ****

----------------
TOTAL SCF ENERGY
----------------

Total Energy       :       -271.70301286144530 Eh           -7393.41485 eV

Components:
Nuclear Repulsion  :        257.19609869956247 Eh            6998.66165 eV
Electronic Energy  :       -528.89911156100789 Eh          -14392.07650 eV
One Electron Energy:       -877.18366063729263 Eh          -23869.38090 eV
Two Electron Energy:        348.28454907628480 Eh            9477.30440 eV

Virial components:
Potential Energy   :       -542.10672238714642 Eh          -14751.47387 eV
Kinetic Energy     :        270.40370952570106 Eh            7358.05901 eV
Virial Ratio       :          2.00480504996778

DFT components:
N(Alpha)           :       23.999987949002 electrons
N(Beta)            :       23.999987949002 electrons
N(Total)           :       47.999975898004 electrons
E(X)               :      -37.864302698643 Eh       
E(C)               :       -1.523887400811 Eh       
E(XC)              :      -39.388190099454 Eh       

---------------
SCF CONVERGENCE
---------------

  Last Energy change         ...    8.8676e-12  Tolerance :   1.0000e-07
  Last MAX-Density change    ...    2.3113e-05  Tolerance :   1.0000e-07
  Last RMS-Density change    ...    1.2682e-06  Tolerance :   5.0000e-09
  Last DIIS Error            ...    2.3649e-05  Tolerance :   1.0000e-07
  Last Orbital Gradient      ...    7.0857e-06  Tolerance :   1.0000e-04
  Last Orbital Rotation      ...    7.8511e-06  Tolerance :   1.0000e-04


----------------
ORBITAL ENERGIES
----------------

  NO   OCC          E(Eh)            E(eV) 
   0   2.0000     -18.943609      -515.4818 
   1   2.0000     -10.078612      -274.2530 
   2   2.0000     -10.026528      -272.8357 
   3   2.0000     -10.023524      -272.7540 
   4   2.0000     -10.022369      -272.7225 
   5   2.0000     -10.021879      -272.7092 
   6   2.0000      -0.977112       -26.5886 
   7   2.0000      -0.790763       -21.5177 
   8   2.0000      -0.675497       -18.3812 
   9   2.0000      -0.664313       -18.0769 
  10   2.0000      -0.543019       -14.7763 
  11   2.0000      -0.525828       -14.3085 
  12   2.0000      -0.470418       -12.8007 
  13   2.0000      -0.450297       -12.2532 
  14   2.0000      -0.431692       -11.7469 
  15   2.0000      -0.388318       -10.5667 
  16   2.0000      -0.346550        -9.4301 
  17   2.0000      -0.333402        -9.0723 
  18   2.0000      -0.321715        -8.7543 
  19   2.0000      -0.307084        -8.3562 
  20   2.0000      -0.304447        -8.2844 
  21   2.0000      -0.290927        -7.9165 
  22   2.0000      -0.277302        -7.5458 
  23   2.0000      -0.233618        -6.3571 
  24   0.0000       0.064489         1.7548 
  25   0.0000       0.098457         2.6791 
  26   0.0000       0.106021         2.8850 
  27   0.0000       0.120738         3.2855 
  28   0.0000       0.126423         3.4401 
  29   0.0000       0.136249         3.7075 
  30   0.0000       0.139495         3.7959 
  31   0.0000       0.157455         4.2846 
  32   0.0000       0.167454         4.5567 
  33   0.0000       0.175956         4.7880 
  34   0.0000       0.184309         5.0153 
*Only the first 10 virtual orbitals were printed.
Total SCF time: 0 days 0 hours 0 min 3 sec 
Finished LeanSCF after   5.9 sec

Maximum memory used throughout the entire LEANSCF-calculation: 19.0 MB


-------------------------------------------------------------------------------
                          DFT DISPERSION CORRECTION                            
                                                                               
                                DFTD4 V3.4.0                                   
-------------------------------------------------------------------------------
-------------------------   ----------------
Dispersion correction           -0.003985469
-------------------------   ----------------

------------------   -----------------
gCP correction             0.007505914
------------------   -----------------

-------------------------   --------------------
FINAL SINGLE POINT ENERGY      -271.699492416837
-------------------------   --------------------

------------------------------------------------------------------------------
                         ORCA SCF GRADIENT CALCULATION
------------------------------------------------------------------------------

Nuc. rep. gradient        (SHARK) ... done (  0.0 sec)
HCore & Overlap gradient  (SHARK) ... done (  0.1 sec)
Split-RIJ-J gradient      (SHARK) ... done (  0.8 sec)
XC gradient                       ... done (  3.8 sec)
Dispersion correction             ... done (  0.0 sec)

-------------------
DISPERSION GRADIENT
-------------------

   1   C   :   -0.000049999    0.000024671   -0.000006505
   2   C   :   -0.000037042   -0.000029714   -0.000015976
   3   C   :    0.000003812   -0.000039216    0.000020737
   4   C   :    0.000026783    0.000000866    0.000012798
   5   C   :    0.000000101    0.000046740    0.000010998
   6   O   :    0.000085261   -0.000012765   -0.000020409
   7   H   :   -0.000029122    0.000012361    0.000002191
   8   H   :   -0.000027601    0.000017704   -0.000015300
   9   H   :   -0.000028488   -0.000022349   -0.000006880
  10   H   :   -0.000012614   -0.000014450   -0.000016262
  11   H   :   -0.000003979   -0.000021304    0.000019508
  12   H   :    0.000009323   -0.000030457    0.000005214
  13   H   :    0.000027794    0.000003476    0.000012261
  14   H   :   -0.000000752    0.000031916    0.000015237
  15   H   :    0.000007899    0.000028484   -0.000005284
  16   H   :    0.000028625    0.000004038   -0.000012328

Difference to translation invariance:
           :    0.0000000000    0.0000000000    0.0000000000

Difference to rotation invariance:
           :    0.0000000000   -0.0000000000    0.0000000000

Norm of the Dispersion gradient    ...    0.0001701561
RMS gradient                       ...    0.0000245599
MAX gradient                       ...    0.0000852606
gCP correction                   ... done

------------------
CARTESIAN GRADIENT
------------------

   1   C   :    0.000033410    0.000048422    0.000070360
   2   C   :   -0.000034965    0.000040913    0.000000184
   3   C   :    0.000054390   -0.000109292   -0.000062591
   4   C   :   -0.000219881    0.000062209    0.000074256
   5   C   :    0.000028111    0.000253832    0.000017506
   6   O   :   -0.000064352    0.000130826   -0.000130760
   7   H   :    0.000104075   -0.000040237   -0.000084812
   8   H   :    0.000050759   -0.000038347    0.000119294
   9   H   :    0.000024539   -0.000014934   -0.000024170
  10   H   :   -0.000002641    0.000031413    0.000019462
  11   H   :    0.000007257    0.000020564   -0.000013133
  12   H   :   -0.000029986   -0.000020590    0.000005862
  13   H   :   -0.000025831   -0.000047872   -0.000057255
  14   H   :    0.000023748   -0.000073811   -0.000146012
  15   H   :   -0.000083322   -0.000150250    0.000104408
  16   H   :    0.000134688   -0.000092848    0.000107400

Difference to translation invariance:
           :    0.0000000000    0.0000000000    0.0000000000

Difference to rotation invariance:
           :    0.0003617811   -0.0000635211    0.0000652090

Norm of the Cartesian gradient     ...    0.0005888424
RMS gradient                       ...    0.0000849921
MAX gradient                       ...    0.0002538323

-------
TIMINGS
-------

Total SCF gradient time     ....        4.846 sec

Densities                   ....       0.000 sec  (  0.0%)
One electron gradient       ....       0.145 sec  (  3.0%)
RI-J Coulomb gradient       ....       0.829 sec  ( 17.1%)
XC gradient                 ....       3.835 sec  ( 79.1%)

Maximum memory used throughout the entire SCFGRAD-calculation: 32.5 MB

------------------------------------------------------------------------------
                              ORCA PROPERTY CALCULATIONS
------------------------------------------------------------------------------

GBWName                                 ... xtb_opt.gbw
Number of atoms                         ...     16
Number of basis functions               ...    169
Max core memory                         ...   1024 MB

Electric properties:
Dipole moment                           ... YES
Quadrupole moment                       ...  NO
Static polarizability (Dipole/Dipole)   ...  NO
Static polarizability (Dipole/Quad.)    ...  NO
Static polarizability (Quad./Quad.)     ...  NO
Static polarizability (Velocity)        ...  NO

Atomic electric properties:
Dipole moment                           ...  NO
Quadrupole moment                       ...  NO
Static polarizability                   ...  NO

Choice of electric origin               ... Center of mass
Position of electric origin             ...    -0.041251    -0.009647    -0.057281

General magnetic properties:
Magnetizability                         ...  NO

EPR properties:
g-Tensor (aka g-matrix)                 ...  NO
Zero-Field splitting spin-orbit         ...  NO
Zero-field splitting spin-spin          ...  NO
Hyperfine couplings                     ...  NO (   0 nuclei)
Quadrupole couplings                    ...  NO (   0 nuclei)
Contact density                         ...  NO (   0 nuclei)

NMR properties:
Chemical shifts                         ...  NO (   0 nuclei)
Spin-rotation constants                 ...  NO (   0 nuclei)
Spin-spin couplings                     ...  NO (   0 nuclei,    0 pairs)

Choice of magnetic origin               ... GIAO
Position of magnetic origin             ...     0.000000     0.000000     0.000000

Properties with geometric perturbations:
SCF Hessian                             ...  NO
IR spectrum                             ...  NO
VCD spectrum                            ...  NO
X-ray spectroscopy properties:
SCF XES/XAS/RIXS spectra                ...  NO


-------------
DIPOLE MOMENT
-------------

Method             : SCF
Type of density    : Electron Density
Multiplicity       :   1
Irrep              :   0
Energy             :  -271.7030128614453020 Eh
Relativity type    : 
Basis              : AO
                                X                 Y                 Z
Electronic contribution:      2.860130426       0.175200352      -0.903376970
Nuclear contribution   :     -2.901310592      -0.555121446       1.335524822
                        -----------------------------------------
Total Dipole Moment    :     -0.041180166      -0.379921094       0.432147851
                        -----------------------------------------
Magnitude (a.u.)       :      0.576877465
Magnitude (Debye)      :      1.466305986



--------------------
Rotational spectrum 
--------------------
 
Rotational constants in cm-1:             0.175882             0.115771             0.091660 
Rotational constants in MHz :          5272.812807          3470.717803          2747.899596 

Dipole components along the rotational axes: 
x,y,z [a.u.] :    -0.052458     0.382392     0.428733 
x,y,z [Debye]:    -0.133338     0.971962     1.089754 

 

Dipole moment calculation done in   0.6 sec 

Maximum memory used throughout the entire PROP-calculation: 10.7 MB

--------------------------------
SUGGESTED CITATIONS FOR THIS RUN
--------------------------------

Below you find a list of papers that are relevant to this ORCA run
We neither can nor want to force you to cite these papers, but we appreciate if you do
You receive ORCA, which is the product of decades of hard work by many enthusiastic individuals, for free
The only thing we kindly ask in return is that you cite our papers,
We deeply appreciate it, if you show your appreciation for ORCA by not just citing the generic ORCA reference.

Please note that relegating all ORCA citations to the supporting information does *not* help us.
SI sections are not indexed - citations you put there will not count into any citation statistics
But we need these citations in order to attract the funding resources that allow us to do what we are doing

Therefore, if you are a happy ORCA user, please consider citing a few of the papers listed below in the main body of your paper

In addition to the list printed below, the program has created the file xtb_opt.bibtex that contains the list in bibtex format
You can import this file easily into all common literature databanks and citation aid programs


List of essential papers. We consider these as the minimum necessary citations

  1. Neese,F.
     Software update: the ORCA program system, version 5.0
     WIRES Comput. Molec. Sci., 2022 12(1)e1606
     doi.org/10.1002/wcms.1606
  2. Grimme,S.; Hansen,A.; Ehlert,S.; Mewes,J.
     r2SCAN-3c: A 'Swiss army knife' composite electronic-structure method
     J. Chem. Phys., 2021 154 064103
     doi.org/10.1063/5.0040021

List of papers to cite with high priority. The work reported in these papers was absolutely
necessary for this run to complete.
Our perspective: the developers of density functionals and basis sets usually get cited in chemistry papers
Good! But without the algorithms to do something with them, the functionals or basis sets would not do anything.
Hence, in our opinion, the algorithm design and method developments papers are equally worthy of getting cited

  1. Neese,F.
     An improvement of the resolution of the identity approximation for the formation of the Coulomb matrix
     J. Comp. Chem., 2003 24(14)1740-1747
     doi.org/10.1002/jcc.10318
  2. Neese,F.
     The SHARK Integral Generation and Digestion System
     J. Comp. Chem., 2022  1-16
     doi.org/10.1002/jcc.26942
  3. Lehtola,S.; Steigemann,C.; Oliveira,M.; Marques,M.
     Recent developments in Libxc - A comprehensive library of functionals for density functional theory
     Software X, 2018 7 
     doi.org/10.1016/j.softx.2017.11.002
  4. Caldeweyher,E.; Bannwarth,C.; Grimme,S.
     Extension of the D3 dispersion coefficient model
     J. Chem. Phys., 2017 147 034112
     doi.org/10.1063/1.4993215
  5. Caldeweyher,E.; Ehlert,S.; Hansen,A.; Neugebauer,H.; Spicher,S.; Bannwarth,C.; Grimme,S.
     A generally applicable atomic-charge dependent London dispersion correction
     J. Chem. Phys., 2019 150 154122
     doi.org/10.1063/1.5090222
  6. Caldeweyher,E.; Mewes,J.; Ehlert,S.; Grimme,S.
     Extension and evaluation of the D4 London-dispersion model for periodic systems
     Phys. Chem. Chem. Phys., 2020 22(16)8499-8512
     doi.org/10.1039/D0CP00502A
  7. Wittmann,L.; Gordiy,I.; Friede,M.; Helmich-Paris,B.; Grimme,S.; Hansen,A.; Bursch,M.
     Extension of the D3 and D4 London Dispersion Corrections to the full Actinides Series
     Phys. Chem. Chem. Phys., 2024 26(32)21379-21394
     doi.org/https://doi.org/10.1039/D4CP01514B 

List of suggested additional citations. These are papers that are important in the 'surrounding' of 
of this run, or papers that preceded the highly important papers. If you like your results we are grateful for a citation.

  1. Neese,F.
     The ORCA program system
     WIRES Comput. Molec. Sci., 2012 2(1)73-78
     doi.org/10.1002/wcms.81
  2. Neese,F.
     Software update: the ORCA program system, version 4.0
     WIRES Comput. Molec. Sci., 2018 8(1)1-6
     doi.org/10.1002/wcms.1327
  3. Neese,F.; Wennmohs,F.; Becker,U.; Riplinger,C.
     The ORCA quantum chemistry program package
     J. Chem. Phys., 2020 152 Art. No. L224108
     doi.org/10.1063/5.0004608

List of optional additional citations

  1. Neese,F.
     Approximate second-order SCF convergence for spin unrestricted wavefunctions
     Chem. Phys. Lett., 2000 325(1-3)93-98
     doi.org/10.1016/s0009-2614(00)00662-x

Timings for individual modules:

Sum of individual times          ...       12.703 sec (=   0.212 min)
Startup calculation              ...        0.618 sec (=   0.010 min)   4.9 %
SCF iterations                   ...        5.963 sec (=   0.099 min)  46.9 %
Property calculations            ...        0.675 sec (=   0.011 min)   5.3 %
SCF Gradient evaluation          ...        5.448 sec (=   0.091 min)  42.9 %
                             ****ORCA TERMINATED NORMALLY****
TOTAL RUN TIME: 0 days 0 hours 0 minutes 16 seconds 958 msec
  ------------------------------------------------------------------------
          * successful ORCA run, taking over control again...

         :::::::::::::::::::::::::::::::::::::::::::::::::::::
         ::                  ORCA SUMMARY                   ::
         :::::::::::::::::::::::::::::::::::::::::::::::::::::
         :: total energy            -271.699492416837 Eh    ::
         :: gradient norm              0.000588842391 Eh/a0 ::
         :: HOMO-LUMO gap              0.000000000000 eV    ::
         :::::::::::::::::::::::::::::::::::::::::::::::::::::

           -------------------------------------------------
          |                Property Printout                |
           -------------------------------------------------
           -------------------------------------------------
          |                Geometry Summary                 |
           -------------------------------------------------

      molecular mass/u    :       86.1324919
   center of mass at/Å    :       -0.0218129      -0.0051045      -0.0303184
  moments of inertia/u·Å² :        0.9584341E+02   0.1456105E+03   0.1839115E+03
rotational constants/cm⁻¹ :        0.1758872E+00   0.1157721E+00   0.9166164E-01

 * 15 selected distances

     #   Z          #   Z                                           value/Å
     1   6 C        2   6 C                                       1.5388937 (max)
     2   6 C        3   6 C                                       1.5315575
     3   6 C        4   6 C                                       1.5326234
     4   6 C        5   6 C                                       1.5378746
     4   6 C        6   8 O                                       1.4399966
     1   6 C        7   1 H                                       1.0953100
     1   6 C        8   1 H                                       1.0928923
     2   6 C        9   1 H                                       1.0938118
     2   6 C       10   1 H                                       1.0948007
     3   6 C       11   1 H                                       1.0985375
     3   6 C       12   1 H                                       1.0958061
     4   6 C       13   1 H                                       1.0997691
     5   6 C       14   1 H                                       1.0935995
     5   6 C       15   1 H                                       1.0926088
     6   8 O       16   1 H                                       0.9638600 (min)

 * 4 distinct bonds (by element types)

   Z      Z             #   av. dist./Å        max./Å        min./Å
   1 H    6 C           9     1.0952373     1.0997691     1.0926088
   6 C    6 C           4     1.5352373     1.5388937     1.5315575
   1 H    8 O           1     0.9638600     0.9638600     0.9638600
   6 C    8 O           1     1.4399966     1.4399966     1.4399966


optimized geometry written to: xtbopt.coord


           -------------------------------------------------
          | TOTAL ENERGY             -271.699492416837 Eh   |
          | GRADIENT NORM               0.000588842391 Eh/α |
           -------------------------------------------------

------------------------------------------------------------------------
 * finished run on 2025/04/15 at 19:21:48.276     
------------------------------------------------------------------------
 total:
 * wall-time:     0 d,  0 h,  1 min, 30.459 sec
 *  cpu-time:     0 d,  0 h,  0 min,  3.106 sec
 * ratio c/w:     0.034 speedup
 SCF:
 * wall-time:     0 d,  0 h,  0 min, 17.623 sec
 *  cpu-time:     0 d,  0 h,  0 min,  0.762 sec
 * ratio c/w:     0.043 speedup
 ANC optimizer:
 * wall-time:     0 d,  0 h,  1 min, 12.774 sec
 *  cpu-time:     0 d,  0 h,  0 min,  2.182 sec
 * ratio c/w:     0.030 speedup

