16
 energy: -25.530116524339 gnorm: 0.022734921942 xtb: 6.7.1 (edcfbbe)
C           -2.59609457694384        0.00823317193450       -0.01251285595929
C           -1.90048520447161        1.19705102346703        0.18580669138984
C           -0.50946660959828        1.19850618083331        0.18911749945917
C            0.19488199619840        0.00571838731816        0.00200610422242
C           -0.50992024617878       -1.18715444935011       -0.17563934706838
C           -1.89795188522149       -1.18394428696222       -0.19226536073809
C            1.69115358791430       -0.07073286947209        0.01094170170810
O            2.28540609352978       -1.10110327184075        0.29075586416253
N            2.35132520494382        1.09618408750553       -0.28887069567758
H           -3.68129724837401        0.00892591408734       -0.01815694938824
H           -2.44176901116718        2.12351040096505        0.34781548566133
H            0.02103925641054        2.12611595124354        0.38044695614029
H            0.05431487148220       -2.10520967577299       -0.29734333865552
H           -2.43900855075591       -2.11274415591287       -0.34080012602503
H            1.88453544721053        1.81016874475014       -0.82184891288594
H            3.34800200829063        1.01223002523204       -0.41418629749518
16
 energy: -25.530818832155 gnorm: 0.005725902798 xtb: 6.7.1 (edcfbbe)
C           -2.58649139502217        0.00835441793100       -0.01195179867625
C           -1.89120317966945        1.19068245844624        0.18785562188990
C           -0.50642069498459        1.19284088714075        0.19157506472177
C            0.19330464569835        0.00406943529513        0.00187404986925
C           -0.51244649775488       -1.18361790546641       -0.17593136597399
C           -1.89479397761426       -1.17982543298089       -0.19053214211978
C            1.68410995102237       -0.07283903410670        0.00585047213981
O            2.28099979710388       -1.09029653354040        0.29217282668890
N            2.33956964663586        1.08833256082357       -0.29422605759528
H           -3.66761981293396        0.01153340116218       -0.01955815903167
H           -2.43003273301975        2.11524599331773        0.34226264231468
H            0.02337099365642        2.11835954148658        0.37224331233630
H            0.04728280725611       -2.09937063654053       -0.30042026990820
H           -2.43581336014084       -2.10429845781286       -0.33639914073164
H            1.87173779751848        1.81135773142503       -0.81270913142219
H            3.33911114551750        1.01522675144518       -0.40683950565116
16
 energy: -25.530937589901 gnorm: 0.003730939050 xtb: 6.7.1 (edcfbbe)
C           -2.58343247390547        0.00875524773336       -0.01172693433332
C           -1.88719290210795        1.18922499543398        0.18600281872103
C           -0.50423735100259        1.19117024190010        0.18954178429157
C            0.19353247705816        0.00280443766645        0.00003425257277
C           -0.51337490968350       -1.18304823518787       -0.17755062277326
C           -1.89442848469808       -1.17908812577108       -0.18986022999228
C            1.68239266054677       -0.07453153953795        0.00897165740123
O            2.28279928000267       -1.08686928505938        0.29881901877900
N            2.33398294987909        1.08159919540481       -0.30352759273677
H           -3.66312511676423        0.01398689501892       -0.01909955626886
H           -2.42476571205811        2.11285514560464        0.34114846191262
H            0.02566736161597        2.11462244159107        0.37143859435812
H            0.04434235318944       -2.09834149420639       -0.30339342952068
H           -2.43568696151291       -2.10185826228600       -0.33476102380342
H            1.86301672704095        1.81541349131794       -0.80384498115067
H            3.33517523566892        1.01906002840301       -0.40692579860665
16
 energy: -25.531031574266 gnorm: 0.004257444910 xtb: 6.7.1 (edcfbbe)
C           -2.58202706285547        0.00960452329927       -0.01239024344608
C           -1.88389803194047        1.18857896166303        0.18500900146311
C           -0.50161535574973        1.18900211486223        0.18971088613855
C            0.19430913927170       -0.00006072813562       -0.00072525009547
C           -0.51452914327798       -1.18425092779196       -0.17861551326959
C           -1.89537441768630       -1.17906320720858       -0.19073506852189
C            1.68226390936792       -0.07792537425971        0.00848616352610
O            2.28725933668662       -1.08360258198385        0.31117823256078
N            2.32917852916907        1.07293000317187       -0.32020015005420
H           -3.66107054816508        0.01743332306162       -0.01842762064252
H           -2.42015999554547        2.11252431143595        0.33939002781382
H            0.02900158360956        2.11121611108288        0.37195338495238
H            0.04123245728797       -2.09994752918054       -0.30599951426110
H           -2.43744868063371       -2.10074218724409       -0.33422421540988
H            1.85470277308426        1.82319708315399       -0.79279915368826
H            3.33284064064621        1.02686128209913       -0.40634454821531
16
 energy: -25.531108852763 gnorm: 0.003883678142 xtb: 6.7.1 (edcfbbe)
C           -2.58221604364370        0.01021356889763       -0.01358960537964
C           -1.88262112872588        1.18854982595258        0.18525603719416
C           -0.50005949339501        1.18743166927057        0.19151466812073
C            0.19525955954977       -0.00235248844959       -0.00032333947019
C           -0.51493849408260       -1.18556935111747       -0.18051023475248
C           -1.89643709468000       -1.17933003363491       -0.19298861797996
C            1.68361291862970       -0.07914148922855        0.01364180570604
O            2.29128400355197       -1.07953314194012        0.33082398494675
N            2.32772282628441        1.06257020947099       -0.34415872428690
H           -3.66145758589985        0.02016547933557       -0.02000805396155
H           -2.41815296070666        2.11320890757263        0.33987151729088
H            0.03082021123184        2.10908326089490        0.37726903522870
H            0.03961814971286       -2.10224844382214       -0.30861198912549
H           -2.43926001017215       -2.10058675288612       -0.33757644507616
H            1.84879077168556        1.83072604610936       -0.78281630816518
H            3.33269950392884        1.03256791160027       -0.41252731143929
16
 energy: -25.531145990172 gnorm: 0.002144861481 xtb: 6.7.1 (edcfbbe)
C           -2.58307588798552        0.01053864537103       -0.01553390118714
C           -1.88352237817684        1.18888094020725        0.18708899005851
C           -0.50029798414831        1.18691835623618        0.19549451433212
C            0.19561550668325       -0.00288740470876        0.00225560068342
C           -0.51444009403316       -1.18599369789119       -0.18067833752069
C           -1.89650330631971       -1.17901915279722       -0.19609323154284
C            1.68504267129289       -0.07881414153528        0.01626152520589
O            2.29212645549898       -1.07521016836884        0.34963180167799
N            2.32870261399705        1.05519582579963       -0.36460279578854
H           -3.66288024798356        0.02053639001144       -0.02312330900855
H           -2.41919750822913        2.11380234742809        0.34332154014305
H            0.03023720297899        2.10892458684275        0.38457166799752
H            0.04008012849049       -2.10318490886613       -0.30979050285596
H           -2.43940937182720       -2.10043436972866       -0.34377810056249
H            1.84803656531917        1.83231056902563       -0.78180533877192
H            3.33415076771169        1.03419136099971       -0.41795370400992
16
 energy: -25.531156875896 gnorm: 0.001060922991 xtb: 6.7.1 (edcfbbe)
C           -2.58340422398017        0.01050040005443       -0.01676386574517
C           -1.88481720297502        1.18900591690863        0.18944939669576
C           -0.50124002074590        1.18728691090222        0.19900591704544
C            0.19560002684946       -0.00180263989583        0.00446381536689
C           -0.51341741767993       -1.18517977755023       -0.18114735439230
C           -1.89560224508535       -1.17836393701134       -0.19847325705234
C            1.68575200028558       -0.07739133647993        0.01968795481928
O            2.29057633549888       -1.07236805724093        0.36073124724021
N            2.33022286863649        1.05077377552160       -0.37635418955721
H           -3.66350020465177        0.01949082352751       -0.02665239288119
H           -2.42104178899257        2.11374169444336        0.34649683777159
H            0.02869632600534        2.10983134398780        0.38956611683233
H            0.04162898594860       -2.10238128205266       -0.30957780640520
H           -2.43805311328837       -2.10005162501089       -0.34872489878848
H            1.84801190362653        1.83113161616295       -0.78302372179967
H            3.33525290381730        1.03153135175890       -0.42341738029951
16
 energy: -25.531159872316 gnorm: 0.000600865044 xtb: 6.7.1 (edcfbbe)
C           -2.58316356601649        0.01056973015252       -0.01781059104134
C           -1.88561570401179        1.18907103796693        0.19101009255014
C           -0.50197779622157        1.18782636675692        0.20126175600461
C            0.19542747494557       -0.00049291514811        0.00601993617587
C           -0.51252739517717       -1.18419448413840       -0.18081204630021
C           -1.89450198020385       -1.17760892708740       -0.19998739359206
C            1.68596931702373       -0.07671912281023        0.02055086727817
O            2.28885564345765       -1.06999627897494        0.36934401073673
N            2.33065331638143        1.04728485970406       -0.38453694896720
H           -3.66324981108997        0.01832706958119       -0.02938676930058
H           -2.42229827619837        2.11318493860399        0.34977938646875
H            0.02746131897166        2.11050083035943        0.39316705397566
H            0.04313553149902       -2.10089596378078       -0.30943533363014
H           -2.43642796688122       -2.09924904621351       -0.35273185799015
H            1.84694199796049        1.82945946556138       -0.78496915170276
H            3.33598302882997        1.02868761749254       -0.42619659181504
16
 energy: -25.531160595684 gnorm: 0.000312785731 xtb: 6.7.1 (edcfbbe)
C           -2.58290838356466        0.01059544891305       -0.01791297835205
C           -1.88550600976827        1.18897580469829        0.19127032818393
C           -0.50196019921667        1.18801439227939        0.20154546645881
C            0.19541870195748       -0.00013993153576        0.00616973440323
C           -0.51241407166579       -1.18386800303917       -0.18116774628262
C           -1.89428828671054       -1.17750007660076       -0.20047650061629
C            1.68585467103352       -0.07642364299202        0.02169609693895
O            2.28882276284756       -1.06979641560621        0.36938927417502
N            2.33038772834891        1.04756005696399       -0.38336667513371
H           -3.66286935924918        0.01819268021599       -0.02952411852785
H           -2.42227018441775        2.11294038796643        0.34991703219640
H            0.02744761206639        2.11059625769546        0.39324320805517
H            0.04346851636461       -2.10033603429406       -0.30950112034596
H           -2.43612510070992       -2.09907493158098       -0.35292804608675
H            1.84602084710485        1.82840058595996       -0.78600557428472
H            3.33558588884855        1.02761859898199       -0.42708196193111
16
 energy: -25.531161013494 gnorm: 0.000262049605 xtb: 6.7.1 (edcfbbe)
C           -2.58277775042258        0.01066338911059       -0.01791995621528
C           -1.88532844652661        1.18893551575119        0.19139150698838
C           -0.50180341517828        1.18800198782798        0.20183710452756
C            0.19544163975484       -0.00018638087854        0.00639710951330
C           -0.51244901596882       -1.18385097614399       -0.18128094989436
C           -1.89429193729307       -1.17750122027158       -0.20073511855861
C            1.68580674149824       -0.07639320584246        0.02212062319345
O            2.28924168013308       -1.06924234847763        0.37087054071207
N            2.32994790413447        1.04785780669055       -0.38292553544669
H           -3.66269387126081        0.01836726919158       -0.02958488324929
H           -2.42209342451685        2.11283051865943        0.35025756238319
H            0.02768077883093        2.11039215825663        0.39391754543027
H            0.04354468247454       -2.10016435365462       -0.31002189052818
H           -2.43617117892948       -2.09889463598771       -0.35370107101745
H            1.84533451878373        1.82731526664361       -0.78806961569865
H            3.33527622775573        1.02762438715055       -0.42728655328927
16
 energy: -25.531161640123 gnorm: 0.000328187463 xtb: 6.7.1 (edcfbbe)
C           -2.58264411358378        0.01080846349921       -0.01833240526210
C           -1.88519227762907        1.18888346495844        0.19202439429266
C           -0.50162602003788        1.18788327901286        0.20316229233950
C            0.19550688439863       -0.00031220623507        0.00726400792603
C           -0.51238372164514       -1.18380936379455       -0.18168673805201
C           -1.89422054654443       -1.17738137838330       -0.20177647526045
C            1.68583836734529       -0.07606684752914        0.02356198859417
O            2.28982414886726       -1.06763820679809        0.37509002770901
N            2.32945601533218        1.04794273221628       -0.38339786723026
H           -3.66257500326108        0.01862130925958       -0.03016971658614
H           -2.42201343338750        2.11271831156398        0.35124495135444
H            0.02800781533216        2.11003147594779        0.39598134382840
H            0.04375491199416       -2.10000126297280       -0.31092658013865
H           -2.43616990564751       -2.09857670671161       -0.35565834282325
H            1.84428973214402        1.82513970286590       -0.79251380043424
H            3.33481227959180        1.02751241112613       -0.42860066140667
16
 energy: -25.531162296651 gnorm: 0.000319907667 xtb: 6.7.1 (edcfbbe)
C           -2.58251107640617        0.01095985135081       -0.01877554276038
C           -1.88511084234676        1.18881789197790        0.19306746290849
C           -0.50152629608613        1.18765962140689        0.20479823781665
C            0.19557139287316       -0.00045670073864        0.00816426870378
C           -0.51221487453813       -1.18374445710172       -0.18223394214631
C           -1.89406398319193       -1.17711493054633       -0.20303674842153
C            1.68591826995867       -0.07553148058972        0.02559044377975
O            2.29035827874116       -1.06535878050297        0.38111138920474
N            2.32892122989523        1.04771525308383       -0.38476135735990
H           -3.66247188309512        0.01891792383926       -0.03136404091206
H           -2.42195804422175        2.11256480559225        0.35291446428474
H            0.02832914703758        2.10943166153044        0.39896555329355
H            0.04387475346059       -2.09992787589863       -0.31208062925970
H           -2.43606608225560       -2.09808692976289       -0.35833939331406
H            1.84333877772674        1.82222456571519       -0.79850773556766
H            3.33427636571753        1.02768475866996       -0.43024601139965
16
 energy: -25.531162755284 gnorm: 0.000187541214 xtb: 6.7.1 (edcfbbe)
C           -2.58235056065769        0.01117113427655       -0.01966514779030
C           -1.88504691976986        1.18875155308016        0.19427653754297
C           -0.50148163794808        1.18736385858956        0.20691830090132
C            0.19565088638084       -0.00057414208032        0.00933662873714
C           -0.51195748390663       -1.18360708277694       -0.18283221010474
C           -1.89382778212463       -1.17667748741241       -0.20479061641174
C            1.68605156366943       -0.07496294730982        0.02790315889303
O            2.29076095938089       -1.06284212568537        0.38809884375528
N            2.32836554032242        1.04693869691403       -0.38718947141237
H           -3.66230746745465        0.01912041339381       -0.03268923518486
H           -2.42190228971932        2.11232577826059        0.35505030320902
H            0.02863514050650        2.10880808530649        0.40202116218810
H            0.04388720651307       -2.09986404794404       -0.31315802059036
H           -2.43580796166570       -2.09749345260146       -0.36122917883998
H            1.84227335726489        1.81926140793643       -0.80461293786698
H            3.33372258247760        1.02803553607832       -0.43217169817510
16
 energy: -25.531162853357 gnorm: 0.000050769245 xtb: 6.7.1 (edcfbbe)
C           -2.58227981272643        0.01121080443675       -0.01974285795794
C           -1.88505672731185        1.18872543830558        0.19489352096282
C           -0.50151323225899        1.18731974945716        0.20767138497856
C            0.19568456432459       -0.00053096836647        0.00982740179773
C           -0.51178988958876       -1.18350281896730       -0.18293823774169
C           -1.89367936727448       -1.17649652692198       -0.20530108277862
C            1.68612481778812       -0.07468187682106        0.02894766022512
O            2.29082905317143       -1.06178026162995        0.39103115861822
N            2.32814949254056        1.04644733594717       -0.38847275999629
H           -3.66223047707232        0.01919607197102       -0.03360212703824
H           -2.42194343537348        2.11222435641339        0.35594199762783
H            0.02869880168490        2.10856246350816        0.40352328043672
H            0.04393034328295       -2.09978778614684       -0.31349933582404
H           -2.43557773095267       -2.09719361258380       -0.36279607307039
H            1.84184330295296        1.81788683154556       -0.80712530127666
H            3.33347543008254        1.02815597787821       -0.43309221011269
