 Entering Gaussian System
 *********************************************
 Gaussian 98:
 frequency output generated by the xtb code
 *********************************************
                         Standard orientation:
 --------------------------------------------------------------------
  Center     Atomic     Atomic              Coordinates (Angstroms)
  Number     Number      Type              X           Y           Z
 --------------------------------------------------------------------
    1          6             0       -1.789392    0.379493    0.492458
    2          6             0       -0.755239    0.431730   -0.627531
    3          7             0        0.510657   -0.119059   -0.107303
    4          8             0        0.684676   -1.306866   -0.225004
    5          8             0        1.268793    0.652209    0.426942
    6          1             0       -2.734611    0.780798    0.138161
    7          1             0       -1.945634   -0.647422    0.815139
    8          1             0       -1.456058    0.970893    1.342293
    9          1             0       -0.574116    1.462085   -0.936777
   10          1             0       -1.069915   -0.182902   -1.472060
 --------------------------------------------------------------------
     1 basis functions        1 primitive gaussians
     1 alpha electrons        1 beta electrons
 
 Harmonic frequencies (cm**-1), IR intensities (km*mol⁻¹),
 Raman scattering activities (A**4/amu), Raman depolarization ratios,
 reduced masses (AMU), force constants (mDyne/A) and normal coordinates:
                      1                      2                      3
                        a                      a                      a 
 Frequencies --    13.0915               218.6445               251.8245
 Red. masses --    11.2785                 1.8457                10.6274
 Frc consts  --     0.0000                 0.0000                 0.0000
 IR Inten    --     0.2139                 0.2728                 7.2847
 Raman Activ --     0.0000                 0.0000                 0.0000
 Depolar     --     0.0000                 0.0000                 0.0000
 Atom AN      X      Y      Z        X      Y      Z        X      Y      Z
   1   6     0.12   0.39   0.13     0.00   0.02   0.01    -0.56   0.19  -0.08
   2   6    -0.09  -0.28  -0.09    -0.02  -0.08  -0.02    -0.07  -0.09   0.35
   3   7    -0.03  -0.10  -0.03    -0.01  -0.03  -0.01     0.09  -0.07   0.14
   4   8     0.36  -0.02  -0.33     0.13  -0.02   0.09     0.30  -0.02  -0.18
   5   8    -0.37  -0.02   0.32    -0.10   0.10  -0.07     0.31  -0.04  -0.18
   6   1     0.03   0.11   0.04     0.16   0.54   0.17    -0.08   0.09  -0.19
   7   1     0.00   0.16   0.18    -0.42  -0.04  -0.35    -0.26   0.08   0.00
   8   1     0.11   0.21  -0.06     0.28  -0.43   0.20    -0.27   0.08  -0.00
   9   1    -0.02  -0.13  -0.18     0.01  -0.02   0.00     0.01  -0.03   0.08
  10   1    -0.08  -0.20   0.08    -0.02  -0.01  -0.01     0.01  -0.03   0.09
                      4                      5                      6
                        a                      a                      a 
 Frequencies --   471.8794               647.4517               720.7409
 Red. masses --    10.5483                13.1422                12.6615
 Frc consts  --     0.0000                 0.0000                 0.0000
 IR Inten    --     0.5202                25.3350                20.4371
 Raman Activ --     0.0000                 0.0000                 0.0000
 Depolar     --     0.0000                 0.0000                 0.0000
 Atom AN      X      Y      Z        X      Y      Z        X      Y      Z
   1   6     0.02   0.09   0.03     0.17  -0.03  -0.07     0.10   0.01  -0.13
   2   6     0.09   0.30   0.10     0.40  -0.20   0.26    -0.16   0.10  -0.17
   3   7    -0.09  -0.30  -0.10    -0.04  -0.10   0.34    -0.45  -0.08   0.65
   4   8     0.37  -0.27   0.14    -0.35  -0.10  -0.33     0.22   0.13  -0.12
   5   8    -0.42   0.08  -0.20    -0.19   0.43  -0.15     0.15  -0.13  -0.21
   6   1    -0.02  -0.06  -0.02     0.11   0.02  -0.15    -0.07  -0.04   0.18
   7   1     0.08   0.01   0.01    -0.03   0.01  -0.01     0.16  -0.03  -0.06
   8   1    -0.06   0.06   0.01    -0.03   0.01  -0.00     0.16  -0.03  -0.06
   9   1     0.21   0.14   0.30     0.15  -0.06   0.07     0.07   0.00  -0.06
  10   1    -0.06   0.36  -0.13     0.14  -0.07   0.07     0.06   0.00  -0.07
                      7                      8                      9
                        a                      a                      a 
 Frequencies --   845.7321               885.3693              1036.4924
 Red. masses --     2.4750                12.1741                 7.3878
 Frc consts  --     0.0000                 0.0000                 0.0000
 IR Inten    --     5.5954                72.4724                 0.0361
 Raman Activ --     0.0000                 0.0000                 0.0000
 Depolar     --     0.0000                 0.0000                 0.0000
 Atom AN      X      Y      Z        X      Y      Z        X      Y      Z
   1   6     0.04   0.13   0.04    -0.21   0.06   0.00     0.45  -0.06  -0.21
   2   6     0.08   0.27   0.09    -0.26   0.15  -0.22    -0.48   0.10   0.14
   3   7    -0.02  -0.05  -0.01     0.44  -0.19   0.18     0.08  -0.06   0.12
   4   8     0.06  -0.08   0.01    -0.12  -0.40  -0.13     0.01  -0.12  -0.02
   5   8    -0.09  -0.02  -0.04     0.12   0.40   0.13     0.08   0.09   0.05
   6   1    -0.05  -0.15  -0.05    -0.19  -0.04   0.30     0.26   0.05  -0.38
   7   1     0.21  -0.13  -0.38     0.12  -0.02  -0.02    -0.10   0.02  -0.05
   8   1    -0.31  -0.18   0.28     0.11  -0.03  -0.03    -0.09   0.06  -0.04
   9   1     0.11  -0.09  -0.45    -0.02   0.02  -0.08    -0.30   0.07   0.08
  10   1    -0.21  -0.25   0.34    -0.02   0.04  -0.08    -0.30   0.06   0.08
                     10                     11                     12
                        a                      a                      a 
 Frequencies --  1091.8555              1126.3032              1213.9129
 Red. masses --     7.9928                 5.0280                 3.0213
 Frc consts  --     0.0000                 0.0000                 0.0000
 IR Inten    --     7.4324                 7.5231                 1.9890
 Raman Activ --     0.0000                 0.0000                 0.0000
 Depolar     --     0.0000                 0.0000                 0.0000
 Atom AN      X      Y      Z        X      Y      Z        X      Y      Z
   1   6    -0.05  -0.14   0.47    -0.05  -0.18  -0.06     0.10   0.33   0.11
   2   6     0.16   0.13  -0.54     0.13   0.45   0.15    -0.06  -0.19  -0.06
   3   7    -0.06  -0.04   0.19    -0.01  -0.04  -0.01     0.00   0.01   0.00
   4   8     0.03  -0.06  -0.05     0.08  -0.15   0.01     0.01  -0.05   0.00
   5   8     0.06   0.06  -0.01    -0.14  -0.06  -0.08    -0.04  -0.03  -0.03
   6   1     0.16   0.04  -0.28     0.03   0.11   0.04    -0.04  -0.12  -0.04
   7   1    -0.31   0.02   0.15    -0.12   0.05   0.20     0.17  -0.04  -0.29
   8   1    -0.29   0.06   0.16     0.16   0.08  -0.16    -0.22  -0.10   0.24
   9   1    -0.04   0.05  -0.12    -0.45   0.12  -0.23    -0.47   0.10   0.23
  10   1    -0.04   0.05  -0.12     0.40  -0.27   0.18     0.49  -0.04  -0.21
                     13                     14                     15
                        a                      a                      a 
 Frequencies --  1279.8144              1370.2229              1406.5035
 Red. masses --     4.0506                13.8145                 3.5925
 Frc consts  --     0.0000                 0.0000                 0.0000
 IR Inten    --    10.6737               193.6748                22.6820
 Raman Activ --     0.0000                 0.0000                 0.0000
 Depolar     --     0.0000                 0.0000                 0.0000
 Atom AN      X      Y      Z        X      Y      Z        X      Y      Z
   1   6    -0.11   0.07  -0.11     0.08  -0.00  -0.07    -0.27  -0.00   0.27
   2   6     0.46  -0.10  -0.10    -0.03   0.02  -0.03     0.04  -0.03   0.07
   3   7    -0.08  -0.00   0.08     0.55  -0.24   0.24     0.14  -0.07   0.09
   4   8     0.02  -0.02  -0.01    -0.11   0.48   0.03    -0.03   0.12   0.00
   5   8     0.03   0.01  -0.00    -0.34  -0.28  -0.22    -0.08  -0.07  -0.06
   6   1    -0.11  -0.02   0.16    -0.06  -0.03   0.15     0.17   0.08  -0.41
   7   1     0.07   0.02   0.03    -0.13   0.05   0.08     0.33  -0.16  -0.30
   8   1     0.05  -0.06   0.00    -0.15  -0.01   0.06     0.41   0.10  -0.21
   9   1    -0.54   0.14   0.16    -0.05   0.00  -0.04    -0.13  -0.05  -0.21
  10   1    -0.56   0.09   0.15    -0.04   0.04  -0.02    -0.05   0.21  -0.12
                     16                     17                     18
                        a                      a                      a 
 Frequencies --  1425.3076              1482.7050              1485.3174
 Red. masses --     2.4582                 1.5008                 1.6315
 Frc consts  --     0.0000                 0.0000                 0.0000
 IR Inten    --     6.1048                11.5887                13.0347
 Raman Activ --     0.0000                 0.0000                 0.0000
 Depolar     --     0.0000                 0.0000                 0.0000
 Atom AN      X      Y      Z        X      Y      Z        X      Y      Z
   1   6    -0.10  -0.00   0.10     0.06   0.19   0.06    -0.14   0.09  -0.14
   2   6    -0.06   0.10  -0.26     0.01   0.04   0.01    -0.06   0.03  -0.03
   3   7     0.10  -0.04   0.03    -0.00  -0.01  -0.00     0.03  -0.02   0.02
   4   8    -0.02   0.07   0.00    -0.00   0.01   0.00    -0.01   0.02  -0.00
   5   8    -0.05  -0.04  -0.03     0.00   0.00   0.00    -0.02  -0.01  -0.01
   6   1     0.05   0.03  -0.14    -0.20  -0.65  -0.21     0.12   0.07  -0.30
   7   1     0.10  -0.06  -0.13    -0.46   0.07  -0.04     0.34   0.13   0.54
   8   1     0.14   0.06  -0.09     0.42  -0.22   0.00     0.13  -0.55   0.32
   9   1     0.18   0.16   0.58     0.01   0.00  -0.02     0.03   0.00   0.01
  10   1    -0.03  -0.51   0.36    -0.01  -0.00   0.02     0.03  -0.02  -0.00
                     19                     20                     21
                        a                      a                      a 
 Frequencies --  1707.9192              3006.5199              3013.1831
 Red. masses --    14.5076                 1.4628                 2.0167
 Frc consts  --     0.0000                 0.0000                 0.0000
 IR Inten    --   479.4830                 2.9560                 4.5709
 Raman Activ --     0.0000                 0.0000                 0.0000
 Depolar     --     0.0000                 0.0000                 0.0000
 Atom AN      X      Y      Z        X      Y      Z        X      Y      Z
   1   6     0.00   0.00   0.00    -0.01   0.01  -0.02    -0.02  -0.05  -0.02
   2   6     0.01   0.04   0.01     0.02  -0.07   0.19     0.08   0.27   0.09
   3   7    -0.22  -0.74  -0.25     0.01  -0.00   0.01     0.00   0.01   0.00
   4   8    -0.05   0.40   0.04    -0.00   0.00   0.00    -0.00  -0.00  -0.00
   5   8     0.25   0.26   0.18    -0.00  -0.00  -0.00    -0.00  -0.00  -0.00
   6   1     0.00   0.01   0.00     0.04  -0.02   0.01    -0.00  -0.01  -0.00
   7   1     0.01  -0.00  -0.00    -0.01  -0.07   0.02     0.02   0.13  -0.04
   8   1    -0.01   0.00   0.00     0.02   0.04   0.06     0.04   0.07   0.11
   9   1    -0.07   0.01  -0.02     0.11   0.67  -0.18    -0.10  -0.61   0.19
  10   1     0.06  -0.04   0.01    -0.20  -0.40  -0.50    -0.20  -0.37  -0.53
                     22                     23                     24
                        a                      a                      a 
 Frequencies --  3049.2331              3050.0649              3058.9807
 Red. masses --     1.5422                 1.9817                 1.6682
 Frc consts  --     0.0000                 0.0000                 0.0000
 IR Inten    --    10.7315                17.5108                12.2764
 Raman Activ --     0.0000                 0.0000                 0.0000
 Depolar     --     0.0000                 0.0000                 0.0000
 Atom AN      X      Y      Z        X      Y      Z        X      Y      Z
   1   6     0.05  -0.07   0.20     0.08   0.27   0.08     0.22  -0.09   0.07
   2   6     0.00  -0.01   0.03     0.02   0.06   0.02     0.01  -0.00   0.01
   3   7     0.00  -0.00   0.00     0.00   0.00   0.00    -0.00   0.00  -0.00
   4   8    -0.00   0.00   0.00     0.00  -0.00  -0.00     0.00  -0.00  -0.00
   5   8    -0.00  -0.00  -0.00    -0.00  -0.00  -0.00     0.00   0.00  -0.00
   6   1    -0.06   0.02  -0.00     0.02   0.03   0.01    -0.83   0.36  -0.32
   7   1     0.10   0.63  -0.17    -0.09  -0.65   0.22     0.02  -0.07   0.03
   8   1    -0.22  -0.41  -0.54    -0.20  -0.33  -0.50     0.04   0.02   0.06
   9   1     0.01   0.07  -0.02    -0.02  -0.13   0.04     0.00   0.02  -0.01
  10   1    -0.03  -0.05  -0.06    -0.04  -0.07  -0.10    -0.01  -0.02  -0.02
