
                                 *****************
                                 * O   R   C   A *
                                 *****************

                                            #,                                       
                                            ###                                      
                                            ####                                     
                                            #####                                    
                                            ######                                   
                                           ########,                                 
                                     ,,################,,,,,                         
                               ,,#################################,,                 
                          ,,##########################################,,             
                       ,#########################################, ''#####,          
                    ,#############################################,,   '####,        
                  ,##################################################,,,,####,       
                ,###########''''           ''''###############################       
              ,#####''   ,,,,##########,,,,          '''####'''          '####       
            ,##' ,,,,###########################,,,                        '##       
           ' ,,###''''                  '''############,,,                           
         ,,##''                                '''############,,,,        ,,,,,,###''
      ,#''                                            '''#######################'''  
     '                                                          ''''####''''         
             ,#######,   #######,   ,#######,      ##                                
            ,#'     '#,  ##    ##  ,#'     '#,    #''#        ,####,   ,####,        
            ##       ##  ##   ,#'  ##            #'  '#       #'       #'  '#        
            ##       ##  #######   ##           ,######,      #####,   #    #        
            '#,     ,#'  ##    ##  '#,     ,#' ,#      #,     #,   #   #,  ,#        
             '#######'   ##     ##  '#######'  #'      '#     '####' # '####'        



                #########################################################
                #                        -***-                          #
                #          Department of theory and spectroscopy        #
                #                                                       #
                #                      Frank Neese                      #
                #                                                       #
                #     Directorship, Architecture, Infrastructure        #
                #                    SHARK, DRIVERS                     #
                #        Core code/Algorithms in most modules           #
                #                                                       #
                #        Max Planck Institute fuer Kohlenforschung      #
                #                Kaiser Wilhelm Platz 1                 #
                #                 D-45470 Muelheim/Ruhr                 #
                #                      Germany                          #
                #                                                       #
                #                  All rights reserved                  #
                #                        -***-                          #
                #########################################################


                         Program Version 6.0.1  -  RELEASE   -


 With contributions from (in alphabetic order):
[Max-Planck-Institut fuer Kohlenforschung]                               
  Daniel Aravena         : Magnetic Suceptibility                        
  Michael Atanasov       : Ab Initio Ligand Field Theory (pilot matlab implementation)
  Alexander A. Auer      : GIAO ZORA, VPT2 properties, NMR spectrum      
  Ute Becker             : All parallelization in ORCA, NUMFREQ, NUMCALC 
  Giovanni Bistoni       : ED, misc. LED, open-shell LED, HFLD           
  Martin Brehm           : Molecular dynamics                            
  Dmytro Bykov           : pre 5.0 version of the SCF Hessian            
  Marcos Casanova-Páez   : Triplet and SCS-CIS(D). UHF-(DLPNO)-IP/EA/STEOM-CCSD. UHF-CVS-IP/STEOM-CCSD   
  Vijay G. Chilkuri      : MRCI spin determinant printing, contributions to CSF-ICE 
  Pauline Colinet        : FMM embedding                                 
  Dipayan Datta          : RHF DLPNO-CCSD density                        
  Achintya Kumar Dutta   : EOM-CC, STEOM-CC                              
  Nicolas Foglia         : Exact transition moments, OPA infrastructure, MCD improvements    
  Dmitry Ganyushin       : Spin-Orbit,Spin-Spin,Magnetic field MRCI      
  Miquel Garcia-Rates    : C-PCM and meta-GGA Hessian, CCSD/C-PCM, Gaussian charge scheme 
  Tiago L. C. Gouveia    : GS-ROHF, GS-ROCIS                             
  Yang Guo               : DLPNO-NEVPT2, F12-NEVPT2, CIM, IAO-localization        
  Andreas Hansen         : Spin unrestricted coupled pair/coupled cluster methods 
  Ingolf Harden          : AUTO-CI MPn and infrastructure                
  Benjamin Helmich-Paris : MC-RPA, TRAH-(SCF,CASSCF), AVAS, COSX integrals, SCF dyn. polar. 
  Lee Huntington         : MR-EOM, pCC                                   
  Robert Izsak           : Overlap fitted RIJCOSX, COSX-SCS-MP3, EOM     
  Riya Kayal             : Wick's Theorem for AUTO-CI, AUTO-CI UHF-CCSDT 
  Emily Kempfer          : AUTO-CI, RHF CISDT and CCSDT                  
  Christian Kollmar      : KDIIS, OOCD, Brueckner-CCSD(T), CCSD density, CASPT2, CASPT2-K, improved NEVPT2 
  Axel Koslowski         : Symmetry handling                             
  Simone Kossmann        : meta-GGA functionals, TD-DFT gradient, OOMP2, (MP2 Hessian; deprecated post 5.0) 
  Lucas Lang             : DCDCAS                                        
  Marvin Lechner         : AUTO-CI (C++ implementation), FIC-MRCC        
  Spencer Leger          : CASSCF response                               
  Dagmar Lenk            : GEPOL surface, SMD, ORCA-2-JSON               
  Dimitrios Liakos       : Extrapolation schemes; Compound Job, initial MDCI parallelization 
  Dimitrios Manganas     : Further ROCIS development; embedding schemes. LFT, Crystal Embedding 
  Dimitrios Pantazis     : SARC Basis sets                               
  Anastasios Papadopoulos: AUTO-CI, single reference methods and gradients 
  Taras Petrenko         : pre 6.0 DFT Hessian and TD-DFT gradient, (ASA, deprecated), ECA, 1-Electron XAS/XES, NRVS 
  Peter Pinski           : DLPNO-MP2, DLPNO-MP2 Gradient                 
  Christoph Reimann      : Effective Core Potentials                     
  Marius Retegan         : Local ZFS, SOC                                
  Christoph Riplinger    : Optimizer, TS searches, QM/MM, DLPNO-CCSD(T), (RO)-DLPNO pert. Triples 
  Michael Roemelt        : Original ROCIS implementation                 
  Masaaki Saitow         : Open-shell DLPNO-CCSD energy and density      
  Barbara Sandhoefer     : DKH picture change effects                    
  Kantharuban Sivalingam : CASSCF convergence/infrastructure, NEVPT2 and variants, FIC-MRCI 
  Bernardo de Souza      : ESD, SOC TD-DFT                               
  Georgi L. Stoychev     : AutoAux, RI-MP2 NMR, DLPNO-MP2 response, X2C  
  Van Anh Tran           : RI-MP2 g-tensors                              
  Willem Van den Heuvel  : Paramagnetic NMR                              
  Zikuan Wang            : NOTCH, Electric field optimization            
  Frank Wennmohs         : Technical directorship and infrastructure     
  Hang Xu                : AUTO-CI-Response properties                   
                                                                         
[FACCTs GmbH]                                                            
  Markus Bursch, Miquel Garcia-Rates, Christoph Riplinger, Bernardo de Souza, Georgi L. Stoychev 
                                                                 
  APM, Basis sets (HGBS, AHGBS, def-TZVP (Ac-Lr), def2-XVPD (La-Lu)), CI-OPT, improved COSX, DLPNO-Multilevel,           
  DOCKER, DRACO, updates on ESD, GOAT, IRC, LR-CPCM, MBIS, meta-GGA TD-DFT gradient, ML-optimized integration grids, 
  MM, NACMEs, nearIR, NEB, NEB-TS, NL-DFT gradient (VV10), 2- and 3-layer-ONIOM, interface openCOSMO-RS, QMMM,   
  Crystal-QMMM, SF, symmetry and pop. for TD-DFT, r2SCAN hybrids, SOLVATOR                                   
                                                                         
[Other institutions]                                                     
  V. Asgeirsson          : NEB                                           
  Christoph Bannwarth    : sTDA-DFT, sTD-DFT, PBEh-3c, B97-3c, D3        
  Sebastian Ehlert       : rSCAN, r2SCAN, r2SCAN-3c, D4, dhf basis sets  
  Marvin Friede          : D4 for Fr, Ra, Ac-Lr                          
  Lars Goerigk           : TD-DFT with DH, B97 family of functionals     
  Stefan Grimme          : VdW corrections, initial TS optimization, DFT functionals, gCP, sTDA/sTD-DF 
  Waldemar Hujo          : DFT-NL                                        
  H. Jonsson             : NEB                                           
  Holger Kruse           : gCP                                           
  Marcel Mueller         : wB97X-3c, vDZP basis set                      
  Hagen Neugebauer       : wr2SCAN                                       
  Tobias Risthaus        : range-separated hybrid DFT                    
  Lukas Wittmann         : regularized MP2, r2SCAN double-hybrids, wr2SCAN        
                                                                         
We gratefully acknowledge several colleagues who have allowed us to      
interface, adapt or use parts of their codes:                            
  Ed Valeev, F. Pavosevic, A. Kumar             : LibInt (2-el integral package), F12 methods 
  Garnet Chan, S. Sharma, J. Yang, R. Olivares  : DMRG                   
  Ulf Ekstrom                                   : XCFun DFT Library      
  Mihaly Kallay                                 : mrcc  (arbitrary order and MRCC methods)
  Frank Weinhold                                : gennbo (NPA and NBO analysis)           
  Simon Mueller                                 : openCOSMO-RS                            
  Christopher J. Cramer and Donald G. Truhlar   : smd solvation model                     
  S Lehtola, MJT Oliveira, MAL Marques          : LibXC Library                           
  Liviu Ungur et al                             : ANISO software                          


 Your calculation uses the libint2 library for the computation of 2-el integrals
 For citations please refer to: http://libint.valeyev.net

 Your ORCA version has been built with support for libXC version: 6.2.2
 For citations please refer to: https://libxc.gitlab.io

 This ORCA versions uses:
   CBLAS   interface :  Fast vector & matrix operations
   LAPACKE interface :  Fast linear algebra routines
   SCALAPACK package :  Parallel linear algebra routines
   Shared memory     :  Shared parallel matrices
   BLAS/LAPACK       :  OpenBLAS 0.3.27  USE64BITINT DYNAMIC_ARCH NO_AFFINITY Zen SINGLE_THREADED
        Core in use  :  Zen
   Copyright (c) 2011-2014, The OpenBLAS Project


Your calculation utilizes the geometrical counterpoise correction gCP
Please cite in your paper:
H.Kruse, S. Grimme J.Chem.Phys., 136, (2012), 154101 
   

Your calculation utilizes the atom-pairwise dispersion correction
based on EEQ partial charges (D4)


================================================================================

----- Orbital basis set information -----
Your calculation utilizes the basis: def2-SV(P)
   F. Weigend and R. Ahlrichs, Phys. Chem. Chem. Phys. 7, 3297 (2005).

----- AuxJ basis set information -----
Your calculation utilizes the auxiliary basis: def2/J
   F. Weigend, Phys. Chem. Chem. Phys. 8, 1057 (2006).

================================================================================
                                        WARNINGS
                       Please study these warnings very carefully!
================================================================================


================================================================================
                                       INPUT FILE
================================================================================
NAME = sp.inp
|  1> ! pbe def2-sv(p) def2/J RI DEFGRID1 loosescf d4 GCP(DFT/SV(P)) printgap
|  2> %output
|  3>     printlevel normal
|  4> end
|  5> * xyz 0 1
|  6> C 1.5481161573 -1.16488865 1.3598343906
|  7> C 2.9150209874 -1.3195765114 1.479852301
|  8> C 3.76931522 -0.5418014878 0.7122709754
|  9> C 3.2516705888 0.3963126278 -0.1796204358
| 10> C 1.8703672345 0.547378675 -0.2886828985
| 11> C 1.0069546615 -0.2325417897 0.4807076478
| 12> C -0.4567369603 -0.0709503294 0.3647353022
| 13> C -1.0523497993 1.1454360696 0.6741926657
| 14> C -2.4234891205 1.3094201884 0.5726082056
| 15> C -3.2298162735 0.2514995089 0.153090713
| 16> C -2.6410589069 -0.97243119 -0.1629625779
| 17> C -1.2603298091 -1.1313657945 -0.0550675624
| 18> Cl -0.552268924 -2.6375965 -0.4831592973
| 19> Cl -3.6198691906 -2.278043896 -0.6865702337
| 20> Cl -4.9265433312 0.447141831 0.0230650615
| 21> Cl -3.1339858104 2.8206984343 0.9649874628
| 22> Cl 1.2359001654 1.6826345358 -1.4148491535
| 23> Cl 4.3033920345 1.3559454189 -1.1379435154
| 24> Cl 5.4689624867 -0.7343119521 0.8571266075
| 25> H 0.8842651932 -1.7659213624 1.9604064994
| 26> H 3.328620737 -2.0419417365 2.1645960388
| 27> H -0.4418205728 1.9703468093 1.0041953259
| 28> *
| 29> 
| 30>                          ****END OF INPUT****
================================================================================

                       ****************************
                       * Single Point Calculation *
                       ****************************

---------------------------------
CARTESIAN COORDINATES (ANGSTROEM)
---------------------------------
  C      1.548116   -1.164889    1.359834
  C      2.915021   -1.319577    1.479852
  C      3.769315   -0.541801    0.712271
  C      3.251671    0.396313   -0.179620
  C      1.870367    0.547379   -0.288683
  C      1.006955   -0.232542    0.480708
  C     -0.456737   -0.070950    0.364735
  C     -1.052350    1.145436    0.674193
  C     -2.423489    1.309420    0.572608
  C     -3.229816    0.251500    0.153091
  C     -2.641059   -0.972431   -0.162963
  C     -1.260330   -1.131366   -0.055068
  Cl    -0.552269   -2.637596   -0.483159
  Cl    -3.619869   -2.278044   -0.686570
  Cl    -4.926543    0.447142    0.023065
  Cl    -3.133986    2.820698    0.964987
  Cl     1.235900    1.682635   -1.414849
  Cl     4.303392    1.355945   -1.137944
  Cl     5.468962   -0.734312    0.857127
  H      0.884265   -1.765921    1.960406
  H      3.328621   -2.041942    2.164596
  H     -0.441821    1.970347    1.004195

----------------------------
CARTESIAN COORDINATES (A.U.)
----------------------------
  NO LB      ZA    FRAG     MASS         X           Y           Z
   0 C     6.0000    0    12.011    2.925516   -2.201321    2.569715
   1 C     6.0000    0    12.011    5.508591   -2.493638    2.796516
   2 C     6.0000    0    12.011    7.122973   -1.023856    1.345997
   3 C     6.0000    0    12.011    6.144767    0.748922   -0.339433
   4 C     6.0000    0    12.011    3.534482    1.034396   -0.545532
   5 C     6.0000    0    12.011    1.902869   -0.439440    0.908406
   6 C     6.0000    0    12.011   -0.863108   -0.134077    0.689250
   7 C     6.0000    0    12.011   -1.988653    2.164560    1.274039
   8 C     6.0000    0    12.011   -4.579731    2.474446    1.082073
   9 C     6.0000    0    12.011   -6.103468    0.475265    0.289300
  10 C     6.0000    0    12.011   -4.990878   -1.837629   -0.307955
  11 C     6.0000    0    12.011   -2.381678   -2.137972   -0.104063
  12 Cl   17.0000    0    35.453   -1.043637   -4.984335   -0.913039
  13 Cl   17.0000    0    35.453   -6.840561   -4.304879   -1.297430
  14 Cl   17.0000    0    35.453   -9.309818    0.844976    0.043587
  15 Cl   17.0000    0    35.453   -5.922375    5.330348    1.823562
  16 Cl   17.0000    0    35.453    2.335513    3.179718   -2.673677
  17 Cl   17.0000    0    35.453    8.132232    2.562365   -2.150402
  18 Cl   17.0000    0    35.453   10.334841   -1.387648    1.619735
  19 H     1.0000    0     1.008    1.671019   -3.337108    3.704631
  20 H     1.0000    0     1.008    6.290182   -3.858711    4.090494
  21 H     1.0000    0     1.008   -0.834920    3.723416    1.897654

--------------------------------
INTERNAL COORDINATES (ANGSTROEM)
--------------------------------
 C      0   0   0     0.000000000000     0.00000000     0.00000000
 C      1   0   0     1.380855331971     0.00000000     0.00000000
 C      2   1   0     1.387059376739   119.91847551     0.00000000
 C      3   2   1     1.394089074439   120.17731764     0.03581358
 C      4   3   2     1.393812945839   119.40468914     0.20780181
 C      1   2   3     1.391039274195   121.00530579   359.73169527
 C      6   1   2     1.477144051443   120.55940198   180.28270922
 C      7   6   1     1.389285566569   120.20574274   118.67189254
 C      8   7   6     1.384641914682   120.78967594   180.14390212
 C      9   8   7     1.394759681227   120.31222788   359.84842611
 C     10   9   8     1.394464511963   119.32903890     0.00000000
 C     11  10   9     1.394028114634   120.04689044     0.17229367
 Cl    12  11  10     1.718529513476   119.25723965   181.35084568
 Cl    11  10   9     1.713726666291   119.78761006   180.28094688
 Cl    10   9   8     1.712911351056   120.58719500   180.07561541
 Cl     9   8   7     1.715438417539   119.84753499   179.83084943
 Cl     5   4   3     1.720350186780   119.22464057   181.29194231
 Cl     4   3   2     1.716215667681   120.39534528   180.31553792
 Cl     3   2   1     1.716637487712   120.01504662   180.12597943
 H      1   2   3     1.078251029111   119.90739084   180.32390130
 H      2   1   3     1.077845191927   120.67352022   180.11196721
 H      8   7   6     1.078019211620   119.69366216   359.70674161

---------------------------
INTERNAL COORDINATES (A.U.)
---------------------------
 C      0   0   0     0.000000000000     0.00000000     0.00000000
 C      1   0   0     2.609438407990     0.00000000     0.00000000
 C      2   1   0     2.621162353524   119.91847551     0.00000000
 C      3   2   1     2.634446556982   120.17731764     0.03581358
 C      4   3   2     2.633924749549   119.40468914     0.20780181
 C      1   2   3     2.628683269758   121.00530579   359.73169527
 C      6   1   2     2.791397717578   120.55940198   180.28270922
 C      7   6   1     2.625369242626   120.20574274   118.67189254
 C      8   7   6     2.616594012297   120.78967594   180.14390212
 C      9   8   7     2.635713820154   120.31222788   359.84842611
 C     10   9   8     2.635156031082   119.32903890     0.00000000
 C     11  10   9     2.634331359644   120.04689044     0.17229367
 Cl    12  11  10     3.247550133531   119.25723965   181.35084568
 Cl    11  10   9     3.238474067688   119.78761006   180.28094688
 Cl    10   9   8     3.236933345181   120.58719500   180.07561541
 Cl     9   8   7     3.241708808757   119.84753499   179.83084943
 Cl     5   4   3     3.250990707454   119.22464057   181.29194231
 Cl     4   3   2     3.243177598662   120.39534528   180.31553792
 Cl     3   2   1     3.243974722998   120.01504662   180.12597943
 H      1   2   3     2.037599148639   119.90739084   180.32390130
 H      2   1   3     2.036832227505   120.67352022   180.11196721
 H      8   7   6     2.037161077068   119.69366216   359.70674161

---------------------
BASIS SET INFORMATION
---------------------
There are 3 groups of distinct atoms

 Group   1 Type C   : 7s4p1d contracted to 3s2p1d pattern {511/31/1}
 Group   2 Type Cl  : 10s7p1d contracted to 4s3p1d pattern {5311/511/1}
 Group   3 Type H   : 4s contracted to 2s pattern {31}

Atom   0C    basis set group =>   1
Atom   1C    basis set group =>   1
Atom   2C    basis set group =>   1
Atom   3C    basis set group =>   1
Atom   4C    basis set group =>   1
Atom   5C    basis set group =>   1
Atom   6C    basis set group =>   1
Atom   7C    basis set group =>   1
Atom   8C    basis set group =>   1
Atom   9C    basis set group =>   1
Atom  10C    basis set group =>   1
Atom  11C    basis set group =>   1
Atom  12Cl   basis set group =>   2
Atom  13Cl   basis set group =>   2
Atom  14Cl   basis set group =>   2
Atom  15Cl   basis set group =>   2
Atom  16Cl   basis set group =>   2
Atom  17Cl   basis set group =>   2
Atom  18Cl   basis set group =>   2
Atom  19H    basis set group =>   3
Atom  20H    basis set group =>   3
Atom  21H    basis set group =>   3
---------------------------------
AUXILIARY/J BASIS SET INFORMATION
---------------------------------
There are 3 groups of distinct atoms

 Group   1 Type C   : 12s5p4d2f1g contracted to 6s4p3d1f1g pattern {711111/2111/211/2/1}
 Group   2 Type Cl  : 14s5p5d2f1g contracted to 8s4p3d1f1g pattern {71111111/2111/311/2/1}
 Group   3 Type H   : 5s2p1d contracted to 3s1p1d pattern {311/2/1}

Atom   0C    basis set group =>   1
Atom   1C    basis set group =>   1
Atom   2C    basis set group =>   1
Atom   3C    basis set group =>   1
Atom   4C    basis set group =>   1
Atom   5C    basis set group =>   1
Atom   6C    basis set group =>   1
Atom   7C    basis set group =>   1
Atom   8C    basis set group =>   1
Atom   9C    basis set group =>   1
Atom  10C    basis set group =>   1
Atom  11C    basis set group =>   1
Atom  12Cl   basis set group =>   2
Atom  13Cl   basis set group =>   2
Atom  14Cl   basis set group =>   2
Atom  15Cl   basis set group =>   2
Atom  16Cl   basis set group =>   2
Atom  17Cl   basis set group =>   2
Atom  18Cl   basis set group =>   2
Atom  19H    basis set group =>   3
Atom  20H    basis set group =>   3
Atom  21H    basis set group =>   3
------------------------------------------------------------------------------
                             ORCA STARTUP CALCULATIONS
                           -- RI-GTO INTEGRALS CHOSEN --
------------------------------------------------------------------------------
------------------------------------------------------------------------------
                   ___                                                        
                  /   \      - P O W E R E D   B Y -                         
                 /     \                                                     
                 |  |  |   _    _      __       _____    __    __             
                 |  |  |  | |  | |    /  \     |  _  \  |  |  /  |          
                  \  \/   | |  | |   /    \    | | | |  |  | /  /          
                 / \  \   | |__| |  /  /\  \   | |_| |  |  |/  /          
                |  |  |   |  __  | /  /__\  \  |    /   |      \           
                |  |  |   | |  | | |   __   |  |    \   |  |\   \          
                \     /   | |  | | |  |  |  |  | |\  \  |  | \   \       
                 \___/    |_|  |_| |__|  |__|  |_| \__\ |__|  \__/        
                                                                              
                      - O R C A' S   B I G   F R I E N D -                    
                                      &                                       
                       - I N T E G R A L  F E E D E R -                       
                                                                              
 v1 FN, 2020, v2 2021, v3 2022-2024                                           
------------------------------------------------------------------------------


----------------------
SHARK INTEGRAL PACKAGE
----------------------

Number of atoms                             ...     22
Number of basis functions                   ...    300
Number of shells                            ...    134
Maximum angular momentum                    ...      2
Integral batch strategy                     ... SHARK/LIBINT Hybrid
RI-J (if used) integral strategy            ... SPLIT-RIJ (Revised 2003 algorithm where possible)
Printlevel                                  ...      1
Contraction scheme used                     ... SEGMENTED contraction
Prescreening option                         ... SCHWARTZ
   Thresh                                   ... 1.000e-09
   Tcut                                     ... 1.000e-10
   Tpresel                                  ... 1.000e-10 
Coulomb Range Separation                    ... NOT USED
Exchange Range Separation                   ... NOT USED
Multipole approximations                    ... NOT USED
Finite Nucleus Model                        ... NOT USED
CABS basis                                  ... NOT available
Auxiliary Coulomb fitting basis             ... AVAILABLE
   # of basis functions in Aux-J            ...    978
   # of shells in Aux-J                     ...    314
   Maximum angular momentum in Aux-J        ...      4
Auxiliary J/K fitting basis                 ... NOT available
Auxiliary Correlation fitting basis         ... NOT available
Auxiliary 'external' fitting basis          ... NOT available

Checking pre-screening integrals            ... done (  0.0 sec) Dimension = 134
Check shell pair data                       ... done (  0.0 sec)
Shell pair information
Shell pair cut-off parameter TPreSel        ...   1.0e-10
Total number of shell pairs                 ...      9045
Shell pairs after pre-screening             ...      6307
Total number of primitive shell pairs       ...     40229
Primitive shell pairs kept                  ...     16743
          la=0 lb=0:   1664 shell pairs
          la=1 lb=0:   2257 shell pairs
          la=1 lb=1:    788 shell pairs
          la=2 lb=0:    876 shell pairs
          la=2 lb=1:    598 shell pairs
          la=2 lb=2:    124 shell pairs

Calculating one electron integrals          ... done (  0.0 sec)
Calculating RI/J V-Matrix + Cholesky decomp.... done (  0.0 sec)
Calculating Nuclear repulsion               ... done (  0.0 sec) ENN=   2346.421041587639 Eh

Diagonalization of the overlap matrix:
Smallest eigenvalue                        ... 1.495e-04
Time for diagonalization                   ...    0.008 sec
Threshold for overlap eigenvalues          ... 1.000e-07
Number of eigenvalues below threshold      ... 0
Time for construction of square roots      ...    0.006 sec
Total time needed                          ...    0.016 sec

-------------------
DFT GRID GENERATION
-------------------

General Integration Accuracy     IntAcc      ... 4.159
Radial Grid Type                 RadialGrid  ... OptM3 with GC (2021)
Angular Grid (max. ang.)         AngularGrid ... 3 (Lebedev-194)
Angular grid pruning method      GridPruning ... 4 (adaptive)
Weight generation scheme         WeightScheme... mBecke (2022)
Basis function cutoff            BFCut       ... 1.0000e-10
Integration weight cutoff        WCut        ... 1.0000e-14
Partially contracted basis set               ... off
Rotationally invariant grid construction     ... off
Angular grids for H and He will be reduced by one unit

Total number of grid points                  ...    72527
Total number of batches                      ...     1142
Average number of points per batch           ...       63
Average number of grid points per atom       ...     3297
Initializing property integral containers    ... done (  0.0 sec)

SHARK setup successfully completed in   0.8 seconds

Maximum memory used throughout the entire STARTUP-calculation: 39.1 MB
-------------------------------------------------------------------------------
                                 ORCA GUESS
                   Start orbitals & Density for SCF / CASSCF
-------------------------------------------------------------------------------

------------
SCF SETTINGS
------------
Hamiltonian:
 Density Functional     Method          .... DFT(GTOs)
 Exchange Functional    Exchange        .... PBE
   PBE kappa parameter   XKappa         ....  0.804000
   PBE mue parameter    XMuePBE         ....  0.219520
 Correlation Functional Correlation     .... PBE
   PBE beta parameter  CBetaPBE         ....  0.066725
 LDA part of GGA corr.  LDAOpt          .... PW91-LDA
 Gradients option       PostSCFGGA      .... off
   NL short-range parameter             ....  6.400000
 RI-approximation to the Coulomb term is turned on
   Number of AuxJ basis functions       .... 978


General Settings:
 Integral files         IntName         .... sp
 Hartree-Fock type      HFTyp           .... RHF
 Total Charge           Charge          ....    0
 Multiplicity           Mult            ....    1
 Number of Electrons    NEL             ....  194
 Basis Dimension        Dim             ....  300
 Nuclear Repulsion      ENuc            ....   2346.4210415876 Eh

Convergence Acceleration:
 AO-DIIS                CNVDIIS         .... on
   Start iteration      DIISMaxIt       ....    12
   Startup error        DIISStart       ....  0.200000
   # of expansion vecs  DIISMaxEq       ....     5
   Bias factor          DIISBfac        ....   1.050
   Max. coefficient     DIISMaxC        ....  10.000
 MO-DIIS                CNVKDIIS        .... off
 Trust-Rad. Augm. Hess. CNVTRAH         .... auto
   Auto Start mean grad. ratio tolernc. ....  1.125000
   Auto Start start iteration           ....    50
   Auto Start num. interpolation iter.  ....    10
   Max. Number of Micro iterations      ....    24
   Max. Number of Macro iterations      .... Maxiter - #DIIS iter
   Number of Davidson start vectors     ....     2
   Converg. threshold    (grad. norm)   ....   1.000e-04
   Grad. Scal. Fac. for Micro threshold ....   0.100
   Minimum threshold for Micro iter.    ....   1.000e-02
   NR start threshold (gradient norm)   ....   1.000e-04
   Initial trust radius                 ....   0.400
   Minimum AH scaling param. (alpha)    ....   1.000
   Maximum AH scaling param. (alpha)    .... 1000.000
   Quad. conv. algorithm                .... NR
   White noise on init. David. guess    .... on
   Maximum white noise                  ....   0.010
   Pseudo random numbers                .... off
   Inactive MOs                         .... canonical
   Orbital update algorithm             .... Taylor
   Preconditioner                       .... Diag
   Full preconditioner red. dimension   ....   250
 SOSCF                  CNVSOSCF        .... on
   Start iteration      SOSCFMaxIt      ....   150
   Startup grad/error   SOSCFStart      ....  0.003300
   Hessian update       SOSCFHessUp     .... L-BFGS
 Level Shifting         CNVShift        .... on
   Level shift para.    LevelShift      ....    0.2500
   Turn off err/grad.   ShiftErr        ....    0.0010
 Zerner damping         CNVZerner       .... off
 Static damping         CNVDamp         .... on
   Fraction old density DampFac         ....    0.7000
   Max. Damping (<1)    DampMax         ....    0.9800
   Min. Damping (>=0)   DampMin         ....    0.0000
   Turn off err/grad.   DampErr         ....    0.1000

SCF Procedure:
 Maximum # iterations   MaxIter         ....   125
 SCF integral mode      SCFMode         .... Direct
   Integral package                     .... SHARK and LIBINT hybrid scheme
 Reset frequency        DirectResetFreq ....    20
 Integral Threshold     Thresh          ....  1.000e-09 Eh
 Primitive CutOff       TCut            ....  1.000e-10 Eh

Convergence Tolerance:
 Convergence Check Mode ConvCheckMode   .... Total+1el-Energy
 Convergence forced     ConvForced      .... 0
 Energy Change          TolE            ....  1.000e-05 Eh
 1-El. energy change                    ....  1.000e-02 Eh
 Orbital Gradient       TolG            ....  1.000e-04
 Orbital Rotation angle TolX            ....  1.000e-04
 DIIS Error             TolErr          ....  5.000e-04

------------------------------
INITIAL GUESS: MODEL POTENTIAL
------------------------------
Loading Hartree-Fock densities                     ... done
Calculating cut-offs                               ... done
Initializing the effective Hamiltonian             ... done
Setting up the integral package (SHARK)            ... done
Starting the Coulomb interaction                   ... done (   0.4 sec)
Making the grid                                    ... done (   0.3 sec)
Mapping shells                                     ... done
Starting the XC term evaluation                    ... done (   0.3 sec)
  promolecular density results
     # of electrons  =    193.992123519
     EX              =   -254.113879798
     EC              =     -7.278494188
     EX+EC           =   -261.392373986
Transforming the Hamiltonian                       ... done (   0.0 sec)
Diagonalizing the Hamiltonian                      ... done (   0.0 sec)
Back transforming the eigenvectors                 ... done (   0.0 sec)
Now organizing SCF variables                       ... done
                      ------------------
                      INITIAL GUESS DONE (   1.0 sec)
                      ------------------
             **** ENERGY FILE WAS UPDATED (sp.en.tmp) ****
Finished Guess after   1.1 sec
Maximum memory used throughout the entire GUESS-calculation: 30.6 MB

-------------------------------------------------------------------------------------------
                                      ORCA LEAN-SCF
                              memory conserving SCF solver
-------------------------------------------------------------------------------------------

----------------------------------------D-I-I-S--------------------------------------------
Iteration    Energy (Eh)           Delta-E    RMSDP     MaxDP     DIISErr   Damp  Time(sec)
-------------------------------------------------------------------------------------------
               ***  Starting incremental Fock matrix formation  ***
    1    -3677.0960855226453532     0.00e+00  1.98e-03  6.09e-02  1.08e-01  0.700   1.4
    2    -3677.1776454655896487    -8.16e-02  1.29e-03  3.53e-02  4.94e-02  0.700   1.3
                               ***Turning on AO-DIIS***
    3    -3677.2019607082233961    -2.43e-02  5.98e-04  1.48e-02  1.27e-02  0.700   1.2
    4    -3677.2170724875518317    -1.51e-02  1.39e-03  3.96e-02  8.16e-03  0.000   1.2
    5    -3677.2536752057771992    -3.66e-02  2.47e-04  6.32e-03  3.40e-03  0.000   1.2
                              *** Initializing SOSCF ***
---------------------------------------S-O-S-C-F--------------------------------------
Iteration    Energy (Eh)           Delta-E    RMSDP     MaxDP     MaxGrad    Time(sec)
--------------------------------------------------------------------------------------
    6    -3677.2541175717165061    -4.42e-04  1.04e-04  3.90e-03  1.35e-03     1.2
               *** Restarting incremental Fock matrix formation ***
    7    -3677.2541644420412013    -4.69e-05  1.06e-04  2.31e-03  3.57e-04     1.4
    8    -3677.2541483624922876     1.61e-05  6.05e-05  1.99e-03  5.97e-04     1.1
    9    -3677.2541752972178983    -2.69e-05  4.26e-05  1.21e-03  1.52e-04     1.1
   10    -3677.2541737322394511     1.56e-06  2.03e-05  5.55e-04  2.45e-04     1.1
                 **** Energy Check signals convergence ****

               *****************************************************
               *                     SUCCESS                       *
               *           SCF CONVERGED AFTER  10 CYCLES          *
               *****************************************************

             **** ENERGY FILE WAS UPDATED (sp.en.tmp) ****

----------------
TOTAL SCF ENERGY
----------------

Total Energy       :      -3677.25417373223945 Eh         -100063.17318 eV

Components:
Nuclear Repulsion  :       2346.42104158763914 Eh           63849.36258 eV
Electronic Energy  :      -6023.67521531987859 Eh         -163912.53576 eV
One Electron Energy:      -9741.93466320841071 Eh         -265091.51918 eV
Two Electron Energy:       3718.25944788853212 Eh          101178.98342 eV

Virial components:
Potential Energy   :      -7344.49626254441318 Eh         -199853.90368 eV
Kinetic Energy     :       3667.24208881217328 Eh           99790.73050 eV
Virial Ratio       :          2.00273014016462

DFT components:
N(Alpha)           :       96.999910654135 electrons
N(Beta)            :       96.999910654135 electrons
N(Total)           :      193.999821308269 electrons
E(X)               :     -254.888442908258 Eh       
E(C)               :       -7.275536697770 Eh       
E(XC)              :     -262.163979606028 Eh       

---------------
SCF CONVERGENCE
---------------

  Last Energy change         ...   -1.5650e-06  Tolerance :   1.0000e-05
  Last MAX-Density change    ...    5.5516e-04  Tolerance :   1.0000e-03
  Last RMS-Density change    ...    2.0306e-05  Tolerance :   1.0000e-04
  Last DIIS Error            ...    1.3538e-03  Tolerance :   5.0000e-04
  Last Orbital Gradient      ...    2.4539e-04  Tolerance :   1.0000e-04
  Last Orbital Rotation      ...    5.5318e-04  Tolerance :   1.0000e-04


----------------
ORBITAL ENERGIES
----------------

  NO   OCC          E(Eh)            E(eV) 
   0   2.0000    -100.662039     -2739.1533 
   1   2.0000    -100.661965     -2739.1513 
   2   2.0000    -100.661653     -2739.1428 
   3   2.0000    -100.661477     -2739.1380 
   4   2.0000    -100.659388     -2739.0812 
   5   2.0000    -100.659177     -2739.0755 
   6   2.0000    -100.658946     -2739.0692 
   7   2.0000      -9.983151      -271.6554 
   8   2.0000      -9.982915      -271.6489 
   9   2.0000      -9.979413      -271.5536 
  10   2.0000      -9.978984      -271.5420 
  11   2.0000      -9.978014      -271.5156 
  12   2.0000      -9.977430      -271.4997 
  13   2.0000      -9.976425      -271.4723 
  14   2.0000      -9.943558      -270.5780 
  15   2.0000      -9.939776      -270.4751 
  16   2.0000      -9.928292      -270.1626 
  17   2.0000      -9.923459      -270.0311 
  18   2.0000      -9.923193      -270.0238 
  19   2.0000      -9.197870      -250.2868 
  20   2.0000      -9.197627      -250.2801 
  21   2.0000      -9.197507      -250.2769 
  22   2.0000      -9.197069      -250.2650 
  23   2.0000      -9.195108      -250.2116 
  24   2.0000      -9.195073      -250.2107 
  25   2.0000      -9.194799      -250.2032 
  26   2.0000      -7.029595      -191.2850 
  27   2.0000      -7.029232      -191.2751 
  28   2.0000      -7.029177      -191.2736 
  29   2.0000      -7.028629      -191.2587 
  30   2.0000      -7.026836      -191.2099 
  31   2.0000      -7.026649      -191.2048 
  32   2.0000      -7.026350      -191.1967 
  33   2.0000      -7.017945      -190.9680 
  34   2.0000      -7.017699      -190.9613 
  35   2.0000      -7.017580      -190.9581 
  36   2.0000      -7.017186      -190.9473 
  37   2.0000      -7.016743      -190.9353 
  38   2.0000      -7.016652      -190.9328 
  39   2.0000      -7.016418      -190.9264 
  40   2.0000      -7.016095      -190.9177 
  41   2.0000      -7.015168      -190.8924 
  42   2.0000      -7.015077      -190.8900 
  43   2.0000      -7.014884      -190.8847 
  44   2.0000      -7.014183      -190.8656 
  45   2.0000      -7.014040      -190.8617 
  46   2.0000      -7.013884      -190.8575 
  47   2.0000      -0.875242       -23.8165 
  48   2.0000      -0.864795       -23.5323 
  49   2.0000      -0.835236       -22.7279 
  50   2.0000      -0.823552       -22.4100 
  51   2.0000      -0.813351       -22.1324 
  52   2.0000      -0.794622       -21.6228 
  53   2.0000      -0.786470       -21.4009 
  54   2.0000      -0.772881       -21.0312 
  55   2.0000      -0.763403       -20.7733 
  56   2.0000      -0.706736       -19.2313 
  57   2.0000      -0.677842       -18.4450 
  58   2.0000      -0.670191       -18.2368 
  59   2.0000      -0.654443       -17.8083 
  60   2.0000      -0.586165       -15.9504 
  61   2.0000      -0.573375       -15.6023 
  62   2.0000      -0.563945       -15.3457 
  63   2.0000      -0.544804       -14.8249 
  64   2.0000      -0.494986       -13.4692 
  65   2.0000      -0.490531       -13.3480 
  66   2.0000      -0.472793       -12.8654 
  67   2.0000      -0.468958       -12.7610 
  68   2.0000      -0.441625       -12.0172 
  69   2.0000      -0.431698       -11.7471 
  70   2.0000      -0.420777       -11.4499 
  71   2.0000      -0.418373       -11.3845 
  72   2.0000      -0.415880       -11.3167 
  73   2.0000      -0.411635       -11.2012 
  74   2.0000      -0.403114       -10.9693 
  75   2.0000      -0.390216       -10.6183 
  76   2.0000      -0.374736       -10.1971 
  77   2.0000      -0.363248        -9.8845 
  78   2.0000      -0.360146        -9.8001 
  79   2.0000      -0.354179        -9.6377 
  80   2.0000      -0.341295        -9.2871 
  81   2.0000      -0.333135        -9.0651 
  82   2.0000      -0.319058        -8.6820 
  83   2.0000      -0.305557        -8.3146 
  84   2.0000      -0.304032        -8.2731 
  85   2.0000      -0.301543        -8.2054 
  86   2.0000      -0.300854        -8.1867 
  87   2.0000      -0.296005        -8.0547 
  88   2.0000      -0.291157        -7.9228 
  89   2.0000      -0.283744        -7.7211 
  90   2.0000      -0.281430        -7.6581 
  91   2.0000      -0.265251        -7.2178 
  92   2.0000      -0.263600        -7.1729 
  93   2.0000      -0.241920        -6.5830 
  94   2.0000      -0.233392        -6.3509 
  95   2.0000      -0.228781        -6.2255 
  96   2.0000      -0.222136        -6.0446 
  97   0.0000      -0.085405        -2.3240 
  98   0.0000      -0.070708        -1.9241 
  99   0.0000      -0.065407        -1.7798 
 100   0.0000      -0.054060        -1.4710 
 101   0.0000      -0.050177        -1.3654 
 102   0.0000      -0.036672        -0.9979 
 103   0.0000       0.007927         0.2157 
 104   0.0000       0.027914         0.7596 
 105   0.0000       0.042329         1.1518 
 106   0.0000       0.051539         1.4025 
 107   0.0000       0.056302         1.5320 
*Only the first 10 virtual orbitals were printed.

                    ********************************
                    * MULLIKEN POPULATION ANALYSIS *
                    ********************************

-----------------------
MULLIKEN ATOMIC CHARGES
-----------------------
   0 C :   -0.094166
   1 C :   -0.097472
   2 C :    0.073676
   3 C :    0.033169
   4 C :    0.018977
   5 C :    0.041295
   6 C :    0.035919
   7 C :   -0.160470
   8 C :    0.080942
   9 C :    0.029915
  10 C :    0.002721
  11 C :    0.037785
  12 Cl:   -0.022588
  13 Cl:   -0.014659
  14 Cl:   -0.012806
  15 Cl:   -0.039037
  16 Cl:   -0.022895
  17 Cl:   -0.020112
  18 Cl:   -0.040174
  19 H :    0.061085
  20 H :    0.057884
  21 H :    0.051012
Sum of atomic charges:    0.0000000

--------------------------------
MULLIKEN REDUCED ORBITAL CHARGES
--------------------------------
  0 C s       :     3.294770  s :     3.294770
      pz      :     0.949140  p :     2.763914
      px      :     0.868085
      py      :     0.946689
      dz2     :     0.004783  d :     0.035481
      dxz     :     0.009250
      dyz     :     0.005032
      dx2y2   :     0.006963
      dxy     :     0.009453

  1 C s       :     3.321234  s :     3.321234
      pz      :     0.933886  p :     2.741780
      px      :     0.886489
      py      :     0.921404
      dz2     :     0.004072  d :     0.034458
      dxz     :     0.009021
      dyz     :     0.005323
      dx2y2   :     0.006735
      dxy     :     0.009307

  2 C s       :     2.953183  s :     2.953183
      pz      :     1.050210  p :     2.920888
      px      :     0.821428
      py      :     1.049250
      dz2     :     0.009359  d :     0.052253
      dxz     :     0.011629
      dyz     :     0.005526
      dx2y2   :     0.013844
      dxy     :     0.011894

  3 C s       :     3.012131  s :     3.012131
      pz      :     0.984434  p :     2.904141
      px      :     0.939773
      py      :     0.979934
      dz2     :     0.008940  d :     0.050560
      dxz     :     0.011528
      dyz     :     0.007009
      dx2y2   :     0.011221
      dxy     :     0.011861

  4 C s       :     3.011758  s :     3.011758
      pz      :     0.958587  p :     2.917986
      px      :     1.011518
      py      :     0.947881
      dz2     :     0.009156  d :     0.051279
      dxz     :     0.011320
      dyz     :     0.008011
      dx2y2   :     0.011367
      dxy     :     0.011424

  5 C s       :     3.037190  s :     3.037190
      pz      :     0.964799  p :     2.880631
      px      :     0.965357
      py      :     0.950476
      dz2     :     0.007408  d :     0.040884
      dxz     :     0.010034
      dyz     :     0.005097
      dx2y2   :     0.009057
      dxy     :     0.009289

  6 C s       :     3.046208  s :     3.046208
      pz      :     1.001380  p :     2.876418
      px      :     0.978301
      py      :     0.896737
      dz2     :     0.004206  d :     0.041455
      dxz     :     0.006786
      dyz     :     0.006749
      dx2y2   :     0.011060
      dxy     :     0.012654

  7 C s       :     3.444097  s :     3.444097
      pz      :     0.972474  p :     2.681718
      px      :     0.896511
      py      :     0.812734
      dz2     :     0.003158  d :     0.034655
      dxz     :     0.006328
      dyz     :     0.004831
      dx2y2   :     0.009606
      dxy     :     0.010732

  8 C s       :     2.943995  s :     2.943995
      pz      :     1.061894  p :     2.922774
      px      :     0.926575
      py      :     0.934305
      dz2     :     0.004906  d :     0.052289
      dxz     :     0.008311
      dyz     :     0.008192
      dx2y2   :     0.014414
      dxy     :     0.016465

  9 C s       :     3.003322  s :     3.003322
      pz      :     1.068692  p :     2.915560
      px      :     0.833753
      py      :     1.013115
      dz2     :     0.005061  d :     0.051203
      dxz     :     0.009351
      dyz     :     0.006802
      dx2y2   :     0.015178
      dxy     :     0.014812

 10 C s       :     3.030433  s :     3.030433
      pz      :     1.056978  p :     2.915672
      px      :     0.943944
      py      :     0.914749
      dz2     :     0.004989  d :     0.051174
      dxz     :     0.008649
      dyz     :     0.008229
      dx2y2   :     0.014514
      dxy     :     0.014792

 11 C s       :     2.991453  s :     2.991453
      pz      :     1.062837  p :     2.919478
      px      :     1.010139
      py      :     0.846502
      dz2     :     0.004956  d :     0.051284
      dxz     :     0.008257
      dyz     :     0.008069
      dx2y2   :     0.015631
      dxy     :     0.014370

 12 Cls       :     5.939667  s :     5.939667
      pz      :     3.848193  p :    11.042006
      px      :     3.803519
      py      :     3.390293
      dz2     :     0.005573  d :     0.040915
      dxz     :     0.002981
      dyz     :     0.009871
      dx2y2   :     0.010857
      dxy     :     0.011633

 13 Cls       :     5.944528  s :     5.944528
      pz      :     3.827139  p :    11.028969
      px      :     3.695220
      py      :     3.506610
      dz2     :     0.005768  d :     0.041162
      dxz     :     0.005272
      dyz     :     0.008322
      dx2y2   :     0.006767
      dxy     :     0.015034

 14 Cls       :     5.943685  s :     5.943685
      pz      :     3.888280  p :    11.027981
      px      :     3.222733
      py      :     3.916967
      dz2     :     0.005459  d :     0.041141
      dxz     :     0.010660
      dyz     :     0.000661
      dx2y2   :     0.017100
      dxy     :     0.007260

 15 Cls       :     5.942754  s :     5.942754
      pz      :     3.862891  p :    11.056196
      px      :     3.822606
      py      :     3.370699
      dz2     :     0.005373  d :     0.040087
      dxz     :     0.002933
      dyz     :     0.009492
      dx2y2   :     0.010509
      dxy     :     0.011781

 16 Cls       :     5.939669  s :     5.939669
      pz      :     3.606984  p :    11.042581
      px      :     3.827386
      py      :     3.608211
      dz2     :     0.008358  d :     0.040645
      dxz     :     0.006624
      dyz     :     0.012707
      dx2y2   :     0.006466
      dxy     :     0.006490

 17 Cls       :     5.943727  s :     5.943727
      pz      :     3.687368  p :    11.035554
      px      :     3.660854
      py      :     3.687332
      dz2     :     0.006489  d :     0.040830
      dxz     :     0.010625
      dyz     :     0.007721
      dx2y2   :     0.005255
      dxy     :     0.010740

 18 Cls       :     5.942543  s :     5.942543
      pz      :     3.911097  p :    11.057790
      px      :     3.238152
      py      :     3.908541
      dz2     :     0.005459  d :     0.039841
      dxz     :     0.008940
      dyz     :     0.000708
      dx2y2   :     0.015723
      dxy     :     0.009011

 19 H s       :     0.938915  s :     0.938915

 20 H s       :     0.942116  s :     0.942116

 21 H s       :     0.948988  s :     0.948988


------------------------
MULLIKEN OVERLAP CHARGES
------------------------
B(  0-C ,  1-C ) :   0.2088 B(  0-C ,  2-C ) :   0.3895 B(  0-C ,  3-C ) :  -0.3525 
B(  0-C ,  4-C ) :   0.2752 B(  0-C ,  5-C ) :   0.3286 B(  0-C ,  6-C ) :  -0.2242 
B(  0-C , 19-H ) :   0.9055 B(  0-C , 20-H ) :  -0.1724 B(  1-C ,  2-C ) :   0.3843 
B(  1-C ,  3-C ) :   0.2784 B(  1-C ,  4-C ) :  -0.3447 B(  1-C ,  5-C ) :   0.3902 
B(  1-C , 18-Cl) :  -0.1259 B(  1-C , 19-H ) :  -0.1742 B(  1-C , 20-H ) :   0.8888 
B(  2-C ,  3-C ) :   0.4111 B(  2-C ,  4-C ) :   0.2194 B(  2-C ,  5-C ) :  -0.4040 
B(  2-C , 17-Cl) :  -0.1578 B(  2-C , 18-Cl) :   0.5484 B(  2-C , 20-H ) :  -0.1863 
B(  3-C ,  4-C ) :   0.5742 B(  3-C ,  5-C ) :   0.2179 B(  3-C , 16-Cl) :  -0.1693 
B(  3-C , 17-Cl) :   0.6315 B(  3-C , 18-Cl) :  -0.1548 B(  4-C ,  5-C ) :   0.4449 
B(  4-C ,  6-C ) :  -0.1943 B(  4-C , 16-Cl) :   0.6415 B(  4-C , 17-Cl) :  -0.1488 
B(  5-C ,  6-C ) :   0.5686 B(  5-C ,  7-C ) :  -0.2411 B(  5-C , 11-C ) :  -0.2060 
B(  5-C , 16-Cl) :  -0.1704 B(  5-C , 19-H ) :  -0.1738 B(  5-C , 21-H ) :  -0.0516 
B(  6-C ,  7-C ) :   0.3445 B(  6-C ,  8-C ) :   0.4173 B(  6-C ,  9-C ) :  -0.3510 
B(  6-C , 10-C ) :   0.2199 B(  6-C , 11-C ) :   0.4268 B(  6-C , 12-Cl) :  -0.1632 
B(  6-C , 19-H ) :  -0.0512 B(  6-C , 21-H ) :  -0.1649 B(  7-C ,  8-C ) :   0.4367 
B(  7-C ,  9-C ) :   0.2473 B(  7-C , 10-C ) :  -0.2784 B(  7-C , 11-C ) :   0.2435 
B(  7-C , 15-Cl) :  -0.1243 B(  7-C , 21-H ) :   0.8897 B(  8-C ,  9-C ) :   0.3729 
B(  8-C , 10-C ) :   0.2309 B(  8-C , 11-C ) :  -0.3905 B(  8-C , 14-Cl) :  -0.1516 
B(  8-C , 15-Cl) :   0.5369 B(  8-C , 21-H ) :  -0.1806 B(  9-C , 10-C ) :   0.6871 
B(  9-C , 11-C ) :   0.1795 B(  9-C , 13-Cl) :  -0.1563 B(  9-C , 14-Cl) :   0.6275 
B(  9-C , 15-Cl) :  -0.1476 B( 10-C , 11-C ) :   0.5685 B( 10-C , 12-Cl) :  -0.1619 
B( 10-C , 13-Cl) :   0.6357 B( 10-C , 14-Cl) :  -0.1444 B( 11-C , 12-Cl) :   0.6341 
B( 11-C , 13-Cl) :  -0.1567 


                     *******************************
                     * LOEWDIN POPULATION ANALYSIS *
                     *******************************

----------------------
LOEWDIN ATOMIC CHARGES
----------------------
   0 C :   -0.103824
   1 C :   -0.135470
   2 C :   -0.154010
   3 C :   -0.180930
   4 C :   -0.144518
   5 C :   -0.056260
   6 C :   -0.050864
   7 C :   -0.124079
   8 C :   -0.160297
   9 C :   -0.179886
  10 C :   -0.178168
  11 C :   -0.152308
  12 Cl:    0.179257
  13 Cl:    0.175975
  14 Cl:    0.177419
  15 Cl:    0.164482
  16 Cl:    0.178901
  17 Cl:    0.169899
  18 Cl:    0.163074
  19 H :    0.134609
  20 H :    0.138096
  21 H :    0.138903

-------------------------------
LOEWDIN REDUCED ORBITAL CHARGES
-------------------------------
  0 C s       :     2.890275  s :     2.890275
      pz      :     1.022967  p :     3.120554
      px      :     1.074717
      py      :     1.022870
      dz2     :     0.011667  d :     0.092996
      dxz     :     0.023843
      dyz     :     0.012239
      dx2y2   :     0.020387
      dxy     :     0.024860

  1 C s       :     2.894518  s :     2.894518
      pz      :     1.031557  p :     3.149402
      px      :     1.084084
      py      :     1.033761
      dz2     :     0.010088  d :     0.091551
      dxz     :     0.024109
      dyz     :     0.011774
      dx2y2   :     0.020556
      dxy     :     0.025023

  2 C s       :     2.902370  s :     2.902370
      pz      :     1.082439  p :     3.124087
      px      :     0.958108
      py      :     1.083540
      dz2     :     0.020623  d :     0.127554
      dxz     :     0.028447
      dyz     :     0.016622
      dx2y2   :     0.032468
      dxy     :     0.029393

  3 C s       :     2.906501  s :     2.906501
      pz      :     1.046036  p :     3.148593
      px      :     1.055292
      py      :     1.047265
      dz2     :     0.020417  d :     0.125836
      dxz     :     0.027918
      dyz     :     0.018035
      dx2y2   :     0.030452
      dxy     :     0.029013

  4 C s       :     2.901656  s :     2.901656
      pz      :     1.019118  p :     3.116223
      px      :     1.078698
      py      :     1.018407
      dz2     :     0.021065  d :     0.126638
      dxz     :     0.027943
      dyz     :     0.018568
      dx2y2   :     0.030693
      dxy     :     0.028368

  5 C s       :     2.844454  s :     2.844454
      pz      :     1.037681  p :     3.100852
      px      :     1.022856
      py      :     1.040315
      dz2     :     0.017580  d :     0.110955
      dxz     :     0.026139
      dyz     :     0.016070
      dx2y2   :     0.025995
      dxy     :     0.025171

  6 C s       :     2.844018  s :     2.844018
      pz      :     0.997668  p :     3.094782
      px      :     1.027064
      py      :     1.070050
      dz2     :     0.010139  d :     0.112064
      dxz     :     0.014591
      dyz     :     0.016266
      dx2y2   :     0.034344
      dxy     :     0.036724

  7 C s       :     2.896904  s :     2.896904
      pz      :     1.010211  p :     3.135547
      px      :     1.061066
      py      :     1.064271
      dz2     :     0.007368  d :     0.091628
      dxz     :     0.014044
      dyz     :     0.010140
      dx2y2   :     0.028835
      dxy     :     0.031241

  8 C s       :     2.899786  s :     2.899786
      pz      :     1.055244  p :     3.132388
      px      :     1.098344
      py      :     0.978800
      dz2     :     0.011053  d :     0.128123
      dxz     :     0.018386
      dyz     :     0.017513
      dx2y2   :     0.037891
      dxy     :     0.043280

  9 C s       :     2.905711  s :     2.905711
      pz      :     1.077922  p :     3.147336
      px      :     0.961243
      py      :     1.108172
      dz2     :     0.011301  d :     0.126838
      dxz     :     0.019608
      dyz     :     0.016023
      dx2y2   :     0.038887
      dxy     :     0.041019

 10 C s       :     2.905508  s :     2.905508
      pz      :     1.063268  p :     3.145641
      px      :     1.063795
      py      :     1.018578
      dz2     :     0.011431  d :     0.127020
      dxz     :     0.018733
      dyz     :     0.017612
      dx2y2   :     0.040441
      dxy     :     0.038803

 11 C s       :     2.900070  s :     2.900070
      pz      :     1.066770  p :     3.125514
      px      :     1.071172
      py      :     0.987572
      dz2     :     0.011338  d :     0.126724
      dxz     :     0.018218
      dyz     :     0.017218
      dx2y2   :     0.042227
      dxy     :     0.037722

 12 Cls       :     5.749644  s :     5.749644
      pz      :     3.834824  p :    11.023276
      px      :     3.791167
      py      :     3.397284
      dz2     :     0.006483  d :     0.047823
      dxz     :     0.003352
      dyz     :     0.011194
      dx2y2   :     0.012751
      dxy     :     0.014043

 13 Cls       :     5.749727  s :     5.749727
      pz      :     3.814912  p :    11.025613
      px      :     3.694723
      py      :     3.515978
      dz2     :     0.006675  d :     0.048685
      dxz     :     0.006093
      dyz     :     0.009620
      dx2y2   :     0.007394
      dxy     :     0.018904

 14 Cls       :     5.749250  s :     5.749250
      pz      :     3.873068  p :    11.024638
      px      :     3.246409
      py      :     3.905160
      dz2     :     0.006679  d :     0.048693
      dxz     :     0.011726
      dyz     :     0.000745
      dx2y2   :     0.021628
      dxy     :     0.007916

 15 Cls       :     5.749357  s :     5.749357
      pz      :     3.848262  p :    11.039309
      px      :     3.804254
      py      :     3.386794
      dz2     :     0.006341  d :     0.046852
      dxz     :     0.003304
      dyz     :     0.010655
      dx2y2   :     0.012408
      dxy     :     0.014144

 16 Cls       :     5.750599  s :     5.750599
      pz      :     3.603688  p :    11.023095
      px      :     3.813541
      py      :     3.605866
      dz2     :     0.009230  d :     0.047406
      dxz     :     0.007760
      dyz     :     0.015411
      dx2y2   :     0.007325
      dxy     :     0.007680

 17 Cls       :     5.750752  s :     5.750752
      pz      :     3.684289  p :    11.031082
      px      :     3.662064
      py      :     3.684729
      dz2     :     0.007087  d :     0.048267
      dxz     :     0.013062
      dyz     :     0.009258
      dx2y2   :     0.005657
      dxy     :     0.013204

 18 Cls       :     5.750026  s :     5.750026
      pz      :     3.891563  p :    11.040348
      px      :     3.259645
      py      :     3.889141
      dz2     :     0.006744  d :     0.046552
      dxz     :     0.009676
      dyz     :     0.000808
      dx2y2   :     0.019531
      dxy     :     0.009793

 19 H s       :     0.865391  s :     0.865391

 20 H s       :     0.861904  s :     0.861904

 21 H s       :     0.861097  s :     0.861097


---------------------------------
LOEWDIN BOND ORDERS (THRESH 0.050000)
---------------------------------
B(  0-C ,  1-C ) :   1.5052 B(  0-C ,  2-C ) :   0.0901 B(  0-C ,  3-C ) :   0.0968 
B(  0-C ,  4-C ) :   0.0853 B(  0-C ,  5-C ) :   1.4086 B(  0-C ,  6-C ) :   0.0749 
B(  0-C , 19-H ) :   0.8777 B(  1-C ,  2-C ) :   1.4406 B(  1-C ,  3-C ) :   0.0895 
B(  1-C ,  4-C ) :   0.0965 B(  1-C ,  5-C ) :   0.0877 B(  1-C , 18-Cl) :   0.1105 
B(  1-C , 20-H ) :   0.8773 B(  2-C ,  3-C ) :   1.3901 B(  2-C ,  4-C ) :   0.0896 
B(  2-C ,  5-C ) :   0.0932 B(  2-C , 17-Cl) :   0.1089 B(  2-C , 18-Cl) :   1.2806 
B(  3-C ,  4-C ) :   1.3916 B(  3-C ,  5-C ) :   0.0891 B(  3-C , 16-Cl) :   0.1078 
B(  3-C , 17-Cl) :   1.2874 B(  3-C , 18-Cl) :   0.1098 B(  4-C ,  5-C ) :   1.3756 
B(  4-C ,  6-C ) :   0.0749 B(  4-C , 16-Cl) :   1.2691 B(  4-C , 17-Cl) :   0.1098 
B(  5-C ,  6-C ) :   1.0170 B(  5-C ,  7-C ) :   0.0758 B(  5-C , 11-C ) :   0.0745 
B(  5-C , 16-Cl) :   0.1056 B(  6-C ,  7-C ) :   1.4150 B(  6-C ,  8-C ) :   0.0895 
B(  6-C ,  9-C ) :   0.0877 B(  6-C , 10-C ) :   0.0896 B(  6-C , 11-C ) :   1.3684 
B(  6-C , 12-Cl) :   0.1047 B(  7-C ,  8-C ) :   1.4509 B(  7-C ,  9-C ) :   0.0902 
B(  7-C , 10-C ) :   0.0937 B(  7-C , 11-C ) :   0.0857 B(  7-C , 15-Cl) :   0.1135 
B(  7-C , 21-H ) :   0.8714 B(  8-C ,  9-C ) :   1.3788 B(  8-C , 10-C ) :   0.0896 
B(  8-C , 11-C ) :   0.0864 B(  8-C , 14-Cl) :   0.1075 B(  8-C , 15-Cl) :   1.2784 
B(  9-C , 10-C ) :   1.3896 B(  9-C , 11-C ) :   0.0890 B(  9-C , 13-Cl) :   0.1102 
B(  9-C , 14-Cl) :   1.2939 B(  9-C , 15-Cl) :   0.1088 B( 10-C , 11-C ) :   1.3886 
B( 10-C , 12-Cl) :   0.1081 B( 10-C , 13-Cl) :   1.2901 B( 10-C , 14-Cl) :   0.1104 
B( 11-C , 12-Cl) :   1.2701 B( 11-C , 13-Cl) :   0.1093 

------------------------------------------
LOEWDIN REDUCED ORBITAL POPULATIONS PER MO
-------------------------------------------
THRESHOLD FOR PRINTING IS 0.1%%
                      0         1         2         3         4         5   
                 -100.66204 -100.66196 -100.66165 -100.66148 -100.65939 -100.65918
                   2.00000   2.00000   2.00000   2.00000   2.00000   2.00000
                  --------  --------  --------  --------  --------  --------
12 Cl s               1.4      97.1       1.6       0.0       0.0       0.0
13 Cl s               1.5       1.2      97.3       0.0       0.0       0.0
14 Cl s              97.1       1.7       1.1       0.0       0.0       0.0
15 Cl s               0.0       0.0       0.0       0.0       0.0     100.0
16 Cl s               0.0       0.0       0.0     100.0       0.0       0.0
17 Cl s               0.0       0.0       0.0       0.0      99.1       0.0
18 Cl s               0.0       0.0       0.0       0.0       0.8       0.0

                      6         7         8         9        10        11   
                 -100.65895  -9.98315  -9.98291  -9.97941  -9.97898  -9.97801
                   2.00000   2.00000   2.00000   2.00000   2.00000   2.00000
                  --------  --------  --------  --------  --------  --------
 2 C  s               0.0       0.0       0.0       0.0       0.0       0.5
 3 C  s               0.0       0.0       0.0       0.0       1.2      98.0
 3 C  px              0.0       0.0       0.0       0.0       0.1       0.0
 4 C  s               0.0       0.0       0.0       0.1      98.3       1.2
 4 C  px              0.0       0.0       0.0       0.0       0.0       0.1
 9 C  s               0.0      28.4      71.2       0.0       0.0       0.0
10 C  s               0.0      71.1      28.4       0.1       0.0       0.0
10 C  px              0.0       0.0       0.0       0.1       0.0       0.0
11 C  s               0.0       0.1       0.0      99.4       0.1       0.0
11 C  px              0.0       0.1       0.0       0.0       0.0       0.0
17 Cl s               0.8       0.0       0.0       0.0       0.0       0.0
18 Cl s              99.2       0.0       0.0       0.0       0.0       0.0

                     12        13        14        15        16        17   
                  -9.97743  -9.97643  -9.94356  -9.93978  -9.92829  -9.92346
                   2.00000   2.00000   2.00000   2.00000   2.00000   2.00000
                  --------  --------  --------  --------  --------  --------
 0 C  s               0.0       0.0       0.0       0.0       0.0      57.8
 1 C  s               0.0       0.0       0.0       0.0       0.0      41.7
 2 C  s               0.0      99.1       0.0       0.0       0.0       0.0
 3 C  s               0.0       0.5       0.0       0.0       0.0       0.0
 5 C  s               0.0       0.0       0.0      99.5       0.0       0.0
 5 C  px              0.0       0.0       0.1       0.0       0.0       0.0
 6 C  s               0.0       0.0      99.5       0.0       0.0       0.0
 6 C  px              0.0       0.0       0.0       0.1       0.0       0.0
 6 C  py              0.0       0.0       0.0       0.0       0.1       0.0
 7 C  s               0.0       0.0       0.0       0.0      99.6       0.0
 7 C  px              0.2       0.0       0.0       0.0       0.0       0.0
 7 C  py              0.0       0.0       0.1       0.0       0.0       0.0
 8 C  s              99.5       0.0       0.0       0.0       0.0       0.0
 8 C  px              0.0       0.0       0.0       0.0       0.1       0.0

                     18        19        20        21        22        23   
                  -9.92319  -9.19787  -9.19763  -9.19751  -9.19707  -9.19511
                   2.00000   2.00000   2.00000   2.00000   2.00000   2.00000
                  --------  --------  --------  --------  --------  --------
 0 C  s              41.8       0.0       0.0       0.0       0.0       0.0
 1 C  s              57.8       0.0       0.0       0.0       0.0       0.0
 9 C  px              0.0       0.1       0.0       0.0       0.0       0.0
11 C  py              0.0       0.0       0.1       0.0       0.0       0.0
12 Cl s               0.0       0.1      91.6       8.1       0.0       0.0
13 Cl s               0.0       1.1       7.8      90.9       0.0       0.0
14 Cl s               0.0      98.6       0.4       0.8       0.0       0.0
16 Cl s               0.0       0.0       0.0       0.0      99.8       0.0
17 Cl s               0.0       0.0       0.0       0.0       0.0      98.5
18 Cl s               0.0       0.0       0.0       0.0       0.0       1.2

                     24        25        26        27        28        29   
                  -9.19507  -9.19480  -7.02960  -7.02923  -7.02918  -7.02863
                   2.00000   2.00000   2.00000   2.00000   2.00000   2.00000
                  --------  --------  --------  --------  --------  --------
 2 C  px              0.0       0.1       0.0       0.0       0.0       0.0
 8 C  py              0.1       0.0       0.0       0.0       0.0       0.0
12 Cl pz              0.0       0.0       0.0       0.1       6.4       0.0
12 Cl px              0.0       0.0       0.0       0.3      16.7       0.0
12 Cl py              0.0       0.0       0.0       1.4      75.1       0.0
13 Cl pz              0.0       0.0       0.0       9.1       0.2       0.0
13 Cl px              0.0       0.0       0.0      31.9       0.6       0.0
13 Cl py              0.0       0.0       0.0      57.1       1.0       0.0
14 Cl pz              0.0       0.0       0.6       0.0       0.0       0.0
14 Cl px              0.0       0.0      98.0       0.0       0.0       0.0
14 Cl py              0.0       0.0       1.4       0.0       0.0       0.0
15 Cl s              99.8       0.0       0.0       0.0       0.0       0.0
16 Cl pz              0.0       0.0       0.0       0.0       0.0      43.4
16 Cl px              0.0       0.0       0.0       0.0       0.0      13.7
16 Cl py              0.0       0.0       0.0       0.0       0.0      42.9
17 Cl s               0.1       1.2       0.0       0.0       0.0       0.0
18 Cl s               0.0      98.6       0.0       0.0       0.0       0.0

                     30        31        32        33        34        35   
                  -7.02684  -7.02665  -7.02635  -7.01795  -7.01770  -7.01758
                   2.00000   2.00000   2.00000   2.00000   2.00000   2.00000
                  --------  --------  --------  --------  --------  --------
12 Cl pz              0.0       0.0       0.0       0.0      89.3       0.2
12 Cl px              0.0       0.0       0.0       0.0       0.7       0.0
12 Cl py              0.0       0.0       0.0       0.0       9.9       0.0
13 Cl pz              0.0       0.0       0.0       0.0       0.2      89.8
13 Cl px              0.0       0.0       0.0       0.0       0.0       1.2
13 Cl py              0.0       0.0       0.0       0.0       0.0       8.8
14 Cl pz              0.0       0.0       0.0      90.2       0.0       0.0
14 Cl px              0.0       0.0       0.0       1.1       0.0       0.0
14 Cl py              0.0       0.0       0.0       8.7       0.0       0.0
15 Cl pz              0.0       5.3       0.0       0.0       0.0       0.0
15 Cl px              0.0      16.1       0.0       0.0       0.0       0.0
15 Cl py              0.0      78.5       0.0       0.0       0.0       0.0
17 Cl pz             31.0       0.0       0.0       0.0       0.0       0.0
17 Cl px             37.7       0.0       0.0       0.0       0.0       0.0
17 Cl py             31.2       0.0       0.0       0.0       0.0       0.0
18 Cl pz              0.0       0.0       0.9       0.0       0.0       0.0
18 Cl px              0.0       0.0      97.6       0.0       0.0       0.0
18 Cl py              0.0       0.0       1.5       0.0       0.0       0.0

                     36        37        38        39        40        41   
                  -7.01719  -7.01674  -7.01665  -7.01642  -7.01610  -7.01517
                   2.00000   2.00000   2.00000   2.00000   2.00000   2.00000
                  --------  --------  --------  --------  --------  --------
12 Cl pz              0.0       0.0       4.0       0.0       0.0       0.0
12 Cl px              0.0       0.1      81.7       0.5       0.0       0.0
12 Cl py              0.0       0.0      13.6       0.1       0.0       0.0
13 Cl pz              0.0       0.0       0.0       0.7       0.0       0.0
13 Cl px              0.0       0.2       0.4      65.7       0.0       0.0
13 Cl py              0.0       0.1       0.2      32.7       0.0       0.0
14 Cl pz              0.0       9.2       0.0       0.0       0.0       0.0
14 Cl px              0.0       0.8       0.0       0.0       0.0       0.0
14 Cl py              0.0      89.6       0.1       0.3       0.0       0.0
16 Cl pz             49.7       0.0       0.0       0.0       6.9       0.0
16 Cl px              0.0       0.0       0.0       0.0      86.3       0.0
16 Cl py             50.3       0.0       0.0       0.0       6.8       0.0
17 Cl pz              0.0       0.0       0.0       0.0       0.0      51.8
17 Cl py              0.0       0.0       0.0       0.0       0.0      48.2

                     42        43        44        45        46        47   
                  -7.01508  -7.01488  -7.01418  -7.01404  -7.01388  -0.87524
                   2.00000   2.00000   2.00000   2.00000   2.00000   2.00000
                  --------  --------  --------  --------  --------  --------
 0 C  s               0.0       0.0       0.0       0.0       0.0       0.6
 0 C  pz              0.0       0.0       0.0       0.0       0.0       0.2
 1 C  s               0.0       0.0       0.0       0.0       0.0       0.4
 2 C  s               0.0       0.0       0.0       0.0       0.0       0.8
 3 C  s               0.0       0.0       0.0       0.0       0.0       1.5
 4 C  s               0.0       0.0       0.0       0.0       0.0       2.0
 5 C  s               0.0       0.0       0.0       0.0       0.0       2.1
 5 C  px              0.0       0.0       0.0       0.0       0.0       0.1
 6 C  s               0.0       0.0       0.0       0.0       0.0       5.2
 6 C  px              0.0       0.0       0.0       0.0       0.0       0.5
 6 C  py              0.0       0.0       0.0       0.0       0.0       0.1
 7 C  s               0.0       0.0       0.0       0.0       0.0       3.9
 7 C  pz              0.0       0.0       0.0       0.0       0.0       0.1
 7 C  px              0.0       0.0       0.0       0.0       0.0       0.6
 7 C  py              0.0       0.0       0.0       0.0       0.0       0.5
 8 C  s               0.0       0.0       0.0       0.0       0.0       8.3
 8 C  px              0.0       0.0       0.0       0.0       0.0       0.2
 8 C  py              0.0       0.0       0.0       0.0       0.0       0.3
 9 C  s               0.0       0.0       0.0       0.0       0.0      13.3
 9 C  py              0.0       0.0       0.0       0.0       0.0       0.1
 9 C  dz2             0.0       0.0       0.0       0.0       0.0       0.1
10 C  s               0.0       0.0       0.0       0.0       0.0      14.3
10 C  dz2             0.0       0.0       0.0       0.0       0.0       0.1
11 C  s               0.0       0.0       0.0       0.0       0.0      10.5
11 C  px              0.0       0.0       0.0       0.0       0.0       0.4
11 C  dz2             0.0       0.0       0.0       0.0       0.0       0.1
12 Cl s               0.0       0.0       0.0       0.0       0.0       5.6
12 Cl px              0.0       0.0       0.0       0.0       0.0       0.2
12 Cl py              0.0       0.0       0.0       0.0       0.0       0.6
13 Cl s               0.0       0.0       0.0       0.0       0.0       8.1
13 Cl pz              0.0       0.0       0.0       0.0       0.0       0.1
13 Cl px              0.0       0.0       0.0       0.0       0.0       0.4
13 Cl py              0.0       0.0       0.0       0.0       0.0       0.7
14 Cl s               0.0       0.0       0.0       0.0       0.0       7.4
14 Cl px              0.0       0.0       0.0       0.0       0.0       1.1
15 Cl s               0.0       0.0       0.0       0.0       0.0       3.9
15 Cl pz             90.3       0.0       4.4       0.0       0.0       0.0
15 Cl px              1.1       0.0      82.8       0.0       0.0       0.1
15 Cl py              8.7       0.0      12.8       0.0       0.0       0.5
16 Cl s               0.0       0.0       0.0       0.0       0.0       1.2
17 Cl s               0.0       0.0       0.0       0.0       0.0       0.7
17 Cl pz              0.0       0.0       0.0      16.9       0.2       0.0
17 Cl px              0.0       0.0       0.0      61.5       0.8       0.0
17 Cl py              0.0       0.0       0.0      20.3       0.3       0.0
18 Cl s               0.0       0.0       0.0       0.0       0.0       0.4
18 Cl pz              0.0      51.9       0.0       0.6      46.6       0.0
18 Cl px              0.0       0.0       0.0       0.0       2.3       0.1
18 Cl py              0.0      48.0       0.0       0.6      49.8       0.0
19 H  s               0.0       0.0       0.0       0.0       0.0       0.1
21 H  s               0.0       0.0       0.0       0.0       0.0       0.5

                     48        49        50        51        52        53   
                  -0.86479  -0.83524  -0.82355  -0.81335  -0.79462  -0.78647
                   2.00000   2.00000   2.00000   2.00000   2.00000   2.00000
                  --------  --------  --------  --------  --------  --------
 0 C  s               2.0       0.1       0.1       0.6       3.6       0.0
 0 C  pz              0.3       0.1       0.2       0.0       0.2       0.0
 0 C  px              0.3       0.1       0.5       0.0       0.2       0.0
 0 C  py              0.3       0.0       0.2       0.0       0.2       0.0
 1 C  s               3.4       0.0       1.2       0.9       3.4       0.0
 1 C  pz              0.7       0.0       0.2       0.1       0.1       0.0
 1 C  px              0.1       0.1       1.1       0.0       0.1       0.0
 1 C  py              0.8       0.0       0.2       0.1       0.2       0.0
 2 C  s              11.2       0.5       8.1       1.8       1.7       0.1
 2 C  pz              0.4       0.0       0.0       0.2       1.3       0.1
 2 C  px              0.0       0.1       3.3       0.7       0.1       0.2
 2 C  py              0.4       0.0       0.1       0.3       1.4       0.1
 2 C  dyz             0.1       0.0       0.0       0.0       0.0       0.0
 2 C  dx2y2           0.0       0.0       0.1       0.0       0.1       0.0
 3 C  s              16.9       0.3       0.4       0.4       3.2       0.2
 3 C  pz              0.0       0.0       0.5       0.8       3.7       0.2
 3 C  px              0.0       0.2       4.0       0.2       3.7       0.3
 3 C  py              0.0       0.0       0.6       0.9       3.8       0.2
 3 C  dxz             0.0       0.0       0.0       0.0       0.1       0.0
 3 C  dyz             0.2       0.0       0.0       0.0       0.1       0.0
 3 C  dxy             0.0       0.0       0.0       0.0       0.1       0.0
 4 C  s              12.5       0.0       6.3       1.6       1.0       0.1
 4 C  pz              0.1       0.0       0.8       1.0       0.1       0.1
 4 C  px              0.6       0.2       2.1       0.0       2.6       0.2
 4 C  py              0.1       0.0       0.9       1.0       0.1       0.1
 4 C  dyz             0.1       0.0       0.2       0.0       0.1       0.0
 5 C  s               3.7       0.6       3.0       0.3       3.9       0.0
 5 C  pz              0.2       0.0       0.4       0.2       0.0       0.0
 5 C  px              1.3       0.3       0.0       0.6       0.1       0.1
 5 C  py              0.2       0.0       0.5       0.3       0.0       0.1
 6 C  s               0.1       1.6       2.1       2.9       0.6       0.1
 6 C  pz              0.0       0.2       0.0       0.0       0.0       0.0
 6 C  px              1.1       0.0       0.3       0.2       0.8       0.0
 6 C  py              0.0       1.7       0.2       0.0       0.0       0.5
 7 C  s               0.1       0.5       1.7       2.9       0.0       0.3
 7 C  px              0.4       1.7       0.0       0.3       0.4       0.2
 7 C  py              0.0       0.6       0.1       0.1       0.2       0.2
 8 C  s               1.1       8.5       1.4       3.7       0.5       1.0
 8 C  pz              0.0       0.0       0.1       0.2       0.1       0.2
 8 C  px              0.2       1.4       0.1       0.3       0.0       0.1
 8 C  py              0.0       1.1       0.5       1.9       1.0       2.1
 9 C  s               2.2       4.4       0.2       1.4       0.4       1.8
 9 C  pz              0.0       0.2       0.1       0.4       0.0       0.0
 9 C  px              0.0       1.1       0.4       3.0       1.0       5.8
 9 C  py              0.0       2.9       0.8       1.6       0.0       0.3
 9 C  dx2y2           0.0       0.0       0.0       0.0       0.0       0.3
10 C  s               1.7       1.8       1.6       2.2       0.0       2.0
10 C  pz              0.0       0.2       0.1       0.2       0.0       0.5
10 C  px              0.1       1.5       0.8       4.4       0.2       1.1
10 C  py              0.0       3.1       0.6       0.5       0.3       3.7
10 C  dxy             0.0       0.0       0.0       0.0       0.0       0.2
11 C  s               0.4       9.2       0.0       2.5       0.3       0.8
11 C  pz              0.0       0.2       0.1       0.0       0.1       0.0
11 C  px              0.4       0.3       0.8       2.3       0.0       2.0
11 C  py              0.0       2.2       0.3       0.1       0.7       0.7
12 Cl s               0.2      18.3       0.0       7.5       2.3       8.9
12 Cl px              0.0       0.3       0.0       0.0       0.0       0.0
12 Cl py              0.0       1.0       0.0       0.3       0.0       0.2
13 Cl s               1.3       3.8       5.6      12.3       0.2      23.8
13 Cl px              0.0       0.2       0.1       0.1       0.0       0.2
13 Cl py              0.1       0.1       0.2       0.4       0.0       0.3
14 Cl s               1.6       8.9       1.0       8.4       4.1      25.1
14 Cl px              0.2       0.7       0.0       0.3       0.1       0.6
15 Cl s               0.7      15.4       2.7      10.2       4.3       8.0
15 Cl px              0.0       0.1       0.0       0.1       0.0       0.1
15 Cl py              0.1       1.0       0.1       0.4       0.1       0.1
16 Cl s               8.4       0.1      17.8       6.7       2.0       1.7
16 Cl pz              0.4       0.0       0.5       0.1       0.1       0.0
16 Cl px              0.2       0.0       0.1       0.1       0.0       0.0
16 Cl py              0.4       0.0       0.5       0.1       0.1       0.0
17 Cl s              11.6       0.6       0.9       1.9      36.9       2.6
17 Cl pz              0.5       0.0       0.1       0.0       0.3       0.0
17 Cl px              0.6       0.0       0.0       0.1       0.4       0.0
17 Cl py              0.5       0.0       0.1       0.0       0.3       0.0
18 Cl s               6.9       0.9      20.4       5.5       4.9       1.0
18 Cl px              0.9       0.1       1.2       0.3       0.2       0.0
18 Cl dx2y2           0.1       0.0       0.1       0.0       0.0       0.0
19 H  s               0.2       0.1       0.0       0.1       0.5       0.0
20 H  s               0.5       0.0       0.3       0.2       0.5       0.0
21 H  s               0.0       0.1       0.4       0.4       0.0       0.1

[...]
 3 C  pz              0.3       0.4       0.3       0.1       0.0       0.0
 3 C  px              0.1       0.1       0.9       0.7       0.0       0.0
 3 C  py              0.4       0.4       0.3       0.1       0.0       0.0
 3 C  dz2             1.1       0.1       0.9       0.6       0.2       0.2
 3 C  dxz             0.5       1.0       0.4       0.0       1.9       2.9
 3 C  dyz             1.3       1.1       1.6       0.6       0.1       0.0
 3 C  dx2y2           4.1       0.1       3.6       1.7       0.3       0.4
 3 C  dxy             0.3       1.1       0.2       0.0       2.4       3.2
 4 C  s               0.5       0.0       0.0       0.0       0.4       0.5
 4 C  pz              0.1       0.2       0.1       0.3       0.0       0.0
 4 C  px              0.3       0.3       1.2       1.2       0.0       0.0
 4 C  py              0.1       0.1       0.1       0.2       0.0       0.0
 4 C  dz2             0.2       0.0       0.2       1.4       0.6       0.9
 4 C  dxz             0.4       0.3       1.9       0.9       1.1       2.0
 4 C  dyz             0.8       0.5       0.6       1.4       0.0       0.4
 4 C  dx2y2           0.1       0.0       1.8       2.2       1.7       3.5
 4 C  dxy             0.4       0.3       1.8       1.4       1.3       1.6
 5 C  s               0.5       1.6       0.0       0.0       1.0       0.1
 5 C  pz              0.0       0.0       0.5       0.7       0.0       0.0
 5 C  px              0.4       1.7       0.0       0.0       0.0       0.7
 5 C  py              0.0       0.0       0.9       0.4       0.0       0.0
 5 C  dz2             1.1       3.3       0.1       0.1       0.5       2.0
 5 C  dxz             0.2       1.3       6.6       3.5       0.2       0.4
 5 C  dyz             0.1       0.0       0.1       0.3       3.2       3.5
 5 C  dx2y2           5.1       8.6       0.2       1.0       0.5       9.1
 5 C  dxy             3.6       4.7       1.1      14.2       0.2       0.7
 6 C  s               0.4       1.6       0.0       0.0       0.9       0.0
 6 C  pz              0.0       0.0       0.1       0.2       0.0       0.0
 6 C  px              0.5       1.7       0.0       0.0       0.0       0.7
 6 C  py              0.0       0.0       1.4       0.9       0.0       0.0
 6 C  dz2             1.0       2.9       0.0       0.0       0.2       0.1
 6 C  dxz             0.1       0.2       3.5       0.0       0.0       0.0
 6 C  dyz             0.1       0.0       0.0       0.1       2.4       0.4
 6 C  dx2y2           1.0      11.7       0.1       1.1       7.0      10.3
 6 C  dxy            10.2       0.2       3.7      18.3       0.5       0.4
 7 C  s               0.9       0.1       0.0       0.1       0.8       0.3
 7 C  px              0.4       0.5       1.0       1.0       0.0       0.0
 7 C  py              0.2       0.1       0.5       0.9       0.0       0.0
 7 C  dz2             0.2       0.7       0.0       0.0       1.0       0.2
 7 C  dxz             0.1       0.0       0.4       0.1       0.3       0.3
 7 C  dyz             0.7       0.0       0.1       0.9       0.1       0.0
 7 C  dx2y2           0.1       0.2       4.6       6.2       1.1       0.8
 7 C  dxy             0.5       0.0       0.6       0.3       8.4       4.7
 8 C  s               0.1       1.3       0.0       0.1       0.8       0.3
 8 C  px              0.4       0.0       1.3       0.9       0.0       0.0
 8 C  py              0.6       0.4       0.3       0.0       0.0       0.0
 8 C  dz2             0.2       1.2       0.0       0.0       0.4       0.1
 8 C  dxz             0.1       0.7       0.2       0.0       0.9       0.5
 8 C  dyz             0.4       0.1       0.5       0.3       0.0       0.0
 8 C  dx2y2           4.7       1.7       3.1       1.5       4.0       1.6
 8 C  dxy             3.3       2.1       3.1       1.1       4.2       2.1
 9 C  s               0.1       0.2       0.0       0.0       0.6       0.3
 9 C  pz              0.3       0.1       0.2       0.0       0.0       0.0
 9 C  py              2.4       0.6       1.6       0.5       0.0       0.0
 9 C  dz2             0.2       0.1       0.0       0.0       0.1       0.1
 9 C  dxz             1.1       0.2       0.8       0.2       0.0       0.0
 9 C  dyz             0.3       1.2       0.0       0.0       1.4       0.5
 9 C  dx2y2           3.8       3.2       0.3       0.0       6.7       2.7
 9 C  dxy             8.1       3.2       6.0       2.0       0.3       0.1
10 C  s               1.4       0.2       0.0       0.1       0.5       0.2
10 C  px              0.2       0.1       1.0       0.8       0.0       0.0
10 C  py              1.1       0.2       0.6       0.2       0.0       0.0
10 C  dz2             0.8       0.7       0.0       0.0       0.6       0.2
10 C  dxz             0.4       0.2       0.4       0.0       0.3       0.2
10 C  dyz             0.3       0.1       0.3       0.2       0.0       0.0
10 C  dx2y2           1.3       4.8       5.3       2.7       0.8       0.3
10 C  dxy             4.2       0.0       0.8       0.0       6.6       3.1
11 C  s               0.2       0.5       0.0       0.0       0.7       0.3
11 C  pz              0.1       0.0       0.0       0.2       0.0       0.0
11 C  px              0.1       0.7       1.2       1.2       0.0       0.0
11 C  py              0.4       0.1       0.2       0.5       0.0       0.0
11 C  dz2             0.2       0.5       0.0       0.1       0.5       0.1
11 C  dxz             0.0       0.1       0.2       0.0       0.9       0.6
11 C  dyz             0.1       0.3       0.2       1.2       0.0       0.0
11 C  dx2y2           0.3       0.2       2.9       4.5       3.3       2.6
11 C  dxy             0.0       1.0       3.0       1.8       4.3       2.1
14 Cl dxy             0.1       0.0       0.1       0.0       0.0       0.0
16 Cl s               0.0       0.1       0.0       0.0       0.0       0.0
19 H  s               0.0       0.0       0.0       0.0       0.2       0.4
20 H  s               0.1       0.1       0.0       0.0       0.2       0.3
21 H  s               0.1       0.0       0.0       0.0       0.4       0.2



                      *****************************
                      * MAYER POPULATION ANALYSIS *
                      *****************************

  NA   - Mulliken gross atomic population
  ZA   - Total nuclear charge
  QA   - Mulliken gross atomic charge
  VA   - Mayer's total valence
  BVA  - Mayer's bonded valence
  FA   - Mayer's free valence

  ATOM       NA         ZA         QA         VA         BVA        FA
  0 C      6.0942     6.0000    -0.0942     3.7695     3.7695    -0.0000
  1 C      6.0975     6.0000    -0.0975     3.8279     3.8279     0.0000
  2 C      5.9263     6.0000     0.0737     3.9722     3.9722    -0.0000
  3 C      5.9668     6.0000     0.0332     4.1152     4.1152     0.0000
  4 C      5.9810     6.0000     0.0190     4.0931     4.0931     0.0000
  5 C      5.9587     6.0000     0.0413     3.8997     3.8997     0.0000
  6 C      5.9641     6.0000     0.0359     3.8650     3.8650    -0.0000
  7 C      6.1605     6.0000    -0.1605     3.8230     3.8230    -0.0000
  8 C      5.9191     6.0000     0.0809     3.9514     3.9514    -0.0000
  9 C      5.9701     6.0000     0.0299     4.1178     4.1178     0.0000
 10 C      5.9973     6.0000     0.0027     4.1539     4.1539     0.0000
 11 C      5.9622     6.0000     0.0378     4.0419     4.0419     0.0000
 12 Cl    17.0226    17.0000    -0.0226     1.2872     1.2872    -0.0000
 13 Cl    17.0147    17.0000    -0.0147     1.2846     1.2846     0.0000
 14 Cl    17.0128    17.0000    -0.0128     1.2863     1.2863    -0.0000
 15 Cl    17.0390    17.0000    -0.0390     1.2255     1.2255    -0.0000
 16 Cl    17.0229    17.0000    -0.0229     1.2883     1.2883    -0.0000
 17 Cl    17.0201    17.0000    -0.0201     1.2784     1.2784     0.0000
 18 Cl    17.0402    17.0000    -0.0402     1.2282     1.2282     0.0000
 19 H      0.9389     1.0000     0.0611     0.9679     0.9679    -0.0000
 20 H      0.9421     1.0000     0.0579     0.9721     0.9721     0.0000
 21 H      0.9490     1.0000     0.0510     0.9909     0.9909    -0.0000

  Mayer bond orders larger than 0.100000
B(  0-C ,  1-C ) :   1.3121 B(  0-C ,  5-C ) :   1.3521 B(  0-C , 19-H ) :   0.9660 
B(  1-C ,  2-C ) :   1.3594 B(  1-C , 20-H ) :   0.9713 B(  2-C ,  3-C ) :   1.4060 
B(  2-C , 18-Cl) :   1.0473 B(  3-C ,  4-C ) :   1.3895 B(  3-C , 17-Cl) :   1.1182 
B(  4-C ,  5-C ) :   1.4277 B(  4-C , 16-Cl) :   1.1060 B(  5-C ,  6-C ) :   0.9463 
B(  6-C ,  7-C ) :   1.3098 B(  6-C , 11-C ) :   1.4114 B(  7-C ,  8-C ) :   1.3286 
B(  7-C , 21-H ) :   0.9764 B(  8-C ,  9-C ) :   1.3907 B(  8-C , 15-Cl) :   1.0376 
B(  9-C , 10-C ) :   1.4152 B(  9-C , 14-Cl) :   1.1216 B( 10-C , 11-C ) :   1.3859 
B( 10-C , 13-Cl) :   1.1204 B( 11-C , 12-Cl) :   1.1054 

-------
TIMINGS
-------

Total SCF time: 0 days 0 hours 0 min 14 sec 

Total time                  ....      14.642 sec
Sum of individual times     ....      14.597 sec  ( 99.7%)

SCF preparation             ....       0.335 sec  (  2.3%)
Fock matrix formation       ....      11.632 sec  ( 79.4%)
  Startup                   ....       0.011 sec  (  0.1% of F)
  Split-RI-J                ....       7.091 sec  ( 61.0% of F)
  XC integration            ....       4.397 sec  ( 37.8% of F)
    Basis function eval.    ....       1.783 sec  ( 40.6% of XC)
    Density eval.           ....       1.070 sec  ( 24.3% of XC)
    XC-Functional eval.     ....       0.263 sec  (  6.0% of XC)
    XC-Potential eval.      ....       1.027 sec  ( 23.3% of XC)
Diagonalization             ....       0.000 sec  (  0.0%)
Density matrix formation    ....       0.052 sec  (  0.4%)
Total Energy calculation    ....       0.004 sec  (  0.0%)
Population analysis         ....       2.300 sec  ( 15.7%)
Orbital Transformation      ....       0.035 sec  (  0.2%)
Orbital Orthonormalization  ....       0.000 sec  (  0.0%)
DIIS solution               ....       0.166 sec  (  1.1%)
  MO trafo                  ....       0.000 sec  (  0.0 % of DIIS)
  Orb grad                  ....       0.000 sec  (  0.0 % of DIIS)
  Energy W gradient         ....       0.000 sec  (  0.0 % of DIIS)
  DIIS error                ....       0.018 sec  ( 11.0 % of DIIS)
  DIIS work                 ....       0.129 sec  ( 77.7 % of DIIS)
  Form Q                    ....       0.000 sec  (  0.0 % of DIIS)
  Form QpQm                 ....       0.000 sec  (  0.0 % of DIIS)
  Exp/Cayley                ....       0.000 sec  (  0.0 % of DIIS)
  Orb update                ....       0.000 sec  (  0.0 % of DIIS)
  Wake-sleep                ....       0.001 sec  (  0.8 % of DIIS)
SOSCF solution              ....       0.074 sec  (  0.5%)
  MO trafo                  ....       0.038 sec  ( 51.0 % of SOSCF)
  Orb grad                  ....       0.001 sec  (  0.9 % of SOSCF)
  Rot update                ....       0.008 sec  ( 11.5 % of SOSCF)
  Step                      ....       0.027 sec  ( 36.5 % of SOSCF)
Finished LeanSCF after  16.6 sec

Maximum memory used throughout the entire LEANSCF-calculation: 27.7 MB


-------------------------------------------------------------------------------
                          DFT DISPERSION CORRECTION                            
                                                                               
                                DFTD4 V3.4.0                                   
-------------------------------------------------------------------------------
The PBE functional is recognized
Active option DFTDOPT                   ...         5   

-------------------------   ----------------
Dispersion correction           -0.049704869
-------------------------   ----------------

------------------   -----------------
gCP correction             0.067905448
------------------   -----------------

-------------------------   --------------------
FINAL SINGLE POINT ENERGY     -3677.235973152749
-------------------------   --------------------


------------------------------------------------------------------------------
                              ORCA PROPERTY CALCULATIONS
------------------------------------------------------------------------------

GBWName                                 ... sp.gbw
Number of atoms                         ...     22
Number of basis functions               ...    300
Max core memory                         ...   1024 MB

Electric properties:
Dipole moment                           ... YES
Quadrupole moment                       ...  NO
Static polarizability (Dipole/Dipole)   ...  NO
Static polarizability (Dipole/Quad.)    ...  NO
Static polarizability (Quad./Quad.)     ...  NO
Static polarizability (Velocity)        ...  NO

Atomic electric properties:
Dipole moment                           ...  NO
Quadrupole moment                       ...  NO
Static polarizability                   ...  NO

Choice of electric origin               ... Center of mass
Position of electric origin             ...     0.000002    -0.000001     0.000002

General magnetic properties:
Magnetizability                         ...  NO

EPR properties:
g-Tensor (aka g-matrix)                 ...  NO
Zero-Field splitting spin-orbit         ...  NO
Zero-field splitting spin-spin          ...  NO
Hyperfine couplings                     ...  NO (   0 nuclei)
Quadrupole couplings                    ...  NO (   0 nuclei)
Contact density                         ...  NO (   0 nuclei)

NMR properties:
Chemical shifts                         ...  NO (   0 nuclei)
Spin-rotation constants                 ...  NO (   0 nuclei)
Spin-spin couplings                     ...  NO (   0 nuclei,    0 pairs)

Choice of magnetic origin               ... GIAO
Position of magnetic origin             ...     0.000000     0.000000     0.000000

Properties with geometric perturbations:
SCF Hessian                             ...  NO
IR spectrum                             ...  NO
VCD spectrum                            ...  NO
X-ray spectroscopy properties:
SCF XES/XAS/RIXS spectra                ...  NO


-------------
DIPOLE MOMENT
-------------

Method             : SCF
Type of density    : Electron Density
Multiplicity       :   1
Irrep              :   0
Energy             : -3677.2541737322394511 Eh
Relativity type    : 
Basis              : AO
                                X                 Y                 Z
Electronic contribution:     -5.056497857       2.381929481      -6.840164070
Nuclear contribution   :      5.181346530      -2.605033573       7.331884856
                        -----------------------------------------
Total Dipole Moment    :      0.124848673      -0.223104092       0.491720787
                        -----------------------------------------
Magnitude (a.u.)       :      0.554212918
Magnitude (Debye)      :      1.408697288



--------------------
Rotational spectrum 
--------------------
 
Rotational constants in cm-1:             0.012893             0.003709             0.003186 
Rotational constants in MHz :           386.533059           111.183234            95.516674 

Dipole components along the rotational axes: 
x,y,z [a.u.] :    -0.124849    -0.223104     0.491721 
x,y,z [Debye]:    -0.317341    -0.567086     1.249854 

 

Dipole moment calculation done in   0.6 sec 

Maximum memory used throughout the entire PROP-calculation: 20.0 MB

--------------------------------
SUGGESTED CITATIONS FOR THIS RUN
--------------------------------

Below you find a list of papers that are relevant to this ORCA run
We neither can nor want to force you to cite these papers, but we appreciate if you do
You receive ORCA, which is the product of decades of hard work by many enthusiastic individuals, for free
The only thing we kindly ask in return is that you cite our papers,
We deeply appreciate it, if you show your appreciation for ORCA by not just citing the generic ORCA reference.

Please note that relegating all ORCA citations to the supporting information does *not* help us.
SI sections are not indexed - citations you put there will not count into any citation statistics
But we need these citations in order to attract the funding resources that allow us to do what we are doing

Therefore, if you are a happy ORCA user, please consider citing a few of the papers listed below in the main body of your paper

In addition to the list printed below, the program has created the file sp.bibtex that contains the list in bibtex format
You can import this file easily into all common literature databanks and citation aid programs


List of essential papers. We consider these as the minimum necessary citations

  1. Neese,F.
     Software update: the ORCA program system, version 5.0
     WIRES Comput. Molec. Sci., 2022 12(1)e1606
     doi.org/10.1002/wcms.1606

List of papers to cite with high priority. The work reported in these papers was absolutely
necessary for this run to complete.
Our perspective: the developers of density functionals and basis sets usually get cited in chemistry papers
Good! But without the algorithms to do something with them, the functionals or basis sets would not do anything.
Hence, in our opinion, the algorithm design and method developments papers are equally worthy of getting cited

  1. Neese,F.
     An improvement of the resolution of the identity approximation for the formation of the Coulomb matrix
     J. Comp. Chem., 2003 24(14)1740-1747
     doi.org/10.1002/jcc.10318
  2. Neese,F.
     The SHARK Integral Generation and Digestion System
     J. Comp. Chem., 2022  1-16
     doi.org/10.1002/jcc.26942
  3. Caldeweyher,E.; Bannwarth,C.; Grimme,S.
     Extension of the D3 dispersion coefficient model
     J. Chem. Phys., 2017 147 034112
     doi.org/10.1063/1.4993215
  4. Caldeweyher,E.; Ehlert,S.; Hansen,A.; Neugebauer,H.; Spicher,S.; Bannwarth,C.; Grimme,S.
     A generally applicable atomic-charge dependent London dispersion correction
     J. Chem. Phys., 2019 150 154122
     doi.org/10.1063/1.5090222
  5. Caldeweyher,E.; Mewes,J.; Ehlert,S.; Grimme,S.
     Extension and evaluation of the D4 London-dispersion model for periodic systems
     Phys. Chem. Chem. Phys., 2020 22(16)8499-8512
     doi.org/10.1039/D0CP00502A
  6. Wittmann,L.; Gordiy,I.; Friede,M.; Helmich-Paris,B.; Grimme,S.; Hansen,A.; Bursch,M.
     Extension of the D3 and D4 London Dispersion Corrections to the full Actinides Series
     Phys. Chem. Chem. Phys., 2024 26(32)21379-21394
     doi.org/https://doi.org/10.1039/D4CP01514B 

List of suggested additional citations. These are papers that are important in the 'surrounding' of 
of this run, or papers that preceded the highly important papers. If you like your results we are grateful for a citation.

  1. Neese,F.
     The ORCA program system
     WIRES Comput. Molec. Sci., 2012 2(1)73-78
     doi.org/10.1002/wcms.81
  2. Neese,F.
     Software update: the ORCA program system, version 4.0
     WIRES Comput. Molec. Sci., 2018 8(1)1-6
     doi.org/10.1002/wcms.1327
  3. Neese,F.; Wennmohs,F.; Becker,U.; Riplinger,C.
     The ORCA quantum chemistry program package
     J. Chem. Phys., 2020 152 Art. No. L224108
     doi.org/10.1063/5.0004608

List of optional additional citations

  1. Neese,F.
     Approximate second-order SCF convergence for spin unrestricted wavefunctions
     Chem. Phys. Lett., 2000 325(1-3)93-98
     doi.org/10.1016/s0009-2614(00)00662-x

Timings for individual modules:

Sum of individual times          ...       19.232 sec (=   0.321 min)
Startup calculation              ...        0.856 sec (=   0.014 min)   4.5 %
SCF iterations                   ...       17.690 sec (=   0.295 min)  92.0 %
Property calculations            ...        0.686 sec (=   0.011 min)   3.6 %
                             ****ORCA TERMINATED NORMALLY****
TOTAL RUN TIME: 0 days 0 hours 0 minutes 21 seconds 417 msec
