
                                 *****************
                                 * O   R   C   A *
                                 *****************

                                            #,                                       
                                            ###                                      
                                            ####                                     
                                            #####                                    
                                            ######                                   
                                           ########,                                 
                                     ,,################,,,,,                         
                               ,,#################################,,                 
                          ,,##########################################,,             
                       ,#########################################, ''#####,          
                    ,#############################################,,   '####,        
                  ,##################################################,,,,####,       
                ,###########''''           ''''###############################       
              ,#####''   ,,,,##########,,,,          '''####'''          '####       
            ,##' ,,,,###########################,,,                        '##       
           ' ,,###''''                  '''############,,,                           
         ,,##''                                '''############,,,,        ,,,,,,###''
      ,#''                                            '''#######################'''  
     '                                                          ''''####''''         
             ,#######,   #######,   ,#######,      ##                                
            ,#'     '#,  ##    ##  ,#'     '#,    #''#        ,####,   ,####,        
            ##       ##  ##   ,#'  ##            #'  '#       #'       #'  '#        
            ##       ##  #######   ##           ,######,      #####,   #    #        
            '#,     ,#'  ##    ##  '#,     ,#' ,#      #,     #,   #   #,  ,#        
             '#######'   ##     ##  '#######'  #'      '#     '####' # '####'        



                #########################################################
                #                        -***-                          #
                #          Department of theory and spectroscopy        #
                #                                                       #
                #                      Frank Neese                      #
                #                                                       #
                #     Directorship, Architecture, Infrastructure        #
                #                    SHARK, DRIVERS                     #
                #        Core code/Algorithms in most modules           #
                #                                                       #
                #        Max Planck Institute fuer Kohlenforschung      #
                #                Kaiser Wilhelm Platz 1                 #
                #                 D-45470 Muelheim/Ruhr                 #
                #                      Germany                          #
                #                                                       #
                #                  All rights reserved                  #
                #                        -***-                          #
                #########################################################


                         Program Version 6.0.1  -  RELEASE   -


 With contributions from (in alphabetic order):
[Max-Planck-Institut fuer Kohlenforschung]                               
  Daniel Aravena         : Magnetic Suceptibility                        
  Michael Atanasov       : Ab Initio Ligand Field Theory (pilot matlab implementation)
  Alexander A. Auer      : GIAO ZORA, VPT2 properties, NMR spectrum      
  Ute Becker             : All parallelization in ORCA, NUMFREQ, NUMCALC 
  Giovanni Bistoni       : ED, misc. LED, open-shell LED, HFLD           
  Martin Brehm           : Molecular dynamics                            
  Dmytro Bykov           : pre 5.0 version of the SCF Hessian            
  Marcos Casanova-Páez   : Triplet and SCS-CIS(D). UHF-(DLPNO)-IP/EA/STEOM-CCSD. UHF-CVS-IP/STEOM-CCSD   
  Vijay G. Chilkuri      : MRCI spin determinant printing, contributions to CSF-ICE 
  Pauline Colinet        : FMM embedding                                 
  Dipayan Datta          : RHF DLPNO-CCSD density                        
  Achintya Kumar Dutta   : EOM-CC, STEOM-CC                              
  Nicolas Foglia         : Exact transition moments, OPA infrastructure, MCD improvements    
  Dmitry Ganyushin       : Spin-Orbit,Spin-Spin,Magnetic field MRCI      
  Miquel Garcia-Rates    : C-PCM and meta-GGA Hessian, CCSD/C-PCM, Gaussian charge scheme 
  Tiago L. C. Gouveia    : GS-ROHF, GS-ROCIS                             
  Yang Guo               : DLPNO-NEVPT2, F12-NEVPT2, CIM, IAO-localization        
  Andreas Hansen         : Spin unrestricted coupled pair/coupled cluster methods 
  Ingolf Harden          : AUTO-CI MPn and infrastructure                
  Benjamin Helmich-Paris : MC-RPA, TRAH-(SCF,CASSCF), AVAS, COSX integrals, SCF dyn. polar. 
  Lee Huntington         : MR-EOM, pCC                                   
  Robert Izsak           : Overlap fitted RIJCOSX, COSX-SCS-MP3, EOM     
  Riya Kayal             : Wick's Theorem for AUTO-CI, AUTO-CI UHF-CCSDT 
  Emily Kempfer          : AUTO-CI, RHF CISDT and CCSDT                  
  Christian Kollmar      : KDIIS, OOCD, Brueckner-CCSD(T), CCSD density, CASPT2, CASPT2-K, improved NEVPT2 
  Axel Koslowski         : Symmetry handling                             
  Simone Kossmann        : meta-GGA functionals, TD-DFT gradient, OOMP2, (MP2 Hessian; deprecated post 5.0) 
  Lucas Lang             : DCDCAS                                        
  Marvin Lechner         : AUTO-CI (C++ implementation), FIC-MRCC        
  Spencer Leger          : CASSCF response                               
  Dagmar Lenk            : GEPOL surface, SMD, ORCA-2-JSON               
  Dimitrios Liakos       : Extrapolation schemes; Compound Job, initial MDCI parallelization 
  Dimitrios Manganas     : Further ROCIS development; embedding schemes. LFT, Crystal Embedding 
  Dimitrios Pantazis     : SARC Basis sets                               
  Anastasios Papadopoulos: AUTO-CI, single reference methods and gradients 
  Taras Petrenko         : pre 6.0 DFT Hessian and TD-DFT gradient, (ASA, deprecated), ECA, 1-Electron XAS/XES, NRVS 
  Peter Pinski           : DLPNO-MP2, DLPNO-MP2 Gradient                 
  Christoph Reimann      : Effective Core Potentials                     
  Marius Retegan         : Local ZFS, SOC                                
  Christoph Riplinger    : Optimizer, TS searches, QM/MM, DLPNO-CCSD(T), (RO)-DLPNO pert. Triples 
  Michael Roemelt        : Original ROCIS implementation                 
  Masaaki Saitow         : Open-shell DLPNO-CCSD energy and density      
  Barbara Sandhoefer     : DKH picture change effects                    
  Kantharuban Sivalingam : CASSCF convergence/infrastructure, NEVPT2 and variants, FIC-MRCI 
  Bernardo de Souza      : ESD, SOC TD-DFT                               
  Georgi L. Stoychev     : AutoAux, RI-MP2 NMR, DLPNO-MP2 response, X2C  
  Van Anh Tran           : RI-MP2 g-tensors                              
  Willem Van den Heuvel  : Paramagnetic NMR                              
  Zikuan Wang            : NOTCH, Electric field optimization            
  Frank Wennmohs         : Technical directorship and infrastructure     
  Hang Xu                : AUTO-CI-Response properties                   
                                                                         
[FACCTs GmbH]                                                            
  Markus Bursch, Miquel Garcia-Rates, Christoph Riplinger, Bernardo de Souza, Georgi L. Stoychev 
                                                                 
  APM, Basis sets (HGBS, AHGBS, def-TZVP (Ac-Lr), def2-XVPD (La-Lu)), CI-OPT, improved COSX, DLPNO-Multilevel,           
  DOCKER, DRACO, updates on ESD, GOAT, IRC, LR-CPCM, MBIS, meta-GGA TD-DFT gradient, ML-optimized integration grids, 
  MM, NACMEs, nearIR, NEB, NEB-TS, NL-DFT gradient (VV10), 2- and 3-layer-ONIOM, interface openCOSMO-RS, QMMM,   
  Crystal-QMMM, SF, symmetry and pop. for TD-DFT, r2SCAN hybrids, SOLVATOR                                   
                                                                         
[Other institutions]                                                     
  V. Asgeirsson          : NEB                                           
  Christoph Bannwarth    : sTDA-DFT, sTD-DFT, PBEh-3c, B97-3c, D3        
  Sebastian Ehlert       : rSCAN, r2SCAN, r2SCAN-3c, D4, dhf basis sets  
  Marvin Friede          : D4 for Fr, Ra, Ac-Lr                          
  Lars Goerigk           : TD-DFT with DH, B97 family of functionals     
  Stefan Grimme          : VdW corrections, initial TS optimization, DFT functionals, gCP, sTDA/sTD-DF 
  Waldemar Hujo          : DFT-NL                                        
  H. Jonsson             : NEB                                           
  Holger Kruse           : gCP                                           
  Marcel Mueller         : wB97X-3c, vDZP basis set                      
  Hagen Neugebauer       : wr2SCAN                                       
  Tobias Risthaus        : range-separated hybrid DFT                    
  Lukas Wittmann         : regularized MP2, r2SCAN double-hybrids, wr2SCAN        
                                                                         
We gratefully acknowledge several colleagues who have allowed us to      
interface, adapt or use parts of their codes:                            
  Ed Valeev, F. Pavosevic, A. Kumar             : LibInt (2-el integral package), F12 methods 
  Garnet Chan, S. Sharma, J. Yang, R. Olivares  : DMRG                   
  Ulf Ekstrom                                   : XCFun DFT Library      
  Mihaly Kallay                                 : mrcc  (arbitrary order and MRCC methods)
  Frank Weinhold                                : gennbo (NPA and NBO analysis)           
  Simon Mueller                                 : openCOSMO-RS                            
  Christopher J. Cramer and Donald G. Truhlar   : smd solvation model                     
  S Lehtola, MJT Oliveira, MAL Marques          : LibXC Library                           
  Liviu Ungur et al                             : ANISO software                          


 Your calculation uses the libint2 library for the computation of 2-el integrals
 For citations please refer to: http://libint.valeyev.net

 Your ORCA version has been built with support for libXC version: 6.2.2
 For citations please refer to: https://libxc.gitlab.io

 This ORCA versions uses:
   CBLAS   interface :  Fast vector & matrix operations
   LAPACKE interface :  Fast linear algebra routines
   SCALAPACK package :  Parallel linear algebra routines
   Shared memory     :  Shared parallel matrices
   BLAS/LAPACK       :  OpenBLAS 0.3.27  USE64BITINT DYNAMIC_ARCH NO_AFFINITY Zen SINGLE_THREADED
        Core in use  :  Zen
   Copyright (c) 2011-2014, The OpenBLAS Project


Your calculation utilizes the geometrical counterpoise correction gCP
Please cite in your paper:
H.Kruse, S. Grimme J.Chem.Phys., 136, (2012), 154101 
   

Your calculation utilizes the atom-pairwise dispersion correction
based on EEQ partial charges (D4)


================================================================================

----- Orbital basis set information -----
Your calculation utilizes the basis: def2-SV(P)
   F. Weigend and R. Ahlrichs, Phys. Chem. Chem. Phys. 7, 3297 (2005).

----- AuxJ basis set information -----
Your calculation utilizes the auxiliary basis: def2/J
   F. Weigend, Phys. Chem. Chem. Phys. 8, 1057 (2006).

================================================================================
                                        WARNINGS
                       Please study these warnings very carefully!
================================================================================


================================================================================
                                       INPUT FILE
================================================================================
NAME = sp.inp
|  1> ! pbe def2-sv(p) def2/J RI DEFGRID1 loosescf d4 GCP(DFT/SV(P)) printgap
|  2> %output
|  3>     printlevel normal
|  4> end
|  5> * xyz 0 1
|  6> C -2.7927826023 -0.3918543171 -3.17545e-05
|  7> O -1.3868727294 -0.646545033 4.07937e-05
|  8> C -0.6004923024 0.406272815 0.0001689924
|  9> O -0.9206770994 1.5561877887 1.68536e-05
| 10> C 0.8838569598 -0.0703080886 3.30947e-05
| 11> F 1.7277790291 0.9570620994 0.0006693327
| 12> F 1.1505894545 -0.8176503393 1.0773485546
| 13> F 1.150677371 -0.8163665254 -1.0781765112
| 14> H -3.2714864736 -1.3667353153 -0.0162706011
| 15> H -3.0673882875 0.1906285746 -0.8805430207
| 16> H -3.0721710735 0.1627214664 0.89685868
| 17> *
| 18> 
| 19>                          ****END OF INPUT****
================================================================================

                       ****************************
                       * Single Point Calculation *
                       ****************************

---------------------------------
CARTESIAN COORDINATES (ANGSTROEM)
---------------------------------
  C     -2.792783   -0.391854   -0.000032
  O     -1.386873   -0.646545    0.000041
  C     -0.600492    0.406273    0.000169
  O     -0.920677    1.556188    0.000017
  C      0.883857   -0.070308    0.000033
  F      1.727779    0.957062    0.000669
  F      1.150589   -0.817650    1.077349
  F      1.150677   -0.816367   -1.078177
  H     -3.271486   -1.366735   -0.016271
  H     -3.067388    0.190629   -0.880543
  H     -3.072171    0.162721    0.896859

----------------------------
CARTESIAN COORDINATES (A.U.)
----------------------------
  NO LB      ZA    FRAG     MASS         X           Y           Z
   0 C     6.0000    0    12.011   -5.277594   -0.740497   -0.000060
   1 O     8.0000    0    15.999   -2.620810   -1.221793    0.000077
   2 C     6.0000    0    12.011   -1.134766    0.767744    0.000319
   3 O     8.0000    0    15.999   -1.739828    2.940769    0.000032
   4 C     6.0000    0    12.011    1.670248   -0.132863    0.000063
   5 F     9.0000    0    18.998    3.265029    1.808585    0.001265
   6 F     9.0000    0    18.998    2.174299   -1.545135    2.035894
   7 F     9.0000    0    18.998    2.174465   -1.542709   -2.037458
   8 H     1.0000    0     1.008   -6.182213   -2.582755   -0.030747
   9 H     1.0000    0     1.008   -5.796524    0.360236   -1.663985
  10 H     1.0000    0     1.008   -5.805562    0.307499    1.694817

--------------------------------
INTERNAL COORDINATES (ANGSTROEM)
--------------------------------
 C      0   0   0     0.000000000000     0.00000000     0.00000000
 O      1   0   0     1.428793174937     0.00000000     0.00000000
 C      2   1   0     1.314085086085   116.48894541     0.00000000
 O      3   2   1     1.193659404569   127.68342599     0.00000000
 C      3   2   1     1.558981112245   108.95683082   180.00766583
 F      5   3   2     1.329546677271   111.60071932   180.02384098
 F      5   3   2     1.338011682890   111.12994225   300.31093437
 F      5   3   2     1.338032988087   111.12404162    59.74208984
 H      1   2   3     1.086192458631   105.88284427   179.11500173
 H      1   2   3     1.090868778255   110.05502227    59.23720694
 H      1   2   3     1.090882518414   110.03470601   298.94250995

---------------------------
INTERNAL COORDINATES (A.U.)
---------------------------
 C      0   0   0     0.000000000000     0.00000000     0.00000000
 O      1   0   0     2.700027802647     0.00000000     0.00000000
 C      2   1   0     2.483260929371   116.48894541     0.00000000
 O      3   2   1     2.255689371815   127.68342599     0.00000000
 C      3   2   1     2.946047350100   108.95683082   180.00766583
 F      5   3   2     2.512479102307   111.60071932   180.02384098
 F      5   3   2     2.528475644649   111.12994225   300.31093437
 F      5   3   2     2.528515905636   111.12404162    59.74208984
 H      1   2   3     2.052606275544   105.88284427   179.11500173
 H      1   2   3     2.061443238948   110.05502227    59.23720694
 H      1   2   3     2.061469204085   110.03470601   298.94250995

---------------------
BASIS SET INFORMATION
---------------------
There are 4 groups of distinct atoms

 Group   1 Type C   : 7s4p1d contracted to 3s2p1d pattern {511/31/1}
 Group   2 Type O   : 7s4p1d contracted to 3s2p1d pattern {511/31/1}
 Group   3 Type F   : 7s4p1d contracted to 3s2p1d pattern {511/31/1}
 Group   4 Type H   : 4s contracted to 2s pattern {31}

Atom   0C    basis set group =>   1
Atom   1O    basis set group =>   2
Atom   2C    basis set group =>   1
Atom   3O    basis set group =>   2
Atom   4C    basis set group =>   1
Atom   5F    basis set group =>   3
Atom   6F    basis set group =>   3
Atom   7F    basis set group =>   3
Atom   8H    basis set group =>   4
Atom   9H    basis set group =>   4
Atom  10H    basis set group =>   4
---------------------------------
AUXILIARY/J BASIS SET INFORMATION
---------------------------------
There are 4 groups of distinct atoms

 Group   1 Type C   : 12s5p4d2f1g contracted to 6s4p3d1f1g pattern {711111/2111/211/2/1}
 Group   2 Type O   : 12s5p4d2f1g contracted to 6s4p3d1f1g pattern {711111/2111/211/2/1}
 Group   3 Type F   : 12s5p4d2f1g contracted to 6s4p3d1f1g pattern {711111/2111/211/2/1}
 Group   4 Type H   : 5s2p1d contracted to 3s1p1d pattern {311/2/1}

Atom   0C    basis set group =>   1
Atom   1O    basis set group =>   2
Atom   2C    basis set group =>   1
Atom   3O    basis set group =>   2
Atom   4C    basis set group =>   1
Atom   5F    basis set group =>   3
Atom   6F    basis set group =>   3
Atom   7F    basis set group =>   3
Atom   8H    basis set group =>   4
Atom   9H    basis set group =>   4
Atom  10H    basis set group =>   4
------------------------------------------------------------------------------
                             ORCA STARTUP CALCULATIONS
                           -- RI-GTO INTEGRALS CHOSEN --
------------------------------------------------------------------------------
------------------------------------------------------------------------------
                   ___                                                        
                  /   \      - P O W E R E D   B Y -                         
                 /     \                                                     
                 |  |  |   _    _      __       _____    __    __             
                 |  |  |  | |  | |    /  \     |  _  \  |  |  /  |          
                  \  \/   | |  | |   /    \    | | | |  |  | /  /          
                 / \  \   | |__| |  /  /\  \   | |_| |  |  |/  /          
                |  |  |   |  __  | /  /__\  \  |    /   |      \           
                |  |  |   | |  | | |   __   |  |    \   |  |\   \          
                \     /   | |  | | |  |  |  |  | |\  \  |  | \   \       
                 \___/    |_|  |_| |__|  |__|  |_| \__\ |__|  \__/        
                                                                              
                      - O R C A' S   B I G   F R I E N D -                    
                                      &                                       
                       - I N T E G R A L  F E E D E R -                       
                                                                              
 v1 FN, 2020, v2 2021, v3 2022-2024                                           
------------------------------------------------------------------------------


----------------------
SHARK INTEGRAL PACKAGE
----------------------

Number of atoms                             ...     11
Number of basis functions                   ...    118
Number of shells                            ...     54
Maximum angular momentum                    ...      2
Integral batch strategy                     ... SHARK/LIBINT Hybrid
RI-J (if used) integral strategy            ... SPLIT-RIJ (Revised 2003 algorithm where possible)
Printlevel                                  ...      1
Contraction scheme used                     ... SEGMENTED contraction
Prescreening option                         ... SCHWARTZ
   Thresh                                   ... 1.000e-09
   Tcut                                     ... 1.000e-10
   Tpresel                                  ... 1.000e-10 
Coulomb Range Separation                    ... NOT USED
Exchange Range Separation                   ... NOT USED
Multipole approximations                    ... NOT USED
Finite Nucleus Model                        ... NOT USED
CABS basis                                  ... NOT available
Auxiliary Coulomb fitting basis             ... AVAILABLE
   # of basis functions in Aux-J            ...    425
   # of shells in Aux-J                     ...    135
   Maximum angular momentum in Aux-J        ...      4
Auxiliary J/K fitting basis                 ... NOT available
Auxiliary Correlation fitting basis         ... NOT available
Auxiliary 'external' fitting basis          ... NOT available

Checking pre-screening integrals            ... done (  0.0 sec) Dimension = 54
Check shell pair data                       ... done (  0.0 sec)
Shell pair information
Shell pair cut-off parameter TPreSel        ...   1.0e-10
Total number of shell pairs                 ...      1485
Shell pairs after pre-screening             ...      1362
Total number of primitive shell pairs       ...      5999
Primitive shell pairs kept                  ...      3834
          la=0 lb=0:    408 shell pairs
          la=1 lb=0:    452 shell pairs
          la=1 lb=1:    135 shell pairs
          la=2 lb=0:    210 shell pairs
          la=2 lb=1:    124 shell pairs
          la=2 lb=2:     33 shell pairs

Calculating one electron integrals          ... done (  0.0 sec)
Calculating RI/J V-Matrix + Cholesky decomp.... done (  0.0 sec)
Calculating Nuclear repulsion               ... done (  0.0 sec) ENN=    419.563976991187 Eh

Diagonalization of the overlap matrix:
Smallest eigenvalue                        ... 3.273e-03
Time for diagonalization                   ...    0.002 sec
Threshold for overlap eigenvalues          ... 1.000e-07
Number of eigenvalues below threshold      ... 0
Time for construction of square roots      ...    0.003 sec
Total time needed                          ...    0.006 sec

-------------------
DFT GRID GENERATION
-------------------

General Integration Accuracy     IntAcc      ... 4.159
Radial Grid Type                 RadialGrid  ... OptM3 with GC (2021)
Angular Grid (max. ang.)         AngularGrid ... 3 (Lebedev-194)
Angular grid pruning method      GridPruning ... 4 (adaptive)
Weight generation scheme         WeightScheme... mBecke (2022)
Basis function cutoff            BFCut       ... 1.0000e-10
Integration weight cutoff        WCut        ... 1.0000e-14
Partially contracted basis set               ... off
Rotationally invariant grid construction     ... off
Angular grids for H and He will be reduced by one unit

Total number of grid points                  ...    30823
Total number of batches                      ...      488
Average number of points per batch           ...       63
Average number of grid points per atom       ...     2802
Initializing property integral containers    ... done (  0.0 sec)

SHARK setup successfully completed in   0.3 seconds

Maximum memory used throughout the entire STARTUP-calculation: 15.7 MB
-------------------------------------------------------------------------------
                                 ORCA GUESS
                   Start orbitals & Density for SCF / CASSCF
-------------------------------------------------------------------------------

------------
SCF SETTINGS
------------
Hamiltonian:
 Density Functional     Method          .... DFT(GTOs)
 Exchange Functional    Exchange        .... PBE
   PBE kappa parameter   XKappa         ....  0.804000
   PBE mue parameter    XMuePBE         ....  0.219520
 Correlation Functional Correlation     .... PBE
   PBE beta parameter  CBetaPBE         ....  0.066725
 LDA part of GGA corr.  LDAOpt          .... PW91-LDA
 Gradients option       PostSCFGGA      .... off
   NL short-range parameter             ....  6.400000
 RI-approximation to the Coulomb term is turned on
   Number of AuxJ basis functions       .... 425


General Settings:
 Integral files         IntName         .... sp
 Hartree-Fock type      HFTyp           .... RHF
 Total Charge           Charge          ....    0
 Multiplicity           Mult            ....    1
 Number of Electrons    NEL             ....   64
 Basis Dimension        Dim             ....  118
 Nuclear Repulsion      ENuc            ....    419.5639769912 Eh

Convergence Acceleration:
 AO-DIIS                CNVDIIS         .... on
   Start iteration      DIISMaxIt       ....    12
   Startup error        DIISStart       ....  0.200000
   # of expansion vecs  DIISMaxEq       ....     5
   Bias factor          DIISBfac        ....   1.050
   Max. coefficient     DIISMaxC        ....  10.000
 MO-DIIS                CNVKDIIS        .... off
 Trust-Rad. Augm. Hess. CNVTRAH         .... auto
   Auto Start mean grad. ratio tolernc. ....  1.125000
   Auto Start start iteration           ....    50
   Auto Start num. interpolation iter.  ....    10
   Max. Number of Micro iterations      ....    24
   Max. Number of Macro iterations      .... Maxiter - #DIIS iter
   Number of Davidson start vectors     ....     2
   Converg. threshold    (grad. norm)   ....   1.000e-04
   Grad. Scal. Fac. for Micro threshold ....   0.100
   Minimum threshold for Micro iter.    ....   1.000e-02
   NR start threshold (gradient norm)   ....   1.000e-04
   Initial trust radius                 ....   0.400
   Minimum AH scaling param. (alpha)    ....   1.000
   Maximum AH scaling param. (alpha)    .... 1000.000
   Quad. conv. algorithm                .... NR
   White noise on init. David. guess    .... on
   Maximum white noise                  ....   0.010
   Pseudo random numbers                .... off
   Inactive MOs                         .... canonical
   Orbital update algorithm             .... Taylor
   Preconditioner                       .... Diag
   Full preconditioner red. dimension   ....   250
 SOSCF                  CNVSOSCF        .... on
   Start iteration      SOSCFMaxIt      ....   150
   Startup grad/error   SOSCFStart      ....  0.003300
   Hessian update       SOSCFHessUp     .... L-BFGS
 Level Shifting         CNVShift        .... on
   Level shift para.    LevelShift      ....    0.2500
   Turn off err/grad.   ShiftErr        ....    0.0010
 Zerner damping         CNVZerner       .... off
 Static damping         CNVDamp         .... on
   Fraction old density DampFac         ....    0.7000
   Max. Damping (<1)    DampMax         ....    0.9800
   Min. Damping (>=0)   DampMin         ....    0.0000
   Turn off err/grad.   DampErr         ....    0.1000

SCF Procedure:
 Maximum # iterations   MaxIter         ....   125
 SCF integral mode      SCFMode         .... Direct
   Integral package                     .... SHARK and LIBINT hybrid scheme
 Reset frequency        DirectResetFreq ....    20
 Integral Threshold     Thresh          ....  1.000e-09 Eh
 Primitive CutOff       TCut            ....  1.000e-10 Eh

Convergence Tolerance:
 Convergence Check Mode ConvCheckMode   .... Total+1el-Energy
 Convergence forced     ConvForced      .... 0
 Energy Change          TolE            ....  1.000e-05 Eh
 1-El. energy change                    ....  1.000e-02 Eh
 Orbital Gradient       TolG            ....  1.000e-04
 Orbital Rotation angle TolX            ....  1.000e-04
 DIIS Error             TolErr          ....  5.000e-04

------------------------------
INITIAL GUESS: MODEL POTENTIAL
------------------------------
Loading Hartree-Fock densities                     ... done
Calculating cut-offs                               ... done
Initializing the effective Hamiltonian             ... done
Setting up the integral package (SHARK)            ... done
Starting the Coulomb interaction                   ... done (   0.0 sec)
Making the grid                                    ... done (   0.1 sec)
Mapping shells                                     ... done
Starting the XC term evaluation                    ... done (   0.1 sec)
  promolecular density results
     # of electrons  =     63.999291671
     EX              =    -62.553491905
     EC              =     -2.201012764
     EX+EC           =    -64.754504668
Transforming the Hamiltonian                       ... done (   0.0 sec)
Diagonalizing the Hamiltonian                      ... done (   0.0 sec)
Back transforming the eigenvectors                 ... done (   0.0 sec)
Now organizing SCF variables                       ... done
                      ------------------
                      INITIAL GUESS DONE (   0.2 sec)
                      ------------------
             **** ENERGY FILE WAS UPDATED (sp.en.tmp) ****
Finished Guess after   0.3 sec
Maximum memory used throughout the entire GUESS-calculation: 12.5 MB

-------------------------------------------------------------------------------------------
                                      ORCA LEAN-SCF
                              memory conserving SCF solver
-------------------------------------------------------------------------------------------

----------------------------------------D-I-I-S--------------------------------------------
Iteration    Energy (Eh)           Delta-E    RMSDP     MaxDP     DIISErr   Damp  Time(sec)
-------------------------------------------------------------------------------------------
               ***  Starting incremental Fock matrix formation  ***
    1    -564.9081554021644251     0.00e+00  5.01e-03  1.14e-01  2.81e-01  0.700   0.2
    2    -565.0071888276493155    -9.90e-02  2.48e-03  5.56e-02  6.52e-02  0.700   0.2
                               ***Turning on AO-DIIS***
    3    -565.0301350423256963    -2.29e-02  8.14e-04  1.25e-02  3.02e-02  0.700   0.2
    4    -565.0497874588170362    -1.97e-02  1.25e-03  2.65e-02  3.26e-02  0.000   0.2
    5    -565.0979971655732470    -4.82e-02  4.19e-04  7.54e-03  7.05e-03  0.000   0.2
    6    -565.0982115291784567    -2.14e-04  1.48e-04  2.86e-03  4.56e-03  0.000   0.2
                              *** Initializing SOSCF ***
---------------------------------------S-O-S-C-F--------------------------------------
Iteration    Energy (Eh)           Delta-E    RMSDP     MaxDP     MaxGrad    Time(sec)
--------------------------------------------------------------------------------------
    7    -565.0982584311465189    -4.69e-05  4.50e-05  9.23e-04  1.10e-03     0.2
               *** Restarting incremental Fock matrix formation ***
    8    -565.0982617241332946    -3.29e-06  3.11e-05  7.46e-04  1.22e-04     0.2
    9    -565.0982609546499589     7.69e-07  1.78e-05  4.49e-04  2.76e-04     0.2
                 **** Energy Check signals convergence ****

               *****************************************************
               *                     SUCCESS                       *
               *           SCF CONVERGED AFTER   9 CYCLES          *
               *****************************************************

             **** ENERGY FILE WAS UPDATED (sp.en.tmp) ****

----------------
TOTAL SCF ENERGY
----------------

Total Energy       :       -565.09826095464996 Eh          -15377.10544 eV

Components:
Nuclear Repulsion  :        419.56397699118713 Eh           11416.91624 eV
Electronic Energy  :       -984.66223794583709 Eh          -26794.02168 eV
One Electron Energy:      -1613.84676111816998 Eh          -43915.00297 eV
Two Electron Energy:        629.18452317233289 Eh           17120.98129 eV

Virial components:
Potential Energy   :      -1126.87872829489515 Eh          -30663.92912 eV
Kinetic Energy     :        561.78046734024520 Eh           15286.82368 eV
Virial Ratio       :          2.00590585434576

DFT components:
N(Alpha)           :       31.999920468303 electrons
N(Beta)            :       31.999920468303 electrons
N(Total)           :       63.999840936606 electrons
E(X)               :      -63.152779467987 Eh       
E(C)               :       -2.210030448588 Eh       
E(XC)              :      -65.362809916575 Eh       

---------------
SCF CONVERGENCE
---------------

  Last Energy change         ...   -7.6948e-07  Tolerance :   1.0000e-05
  Last MAX-Density change    ...    4.4923e-04  Tolerance :   1.0000e-03
  Last RMS-Density change    ...    1.7849e-05  Tolerance :   1.0000e-04
  Last DIIS Error            ...    1.1021e-03  Tolerance :   5.0000e-04
  Last Orbital Gradient      ...    2.7565e-04  Tolerance :   1.0000e-04
  Last Orbital Rotation      ...    3.7652e-04  Tolerance :   1.0000e-04


----------------
ORBITAL ENERGIES
----------------

  NO   OCC          E(Eh)            E(eV) 
   0   2.0000     -24.298017      -661.1827 
   1   2.0000     -24.296963      -661.1540 
   2   2.0000     -24.296852      -661.1509 
   3   2.0000     -18.834680      -512.5177 
   4   2.0000     -18.774568      -510.8820 
   5   2.0000     -10.134218      -275.7661 
   6   2.0000     -10.039212      -273.1809 
   7   2.0000      -9.964209      -271.1399 
   8   2.0000      -1.203300       -32.7434 
   9   2.0000      -1.110695       -30.2235 
  10   2.0000      -1.108865       -30.1738 
  11   2.0000      -1.043856       -28.4048 
  12   2.0000      -0.955981       -26.0136 
  13   2.0000      -0.713085       -19.4040 
  14   2.0000      -0.640091       -17.4178 
  15   2.0000      -0.568632       -15.4733 
  16   2.0000      -0.536896       -14.6097 
  17   2.0000      -0.536599       -14.6016 
  18   2.0000      -0.520974       -14.1764 
  19   2.0000      -0.462273       -12.5791 
  20   2.0000      -0.442170       -12.0321 
  21   2.0000      -0.419890       -11.4258 
  22   2.0000      -0.406862       -11.0713 
  23   2.0000      -0.406109       -11.0508 
  24   2.0000      -0.386477       -10.5166 
  25   2.0000      -0.371600       -10.1118 
  26   2.0000      -0.363583        -9.8936 
  27   2.0000      -0.360945        -9.8218 
  28   2.0000      -0.346151        -9.4192 
  29   2.0000      -0.329299        -8.9607 
  30   2.0000      -0.291765        -7.9393 
  31   2.0000      -0.255528        -6.9533 
  32   0.0000      -0.061682        -1.6784 
  33   0.0000       0.040231         1.0947 
  34   0.0000       0.055849         1.5197 
  35   0.0000       0.085048         2.3143 
  36   0.0000       0.095702         2.6042 
  37   0.0000       0.115352         3.1389 
  38   0.0000       0.159726         4.3464 
  39   0.0000       0.165661         4.5079 
  40   0.0000       0.178809         4.8656 
  41   0.0000       0.236347         6.4313 
  42   0.0000       0.306940         8.3523 
*Only the first 10 virtual orbitals were printed.

                    ********************************
                    * MULLIKEN POPULATION ANALYSIS *
                    ********************************

-----------------------
MULLIKEN ATOMIC CHARGES
-----------------------
   0 C :   -0.118065
   1 O :   -0.229722
   2 C :    0.050914
   3 O :   -0.157535
   4 C :    0.433023
   5 F :   -0.114784
   6 F :   -0.131590
   7 F :   -0.131630
   8 H :    0.136630
   9 H :    0.131418
  10 H :    0.131342
Sum of atomic charges:   -0.0000000

--------------------------------
MULLIKEN REDUCED ORBITAL CHARGES
--------------------------------
  0 C s       :     3.133461  s :     3.133461
      pz      :     1.115100  p :     2.933465
      px      :     0.729804
      py      :     1.088561
      dz2     :     0.008626  d :     0.051139
      dxz     :     0.009793
      dyz     :     0.006953
      dx2y2   :     0.014069
      dxy     :     0.011697

  1 O s       :     3.734620  s :     3.734620
      pz      :     1.700420  p :     4.477744
      px      :     1.239587
      py      :     1.537737
      dz2     :     0.002258  d :     0.017358
      dxz     :     0.002139
      dyz     :     0.002698
      dx2y2   :     0.004577
      dxy     :     0.005687

  2 C s       :     3.072521  s :     3.072521
      pz      :     0.875545  p :     2.742579
      px      :     0.976296
      py      :     0.890738
      dz2     :     0.007078  d :     0.133987
      dxz     :     0.005726
      dyz     :     0.030660
      dx2y2   :     0.038537
      dxy     :     0.051984

  3 O s       :     3.735498  s :     3.735498
      pz      :     1.356625  p :     4.402794
      px      :     1.701297
      py      :     1.344871
      dz2     :     0.002099  d :     0.019243
      dxz     :     0.000425
      dyz     :     0.005737
      dx2y2   :     0.006006
      dxy     :     0.004976

  4 C s       :     2.967321  s :     2.967321
      pz      :     0.727071  p :     2.419722
      px      :     0.936814
      py      :     0.755837
      dz2     :     0.040725  d :     0.179933
      dxz     :     0.026265
      dyz     :     0.047670
      dx2y2   :     0.030129
      dxy     :     0.035144

  5 F s       :     3.886779  s :     3.886779
      pz      :     1.881655  p :     5.219603
      px      :     1.704129
      py      :     1.633820
      dz2     :     0.001163  d :     0.008402
      dxz     :     0.000743
      dyz     :     0.001144
      dx2y2   :     0.002009
      dxy     :     0.003343

  6 F s       :     3.893454  s :     3.893454
      pz      :     1.608309  p :     5.230029
      px      :     1.875801
      py      :     1.745920
      dz2     :     0.002198  d :     0.008107
      dxz     :     0.001402
      dyz     :     0.002915
      dx2y2   :     0.000771
      dxy     :     0.000821

  7 F s       :     3.893468  s :     3.893468
      pz      :     1.607863  p :     5.230056
      px      :     1.875805
      py      :     1.746388
      dz2     :     0.002203  d :     0.008107
      dxz     :     0.001404
      dyz     :     0.002913
      dx2y2   :     0.000768
      dxy     :     0.000819

  8 H s       :     0.863370  s :     0.863370

  9 H s       :     0.868582  s :     0.868582

 10 H s       :     0.868658  s :     0.868658


------------------------
MULLIKEN OVERLAP CHARGES
------------------------
B(  0-C ,  1-O ) :   0.5381 B(  0-C ,  2-C ) :  -0.0623 B(  0-C ,  8-H ) :   0.7667 
B(  0-C ,  9-H ) :   0.7714 B(  0-C , 10-H ) :   0.7726 B(  1-O ,  2-C ) :   0.6576 
B(  1-O ,  3-O ) :  -0.1558 B(  1-O ,  4-C ) :  -0.1314 B(  1-O ,  9-H ) :  -0.0554 
B(  1-O , 10-H ) :  -0.0551 B(  2-C ,  3-O ) :   1.3464 B(  2-C ,  4-C ) :   0.3907 
B(  2-C ,  5-F ) :  -0.1170 B(  2-C ,  6-F ) :  -0.0992 B(  2-C ,  7-F ) :  -0.0990 
B(  3-O ,  4-C ) :  -0.1120 B(  4-C ,  5-F ) :   0.7864 B(  4-C ,  6-F ) :   0.7225 
B(  4-C ,  7-F ) :   0.7223 B(  5-F ,  6-F ) :  -0.0946 B(  5-F ,  7-F ) :  -0.0946 
B(  6-F ,  7-F ) :  -0.0956 B(  9-H , 10-H ) :  -0.0590 


                     *******************************
                     * LOEWDIN POPULATION ANALYSIS *
                     *******************************

----------------------
LOEWDIN ATOMIC CHARGES
----------------------
   0 C :   -0.198669
   1 O :   -0.045099
   2 C :   -0.022044
   3 O :   -0.109804
   4 C :    0.086097
   5 F :   -0.019906
   6 F :   -0.035890
   7 F :   -0.035913
   8 H :    0.128753
   9 H :    0.126237
  10 H :    0.126239

-------------------------------
LOEWDIN REDUCED ORBITAL CHARGES
-------------------------------
  0 C s       :     2.966321  s :     2.966321
      pz      :     1.159416  p :     3.119796
      px      :     0.812318
      py      :     1.148062
      dz2     :     0.019277  d :     0.112551
      dxz     :     0.020842
      dyz     :     0.017004
      dx2y2   :     0.030013
      dxy     :     0.025415

  1 O s       :     3.442293  s :     3.442293
      pz      :     1.677183  p :     4.567995
      px      :     1.298079
      py      :     1.592733
      dz2     :     0.004643  d :     0.034811
      dxz     :     0.004065
      dyz     :     0.003269
      dx2y2   :     0.009890
      dxy     :     0.012944

  2 C s       :     2.858344  s :     2.858344
      pz      :     0.856452  p :     2.856311
      px      :     0.989082
      py      :     1.010778
      dz2     :     0.018158  d :     0.307389
      dxz     :     0.010068
      dyz     :     0.059534
      dx2y2   :     0.095507
      dxy     :     0.124122

  3 O s       :     3.541846  s :     3.541846
      pz      :     1.351396  p :     4.534239
      px      :     1.701949
      py      :     1.480894
      dz2     :     0.004667  d :     0.033719
      dxz     :     0.000538
      dyz     :     0.007385
      dx2y2   :     0.012185
      dxy     :     0.008944

  4 C s       :     2.879824  s :     2.879824
      pz      :     0.815985  p :     2.650254
      px      :     0.998125
      py      :     0.836144
      dz2     :     0.089617  d :     0.383825
      dxz     :     0.046198
      dyz     :     0.105326
      dx2y2   :     0.064931
      dxy     :     0.077753

  5 F s       :     3.727002  s :     3.727002
      pz      :     1.878986  p :     5.279105
      px      :     1.726793
      py      :     1.673325
      dz2     :     0.002256  d :     0.013799
      dxz     :     0.000885
      dyz     :     0.001439
      dx2y2   :     0.002738
      dxy     :     0.006481

  6 F s       :     3.734159  s :     3.734159
      pz      :     1.650060  p :     5.288319
      px      :     1.872568
      py      :     1.765691
      dz2     :     0.003451  d :     0.013412
      dxz     :     0.002141
      dyz     :     0.005501
      dx2y2   :     0.001106
      dxy     :     0.001212

  7 F s       :     3.734174  s :     3.734174
      pz      :     1.649674  p :     5.288328
      px      :     1.872561
      py      :     1.766093
      dz2     :     0.003461  d :     0.013411
      dxz     :     0.002145
      dyz     :     0.005495
      dx2y2   :     0.001102
      dxy     :     0.001208

  8 H s       :     0.871247  s :     0.871247

  9 H s       :     0.873763  s :     0.873763

 10 H s       :     0.873761  s :     0.873761


---------------------------------
LOEWDIN BOND ORDERS (THRESH 0.050000)
---------------------------------
B(  0-C ,  1-O ) :   1.0951 B(  0-C ,  2-C ) :   0.0812 B(  0-C ,  8-H ) :   0.9512 
B(  0-C ,  9-H ) :   0.9446 B(  0-C , 10-H ) :   0.9449 B(  1-O ,  2-C ) :   1.4482 
B(  1-O ,  3-O ) :   0.2243 B(  1-O ,  4-C ) :   0.0771 B(  2-C ,  3-O ) :   2.2777 
B(  2-C ,  4-C ) :   0.9331 B(  2-C ,  5-F ) :   0.0673 B(  2-C ,  6-F ) :   0.0680 
B(  2-C ,  7-F ) :   0.0680 B(  3-O ,  4-C ) :   0.1074 B(  4-C ,  5-F ) :   1.3671 
B(  4-C ,  6-F ) :   1.3423 B(  4-C ,  7-F ) :   1.3423 B(  5-F ,  6-F ) :   0.0800 
B(  5-F ,  7-F ) :   0.0800 B(  6-F ,  7-F ) :   0.0808 

------------------------------------------
LOEWDIN REDUCED ORBITAL POPULATIONS PER MO
-------------------------------------------
THRESHOLD FOR PRINTING IS 0.1%%
                      0         1         2         3         4         5   
                 -24.29802 -24.29696 -24.29685 -18.83468 -18.77457 -10.13422
                   2.00000   2.00000   2.00000   2.00000   2.00000   2.00000
                  --------  --------  --------  --------  --------  --------
 1 O  s               0.0       0.0       0.0      99.9       0.0       0.0
 3 O  s               0.0       0.0       0.0       0.0      99.9       0.0
 4 C  s               0.0       0.0       0.0       0.0       0.0      99.5
 5 F  s              99.9       0.1       0.0       0.0       0.0       0.0
 6 F  s               0.1      56.3      43.6       0.0       0.0       0.0
 7 F  s               0.1      43.6      56.3       0.0       0.0       0.0

                      6         7         8         9        10        11   
                 -10.03921  -9.96421  -1.20330  -1.11069  -1.10887  -1.04386
                   2.00000   2.00000   2.00000   2.00000   2.00000   2.00000
                  --------  --------  --------  --------  --------  --------
 0 C  s               0.0      99.7       0.0       0.0       0.0       4.4
 0 C  px              0.0       0.0       0.0       0.0       0.0       5.4
 0 C  dz2             0.0       0.0       0.0       0.0       0.0       0.1
 0 C  dx2y2           0.0       0.0       0.0       0.0       0.0       0.3
 1 O  s               0.0       0.0       0.1       0.1       0.0      40.3
 1 O  px              0.1       0.1       0.0       0.0       0.0       0.0
 1 O  py              0.1       0.0       0.0       0.0       0.0       3.4
 2 C  s              99.3       0.0       1.2       0.0       0.0      19.2
 2 C  pz              0.0       0.0       0.0       0.0       0.1       0.0
 2 C  px              0.0       0.0       1.7       0.0       0.0       4.8
 2 C  py              0.0       0.0       0.2       0.3       0.0       0.3
 2 C  dz2             0.0       0.0       0.0       0.0       0.0       0.7
 2 C  dx2y2           0.0       0.0       0.0       0.0       0.0       0.4
 2 C  dxy             0.0       0.0       0.0       0.0       0.0       0.2
 3 O  s               0.0       0.0       0.1       0.0       0.0      12.0
 3 O  py              0.3       0.0       0.0       0.0       0.0       2.9
 4 C  s               0.0       0.0      21.8       0.0       0.0       0.3
 4 C  pz              0.0       0.0       0.0       0.0      18.0       0.0
 4 C  px              0.1       0.0       3.1       1.8       0.0       2.4
 4 C  py              0.0       0.0       0.3      16.6       0.0       0.2
 4 C  dz2             0.0       0.0       0.1       1.1       0.0       0.0
 4 C  dxz             0.0       0.0       0.0       0.0       0.3       0.0
 4 C  dyz             0.0       0.0       0.0       0.0       2.1       0.0
 4 C  dx2y2           0.0       0.0       0.2       0.0       0.0       0.0
 4 C  dxy             0.0       0.0       0.1       1.3       0.0       0.0
 5 F  s               0.0       0.0      22.4      50.2       0.0       0.0
 5 F  pz              0.0       0.0       0.0       0.0       0.1       0.0
 5 F  px              0.0       0.0       0.7       0.5       0.0       0.0
 5 F  py              0.0       0.0       1.5       0.6       0.0       0.0
 6 F  s               0.0       0.0      21.0      13.4      38.6       0.3
 6 F  pz              0.0       0.0       1.4       0.3       0.4       0.0
 6 F  py              0.0       0.0       0.6       0.0       0.4       0.0
 7 F  s               0.0       0.0      21.0      13.1      38.9       0.3
 7 F  pz              0.0       0.0       1.4       0.3       0.4       0.0
 7 F  py              0.0       0.0       0.6       0.0       0.4       0.0
 8 H  s               0.0       0.1       0.0       0.0       0.0       0.5
 9 H  s               0.0       0.1       0.0       0.0       0.0       0.6
10 H  s               0.0       0.1       0.0       0.0       0.0       0.6

                     12        13        14        15        16        17   
                  -0.95598  -0.71308  -0.64009  -0.56863  -0.53690  -0.53660
                   2.00000   2.00000   2.00000   2.00000   2.00000   2.00000
                  --------  --------  --------  --------  --------  --------
 0 C  s               2.1      20.4      11.4       5.6       1.5       0.0
 0 C  pz              0.0       0.0       0.0       0.0       0.0       0.1
 0 C  px              1.6       0.4       0.9       4.5       3.0       0.0
 0 C  py              0.2       0.1       0.1       0.1       1.5       0.0
 0 C  dx2y2           0.2       0.0       0.0       0.2       0.1       0.0
 1 O  s              16.1       0.0       1.1       1.8       1.3       0.0
 1 O  pz              0.0       0.0       0.0       0.0       0.0       0.6
 1 O  px              0.3      24.9       3.1       1.2       2.6       0.0
 1 O  py              0.3       1.6       0.8       0.1       2.3       0.0
 1 O  dx2y2           0.0       0.1       0.1       0.0       0.0       0.0
 1 O  dxy             0.0       0.2       0.0       0.0       0.0       0.0
 2 C  s               4.6       7.3       0.4       2.8       0.0       0.0
 2 C  pz              0.0       0.0       0.0       0.0       0.0       2.8
 2 C  px              0.1       3.5       9.6       6.0       2.1       0.0
 2 C  py             25.8       7.4       0.1       0.7       0.7       0.0
 2 C  dx2y2           0.6       0.0       0.3       0.1       0.1       0.0
 2 C  dxy             1.2       0.0       0.2       0.0       0.1       0.0
 3 O  s              40.5       1.6       0.3       1.0       0.1       0.0
 3 O  pz              0.0       0.0       0.0       0.0       0.0       0.5
 3 O  px              0.5       0.2       0.7       1.0       1.1       0.0
 3 O  py              4.2       0.4       0.0       0.3       0.0       0.0
 4 C  s               0.1       4.2      13.3       1.2       0.0       0.0
 4 C  pz              0.0       0.0       0.0       0.0       0.0      18.9
 4 C  px              0.3       6.8       2.6      17.9       0.1       0.0
 4 C  py              0.2       0.2       0.6       1.8      16.1       0.0
 4 C  dx2y2           0.0       0.1       0.0       0.0       0.0       0.0
 5 F  s               0.3       0.6       5.1       1.8       4.4       0.0
 5 F  pz              0.0       0.0       0.0       0.0       0.0       8.9
 5 F  px              0.0       0.8       6.4       0.0      18.5       0.0
 5 F  py              0.0       0.2       5.2      13.5       8.7       0.0
 6 F  s               0.0       1.3       3.9       1.6       1.5       4.6
 6 F  pz              0.0       0.6       5.4       9.0      13.5      10.1
 6 F  px              0.0       0.7       0.9       2.4       0.9       1.7
 6 F  py              0.0       0.4       3.4       1.8       0.1      17.3
 7 F  s               0.0       1.3       3.9       1.6       1.5       4.6
 7 F  pz              0.0       0.6       5.5       9.0      13.3      10.3
 7 F  px              0.0       0.7       0.9       2.4       0.8       1.7
 7 F  py              0.0       0.4       3.3       1.8       0.1      17.2
 8 H  s               0.3       4.8       3.9       2.7       0.4       0.0
 9 H  s               0.1       4.0       3.0       2.7       1.6       0.0
10 H  s               0.2       4.0       3.0       2.7       1.6       0.0

                     18        19        20        21        22        23   
                  -0.52097  -0.46227  -0.44217  -0.41989  -0.40686  -0.40611
                   2.00000   2.00000   2.00000   2.00000   2.00000   2.00000
                  --------  --------  --------  --------  --------  --------
 0 C  s               2.3       0.0       0.5       0.0       0.0       0.0
 0 C  pz              0.0      24.9       0.0       0.0       0.0       2.5
 0 C  px              7.2       0.0      11.5       1.4       0.0       0.0
 0 C  py              8.6       0.0       9.4      11.9       1.0       0.0
 0 C  dz2             0.2       0.0       0.0       0.1       0.0       0.0
 0 C  dyz             0.0       0.1       0.0       0.0       0.0       0.0
 0 C  dx2y2           0.2       0.0       0.3       0.0       0.0       0.0
 0 C  dxy             0.2       0.0       0.0       0.0       0.0       0.0
 1 O  s               3.6       0.0       2.1       0.0       0.0       0.0
 1 O  pz              0.0      32.4       0.0       0.0       0.0       0.1
 1 O  px              7.2       0.0      17.2       0.2       0.0       0.0
 1 O  py             18.0       0.0      12.6       0.8       0.0       0.0
 1 O  dyz             0.0       0.1       0.0       0.0       0.0       0.0
 1 O  dx2y2           0.1       0.0       0.0       0.0       0.0       0.0
 1 O  dxy             0.0       0.0       0.1       0.1       0.0       0.0
 2 C  s               0.9       0.0       0.5       4.1       0.0       0.0
 2 C  pz              0.0      17.2       0.0       0.0       0.0       0.4
 2 C  px              6.8       0.0       0.2       0.4       0.0       0.0
 2 C  py              1.5       0.0       2.6       3.8       0.2       0.0
 2 C  dxz             0.0       0.2       0.0       0.0       0.0       0.0
 2 C  dx2y2           0.0       0.0       0.9       0.1       0.0       0.0
 2 C  dxy             0.1       0.0       0.0       0.0       0.0       0.0
 3 O  s               0.9       0.0       8.5      10.7       0.0       0.0
 3 O  pz              0.0       7.0       0.0       0.0       0.0       0.0
 3 O  px              2.0       0.0       0.2       6.8       0.1       0.0
 3 O  py              1.5       0.0      15.5      30.3       0.2       0.0
 3 O  dyz             0.0       0.1       0.0       0.0       0.0       0.0
 3 O  dx2y2           0.0       0.0       0.1       0.2       0.0       0.0
 3 O  dxy             0.0       0.0       0.0       0.1       0.0       0.0
 4 C  s               0.2       0.0       0.2       0.2       0.0       0.0
 4 C  pz              0.0       0.4       0.0       0.0       0.0       1.2
 4 C  px              4.9       0.0       0.8       0.6       0.1       0.0
 4 C  py              1.7       0.0       0.4       0.0       1.3       0.0
 4 C  dz2             0.0       0.0       0.1       0.2       2.0       0.0
 4 C  dxz             0.0       0.3       0.0       0.0       0.0       1.0
 4 C  dyz             0.0       0.0       0.0       0.0       0.0       1.9
 4 C  dx2y2           0.1       0.0       0.1       0.1       1.0       0.0
 4 C  dxy             0.1       0.0       0.0       0.3       0.0       0.0
 5 F  s               1.4       0.0       0.0       0.0       0.0       0.0
 5 F  pz              0.0       0.8       0.0       0.0       0.0      39.7
 5 F  px              1.3       0.0       0.3       3.3      21.7       0.0
 5 F  py             10.7       0.0       3.0       0.4       0.5       0.0
 6 F  s               0.1       0.0       0.0       0.0       0.0       0.0
 6 F  pz              1.2       0.6       0.0       0.6       5.8       4.5
 6 F  px              3.1       0.6       1.0       6.1       0.3      20.3
 6 F  py              0.1       0.8       0.3       1.1      29.4       1.0
 7 F  s               0.1       0.0       0.0       0.0       0.0       0.0
 7 F  pz              1.2       0.7       0.0       0.6       5.8       4.4
 7 F  px              3.1       0.6       1.0       6.0       0.3      20.3
 7 F  py              0.1       0.7       0.3       1.1      29.4       1.0
 8 H  s               0.1       0.0       9.8       6.3       0.4       0.0
 9 H  s               4.5       6.0       0.1       1.0       0.1       0.8
10 H  s               4.3       6.2       0.1       0.9       0.1       0.8

                     24        25        26        27        28        29   
                  -0.38648  -0.37160  -0.36358  -0.36095  -0.34615  -0.32930
                   2.00000   2.00000   2.00000   2.00000   2.00000   2.00000
                  --------  --------  --------  --------  --------  --------
 0 C  s               0.0       0.0       0.0       0.0       0.0       0.3
 0 C  pz             20.9       0.0       0.0       4.1       0.0       0.0
 0 C  px              0.0       0.1       0.8       0.0       0.0       2.6
 0 C  py              0.0       4.6      11.4       0.0       0.0       8.3
 0 C  dz2             0.0       0.1       0.1       0.0       0.0       0.2
 0 C  dyz             0.2       0.0       0.0       0.1       0.0       0.0
 0 C  dxy             0.0       0.1       0.3       0.0       0.0       0.4
 1 O  s               0.0       0.4       0.4       0.0       0.0       4.6
 1 O  pz              0.2       0.0       0.0       1.0       0.0       0.0
 1 O  px              0.0       0.0       0.1       0.0       0.0       7.5
 1 O  py              0.0       0.2       3.9       0.0       0.0      28.1
 1 O  dxz             0.1       0.0       0.0       0.0       0.0       0.0
 2 C  s               0.0       0.2       0.3       0.0       0.0       1.3
 2 C  pz             15.9       0.0       0.0       6.1       0.1       0.0
 2 C  px              0.0       4.9       6.7       0.0       0.0       1.6
 2 C  py              0.0       0.7       0.3       0.0       0.0       5.2
 2 C  dyz             0.2       0.0       0.0       0.2       0.0       0.0
 2 C  dx2y2           0.0       0.0       0.0       0.0       0.0       1.0
 2 C  dxy             0.0       0.2       0.0       0.0       0.0       0.0
 3 O  s               0.0       0.2       0.0       0.0       0.0       1.2
 3 O  pz             17.2       0.0       0.0      13.0       0.1       0.0
 3 O  px              0.0       4.7       3.9       0.0       0.0       0.2
 3 O  py              0.0       3.9       0.3       0.0       0.0      10.0
 3 O  dyz             0.1       0.0       0.0       0.1       0.0       0.0
 4 C  s               0.0       0.2       0.3       0.0       0.0       0.8
 4 C  pz              1.8       0.0       0.0       0.5       0.0       0.0
 4 C  px              0.0       0.8       0.5       0.0       0.0       2.5
 4 C  py              0.0       0.9       0.6       0.0       0.0       0.2
 4 C  dz2             0.0       0.0       0.5       0.0       0.0       0.3
 4 C  dxz             0.4       0.0       0.0       0.3       0.0       0.0
 4 C  dyz             0.9       0.0       0.0       0.4       0.0       0.0
 4 C  dx2y2           0.0       0.1       0.9       0.0       0.0       0.4
 4 C  dxy             0.0       1.7       0.0       0.0       0.0       0.1
 5 F  pz              5.4       0.0       0.0       5.3      33.7       0.0
 5 F  px              0.0       0.2      26.5       0.0       0.0       5.7
 5 F  py              0.0      15.0      22.3       0.0       0.0       1.8
 6 F  pz              8.6       0.3       0.3      12.0       7.8       0.0
 6 F  px              2.5      25.2       0.0      19.5       3.0       1.7
 6 F  py              0.0       2.4       3.8       1.4      22.2       1.5
 7 F  pz              8.6       0.3       0.1      12.1       7.8       0.0
 7 F  px              2.4      25.6       0.0      19.3       3.0       1.7
 7 F  py              0.0       2.4       4.0       1.2      22.3       1.5
 8 H  s               0.0       2.8       7.9       0.0       0.0       3.7
 9 H  s               6.9       0.8       1.7       1.6       0.0       2.7
10 H  s               7.3       0.7       1.6       1.6       0.0       2.5

                     30        31        32        33        34        35   
                  -0.29177  -0.25553  -0.06168   0.04023   0.05585   0.08505
                   2.00000   2.00000   0.00000   0.00000   0.00000   0.00000
                  --------  --------  --------  --------  --------  --------
 0 C  s               0.0       0.1       0.0      21.8       7.7       0.1
 0 C  pz              5.4       0.0       0.1       0.0       0.0       0.0
 0 C  px              0.0       0.9       0.0       8.6      36.0       2.0
 0 C  py              0.0       0.1       0.0       0.6       1.2      23.9
 0 C  dz2             0.0       0.0       0.0       0.2       1.6       0.8
 0 C  dxz             0.8       0.0       0.3       0.0       0.0       0.0
 0 C  dyz             0.4       0.0       0.2       0.0       0.0       0.0
 0 C  dx2y2           0.0       0.1       0.0       0.4       3.7       0.4
 0 C  dxy             0.0       0.0       0.0       0.0       0.3       0.6
 1 O  s               0.0       0.3       0.0       1.3      12.6       0.1
 1 O  pz             49.6       0.0      10.9       0.0       0.0       0.0
 1 O  px              0.0       0.3       0.0       0.4       6.8       0.6
 1 O  py              0.0       7.4       0.0       0.1       1.2       0.0
 1 O  dz2             0.0       0.0       0.0       0.0       0.4       0.0
 1 O  dxz             0.0       0.0       0.2       0.0       0.0       0.0
 1 O  dyz             0.0       0.0       0.2       0.0       0.0       0.0
 1 O  dx2y2           0.0       0.0       0.0       0.0       0.8       0.0
 1 O  dxy             0.0       0.0       0.0       0.0       0.0       0.5
 2 C  s               0.0       0.5       0.0       2.8       1.1       2.2
 2 C  pz              0.2       0.0      42.4       0.0       0.0       0.0
 2 C  px              0.0       0.9       0.0       0.3       0.5       0.0
 2 C  py              0.0       0.5       0.0       0.5       2.4       0.3
 2 C  dz2             0.0       0.0       0.0       0.7       0.3       0.8
 2 C  dxz             0.1       0.0       0.9       0.0       0.0       0.0
 2 C  dyz             2.5       0.0       0.6       0.0       0.0       0.0
 2 C  dx2y2           0.0       1.2       0.0       0.0       1.3       0.0
 2 C  dxy             0.0       3.9       0.0       0.1       0.7       0.0
 3 O  s               0.0       0.0       0.0       0.9       0.0       0.1
 3 O  pz             29.8       0.0      27.9       0.0       0.0       0.0
 3 O  px              0.0      63.7       0.0       0.5       1.1       0.2
 3 O  py              0.0       4.3       0.0       0.2       0.0       0.1
 3 O  dyz             0.0       0.0       0.5       0.0       0.0       0.0
 4 C  s               0.0       1.9       0.0       0.2       0.8       0.5
 4 C  pz              0.0       0.0       5.8       0.0       0.0       0.0
 4 C  px              0.0       4.6       0.0       0.6       0.7       0.8
 4 C  py              0.0       0.6       0.0       0.1       8.5       0.1
 4 C  dz2             0.0       0.1       0.0       0.0       0.5       0.0
 4 C  dxz             0.0       0.0       1.0       0.0       0.0       0.0
 4 C  dyz             0.0       0.0       0.9       0.0       0.0       0.0
 4 C  dx2y2           0.0       0.2       0.0       0.0       0.2       0.0
 4 C  dxy             0.0       0.0       0.0       0.0       0.9       0.0
 5 F  s               0.0       0.0       0.0       0.0       0.7       0.0
 5 F  pz              0.0       0.0       0.9       0.0       0.0       0.0
 5 F  px              0.0       0.4       0.0       0.0       2.5       0.0
 5 F  py              0.0       0.1       0.0       0.0       0.2       0.0
 5 F  dxy             0.0       0.0       0.0       0.0       0.1       0.0
 6 F  s               0.0       0.0       0.4       0.0       0.2       0.0
 6 F  pz              0.0       0.0       0.1       0.0       0.6       0.0
 6 F  px              0.2       3.4       0.9       0.0       0.2       0.1
 6 F  py              0.0       0.2       1.3       0.0       0.2       0.0
 7 F  s               0.0       0.0       0.4       0.0       0.2       0.0
 7 F  pz              0.0       0.0       0.1       0.0       0.6       0.0
 7 F  px              0.2       3.4       0.9       0.0       0.2       0.1
 7 F  py              0.0       0.2       1.3       0.0       0.2       0.0
 8 H  s               0.0       0.1       0.0      17.0       1.0      49.0
 9 H  s               5.2       0.1       0.7      21.0       0.9       8.5
10 H  s               5.4       0.1       0.8      21.5       0.8       8.0

                     36        37        38        39        40        41   
                   0.09570   0.11535   0.15973   0.16566   0.17881   0.23635
                   0.00000   0.00000   0.00000   0.00000   0.00000   0.00000
                  --------  --------  --------  --------  --------  --------
 0 C  s               0.0       2.0       0.0       0.0       0.0       0.8
 0 C  pz             27.3       0.0       0.7       0.0       0.0       0.0
 0 C  px              0.0       5.4       0.0       3.7       3.6       6.0
 0 C  py              0.0       0.3       0.0       1.1       1.4       0.2
 0 C  dz2             0.0       0.1       0.0       0.5       0.5       0.1
 0 C  dyz             1.4       0.0       0.0       0.0       0.0       0.0
 0 C  dx2y2           0.0       0.8       0.0       0.5       0.4       0.0
 0 C  dxy             0.0       0.2       0.0       0.1       0.2       0.3
 1 O  s               0.0       0.3       0.0       0.3       0.4       0.9
 1 O  pz              1.1       0.0       1.6       0.0       0.0       0.0
 1 O  px              0.0       3.4       0.0       5.3       6.1       0.3
 1 O  py              0.0       0.8       0.0       0.8       2.1       2.1
 1 O  dxz             0.3       0.0       0.0       0.0       0.0       0.0
 1 O  dyz             0.0       0.0       0.2       0.0       0.0       0.0
 1 O  dx2y2           0.0       0.0       0.0       0.1       0.1       1.3
 1 O  dxy             0.0       0.0       0.0       0.1       0.4       0.0
 2 C  s               0.0       6.4       0.0      15.0      13.3      11.7
 2 C  pz              0.6       0.0      11.3       0.0       0.0       0.0
 2 C  px              0.0       0.5       0.0       0.0       3.5      29.1
 2 C  py              0.0       3.5       0.0       0.1       1.0       1.7
 2 C  dz2             0.0       1.4       0.0       3.2       5.1       0.3
 2 C  dxz             0.3       0.0       1.0       0.0       0.0       0.0
 2 C  dyz             0.1       0.0       0.0       0.0       0.0       0.0
 2 C  dx2y2           0.0       0.5       0.0       0.1       0.1       2.8
 2 C  dxy             0.0       1.4       0.0       0.0       0.0       0.3
 3 O  s               0.0       2.2       0.0       1.1       1.0       2.4
 3 O  pz              0.2       0.0       2.0       0.0       0.0       0.0
 3 O  px              0.0       1.6       0.0       0.1       0.2       4.6
 3 O  py              0.0       0.8       0.0       0.6       1.2       1.3
 3 O  dyz             0.0       0.0       0.3       0.0       0.0       0.0
 3 O  dx2y2           0.0       0.0       0.0       0.0       0.1       0.2
 3 O  dxy             0.0       0.0       0.0       0.0       0.1       0.8
 4 C  s               0.0       1.9       0.0      10.8      24.4       5.7
 4 C  pz              2.1       0.0      47.1       0.0       0.0       0.0
 4 C  px              0.0       9.7       0.0      15.6       3.6      16.0
 4 C  py              0.0      25.1       0.0       9.5       1.6       0.7
 4 C  dz2             0.0       1.3       0.0       1.0       0.1       0.7
 4 C  dxz             0.1       0.0       0.6       0.0       0.0       0.0
 4 C  dyz             0.2       0.0       4.7       0.0       0.0       0.0
 4 C  dx2y2           0.0       0.0       0.0       1.2       0.0       1.5
 4 C  dxy             0.0       4.2       0.0       0.1       0.2       1.0
 5 F  s               0.0       3.2       0.0       1.4       4.7       0.1
 5 F  pz              0.2       0.0       4.9       0.0       0.0       0.0
 5 F  px              0.0       4.2       0.0       0.4       3.4       0.6
 5 F  py              0.0       2.2       0.0       3.2       5.3       1.2
 5 F  dz2             0.0       0.1       0.0       0.0       0.1       0.0
 5 F  dxz             0.0       0.0       0.3       0.0       0.0       0.0
 5 F  dyz             0.0       0.0       0.3       0.0       0.0       0.0
 5 F  dx2y2           0.0       0.0       0.0       0.3       0.0       0.2
 5 F  dxy             0.0       0.2       0.0       0.0       0.5       0.0
 6 F  s               0.1       0.6       2.9       4.0       1.9       0.2
 6 F  pz              0.1       3.1       1.8       5.4       2.5       0.1
 6 F  px              0.0       2.0       0.6       0.3       0.0       1.4
 6 F  py              0.3       0.2       5.5       0.8       1.4       0.0
 6 F  dz2             0.0       0.2       0.0       0.2       0.0       0.0
 6 F  dxz             0.0       0.3       0.1       0.0       0.0       0.1
 6 F  dyz             0.0       0.0       0.4       0.2       0.2       0.0
 6 F  dx2y2           0.0       0.0       0.1       0.0       0.1       0.0
 7 F  s               0.1       0.6       3.0       3.9       2.0       0.2
 7 F  pz              0.1       3.0       1.8       5.3       2.5       0.1
 7 F  px              0.0       2.0       0.6       0.3       0.0       1.4
 7 F  py              0.3       0.2       5.5       0.7       1.5       0.0
 7 F  dz2             0.0       0.2       0.0       0.2       0.0       0.0
 7 F  dxz             0.0       0.3       0.1       0.0       0.0       0.1
 7 F  dyz             0.0       0.0       0.4       0.2       0.2       0.0
 7 F  dx2y2           0.0       0.0       0.1       0.0       0.1       0.0
 8 H  s               0.0       0.4       0.0       0.3       0.8       1.1
 9 H  s              32.3       1.7       0.9       0.9       1.1       0.1
10 H  s              32.6       1.5       0.9       0.8       1.0       0.2

                     42        43        44        45        46        47   
                   0.30694   0.34388   0.38667   0.38895   0.42323   0.43033
                   0.00000   0.00000   0.00000   0.00000   0.00000   0.00000
                  --------  --------  --------  --------  --------  --------
 0 C  s               0.9       0.0       0.4       5.7       0.0       0.2
 0 C  pz              0.0       0.0      34.6       2.7       9.3       0.0
 0 C  px              1.6       1.5       2.6      32.2       0.0       1.5
 0 C  py              3.2       3.8       1.1      15.0       0.0       0.6
 0 C  dz2             0.5       0.6       0.3       2.5       0.0       0.3
 0 C  dxz             0.0       0.0       0.6       0.0       0.1       0.0
 0 C  dyz             0.0       0.0       7.1       0.6       1.9       0.0
 0 C  dx2y2           0.0       0.3       0.0       0.0       0.0       0.3
 0 C  dxy             1.0       1.2       0.0       0.2       0.0       0.7
 1 O  s               2.2       2.3       0.1       1.2       0.0       0.5
 1 O  pz              0.0       0.0       5.3       0.4       0.2       0.0
 1 O  px              3.2       2.0       0.0       0.7       0.0       1.0
 1 O  py              2.9       0.3       0.4       5.0       0.0       4.9
 1 O  dz2             0.0       0.1       0.1       1.2       0.0       1.5
 1 O  dxz             0.0       0.0       0.3       0.0       0.1       0.0
 1 O  dx2y2           0.4       0.0       0.0       0.4       0.0       0.2
 1 O  dxy             1.7       0.5       0.0       0.0       0.0       1.4
 2 C  s               7.5       0.9       0.1       0.7       0.0      21.7
 2 C  pz              0.0       0.0      17.3       1.3      23.0       0.0
 2 C  px              6.7       5.8       0.2       2.6       0.0       8.9
 2 C  py              7.7      15.4       0.2       1.8       0.0      23.2
 2 C  dz2             0.4       0.0       0.0       0.1       0.0       0.2
 2 C  dxz             0.0       0.0       0.0       0.0       0.5       0.0
 2 C  dx2y2           0.2       0.2       0.0       0.1       0.0       0.9
 2 C  dxy             1.1       1.4       0.1       0.7       0.0       0.1
 3 O  s               1.0       4.2       0.0       0.1       0.0       2.1
 3 O  pz              0.0       0.0       0.8       0.1       0.3       0.0
 3 O  px              1.7       0.6       0.2       1.9       0.0       0.8
 3 O  py              1.3       0.2       0.0       0.0       0.0       0.4
 3 O  dz2             0.0       0.0       0.0       0.0       0.0       0.2
 3 O  dyz             0.0       0.0       0.0       0.0       0.2       0.0
 3 O  dx2y2           0.5       0.1       0.0       0.0       0.0       0.2
 3 O  dxy             0.1       0.1       0.0       0.2       0.0       0.0
 4 C  s              32.2      18.8       0.0       0.3       0.0       1.5
 4 C  pz              0.0       0.0       2.8       0.3      48.8       0.1
 4 C  px              4.7      12.7       0.4       5.1       0.0       3.4
 4 C  py              2.3       9.5       0.4       4.9       0.0      13.2
 4 C  dz2             0.1       0.4       0.0       0.2       0.0       0.1
 4 C  dx2y2           0.4       0.1       0.0       0.0       0.0       0.2
 5 F  s               0.1       1.5       0.0       0.1       0.0       0.4
 5 F  pz              0.0       0.0       0.1       0.0       1.7       0.0
 5 F  px              0.8       1.5       0.0       0.6       0.0       0.2
 5 F  py              2.6       0.1       0.0       0.5       0.0       2.0
 5 F  dz2             0.2       0.1       0.0       0.0       0.0       0.1
 5 F  dxy             0.9       0.0       0.0       0.3       0.0       0.4
 6 F  s               0.8       0.4       0.0       0.0       0.5       0.0
 6 F  pz              0.2       1.9       0.3       0.0       2.6       0.1
 6 F  px              0.1       0.3       0.1       0.1       0.1       1.1
 6 F  py              1.1       0.2       0.0       0.0       0.1       0.0
 6 F  dz2             0.0       0.5       0.0       0.0       0.2       0.1
 6 F  dxz             0.0       0.1       0.0       0.0       0.0       0.0
 6 F  dyz             0.4       0.3       0.0       0.0       0.3       0.0
 7 F  s               0.8       0.4       0.0       0.0       0.5       0.0
 7 F  pz              0.2       1.9       0.1       0.2       2.5       0.2
 7 F  px              0.1       0.3       0.0       0.2       0.0       1.1
 7 F  py              1.1       0.2       0.0       0.0       0.1       0.0
 7 F  dz2             0.0       0.5       0.0       0.0       0.1       0.1
 7 F  dxz             0.0       0.1       0.0       0.0       0.0       0.0
 7 F  dyz             0.4       0.3       0.0       0.0       0.4       0.0
 8 H  s               2.4       5.3       0.1       0.8       0.0       1.3
 9 H  s               0.9       0.5       8.3       8.0       3.0       1.0
10 H  s               0.9       0.5      15.3       0.8       2.7       1.4

                     48        49        50        51        52        53   
                   0.46234   0.49270   0.51956   0.56414   0.58326   0.61099
                   0.00000   0.00000   0.00000   0.00000   0.00000   0.00000
                  --------  --------  --------  --------  --------  --------
 0 C  s               2.5       0.2       0.0       3.3      12.8      28.1
 0 C  pz              0.0       0.0       5.6       0.0       0.0       0.0
 0 C  px             13.6       0.2       0.0       2.6       7.3      10.8
 0 C  py             10.9       5.1       0.0       0.7       2.8      14.1
 0 C  dz2             1.7       1.3       0.0       0.2       0.0       0.5
 0 C  dyz             0.0       0.0       1.7       0.0       0.0       0.0
 0 C  dx2y2           1.7       0.4       0.0       0.1       0.0       0.3
 0 C  dxy             0.5       0.7       0.0       0.1       0.8       0.5
 1 O  s               0.2       0.2       0.0       0.2       1.4       0.1
 1 O  pz              0.0       0.0       0.8       0.0       0.0       0.0
 1 O  px              2.9       0.9       0.0       8.5       1.3       0.2
 1 O  py              0.5       2.7       0.0       1.1       0.1       0.1
 1 O  dz2             0.0       0.3       0.0       0.1       0.1       0.1
 1 O  dyz             0.0       0.0       0.1       0.0       0.0       0.0
 1 O  dx2y2           0.6       0.0       0.0       0.0       0.2       0.0
 1 O  dxy             0.1       0.0       0.0       0.0       0.6       0.0
 2 C  s              13.1       1.1       0.0       6.6      10.8       7.3
 2 C  pz              0.0       0.0      48.0       0.0       0.0       0.0
 2 C  px              3.8       1.4       0.0       0.6       1.1       0.1
 2 C  py              0.3       9.0       0.0       5.5      28.1       0.7
 2 C  dz2             0.6       0.0       0.0       0.5       0.3       0.0
 2 C  dxz             0.0       0.0       0.6       0.0       0.0       0.0
 2 C  dx2y2           0.8       0.2       0.0       0.6       3.6       0.1
 2 C  dxy             0.0       0.5       0.0       0.2       1.4       0.0
 3 O  s               0.2       2.1       0.0       1.3       0.6       0.0
 3 O  pz              0.0       0.0       2.9       0.0       0.0       0.0
 3 O  px              4.7       0.9       0.0       0.1       0.9       0.1
 3 O  py              0.8       0.9       0.0       2.1      10.7       0.7
 3 O  dz2             0.2       0.0       0.0       0.0       2.1       0.2
 3 O  dx2y2           0.0       0.2       0.0       1.0       2.9       0.4
 3 O  dxy             0.0       0.1       0.0       0.5       1.0       0.1
 4 C  s               0.1       0.7       0.0      12.2       2.2       1.4
 4 C  pz              0.0       0.0      28.4       0.0       0.0       0.0
 4 C  px              5.5      14.6       0.0      25.1       1.0       0.5
 4 C  py             14.4      29.6       0.0       6.4       0.9       0.7
 4 C  dz2             0.3       0.1       0.0       0.4       0.0       0.0
 4 C  dyz             0.0       0.0       0.1       0.0       0.0       0.0
 4 C  dx2y2           0.3       0.5       0.0       0.1       0.3       0.0
 4 C  dxy             0.2       0.0       0.0       0.5       0.0       0.0
 5 F  s               0.1       1.2       0.0       1.5       0.1       0.3
 5 F  pz              0.0       0.0       3.7       0.0       0.0       0.0
 5 F  px              0.6       3.9       0.0       1.5       0.1       0.0
 5 F  py              0.8       0.2       0.0       1.8       0.1       0.2
 5 F  dz2             0.0       0.2       0.0       0.2       0.2       0.1
 5 F  dxy             0.0       0.3       0.0       0.0       0.0       0.0
 6 F  s               0.1       0.4       0.5       0.3       0.1       0.0
 6 F  pz              0.1       0.4       1.3       0.5       0.1       0.1
 6 F  px              1.4       0.2       1.0       2.7       0.2       0.1
 6 F  py              1.5       4.9       0.1       0.3       0.0       0.0
 6 F  dyz             0.1       0.3       0.1       0.0       0.0       0.0
 7 F  s               0.1       0.4       0.5       0.3       0.1       0.0
 7 F  pz              0.1       0.4       1.2       0.5       0.1       0.1
 7 F  px              1.4       0.3       0.9       2.6       0.2       0.0
 7 F  py              1.5       4.9       0.0       0.3       0.0       0.1
 7 F  dyz             0.1       0.2       0.2       0.0       0.0       0.0
 8 H  s              10.9       5.6       0.0       3.7       3.7       0.5
 9 H  s               0.0       0.9       0.7       1.3       0.0      16.1
10 H  s               0.1       0.9       0.9       1.3       0.0      15.2

                     54        55        56        57        58        59   
                   0.61185   0.61585   0.63983   0.79195   0.82763   0.88585
                   0.00000   0.00000   0.00000   0.00000   0.00000   0.00000
                  --------  --------  --------  --------  --------  --------
 0 C  s               0.0      15.5      18.3       7.9       1.4       0.0
 0 C  pz             53.9       0.0       0.0       0.0       0.0       0.9
 0 C  px              0.0       4.4       2.5       1.5       0.0       0.0
 0 C  py              0.0      32.0       7.7       5.2       0.4       0.0
 0 C  dz2             0.0       0.1       0.0       3.4       0.4       0.0
 0 C  dxz             1.3       0.0       0.0       0.0       0.0       0.5
 0 C  dyz             2.0       0.0       0.0       0.0       0.0       0.2
 0 C  dx2y2           0.0       0.1       1.0       1.9       0.2       0.0
[...]
 2 C  dyz            19.6       0.0       0.0       0.0       1.0       0.0
 2 C  dx2y2           0.0       5.6       0.7       1.1       0.0       4.7
 2 C  dxy             0.0       0.0       0.0       3.6       0.0       5.1
 3 O  s               0.0       1.6       0.0       1.3       0.0       0.5
 3 O  pz              0.9       0.0       0.0       0.0       0.1       0.0
 3 O  px              0.0       0.1       0.0       0.0       0.0       0.6
 3 O  py              0.0       0.8       0.0       1.0       0.0       0.3
 3 O  dz2             0.0       2.8       0.4       4.2       0.0       3.2
 3 O  dxz             6.4       0.0       0.0       0.0       0.0       0.0
 3 O  dyz            47.5       0.0       0.0       0.0       1.8       0.0
 3 O  dx2y2           0.0      12.3       0.5      15.6       0.0       0.4
 3 O  dxy             0.0       1.4       0.5       0.1       0.0      16.4
 4 C  s               0.0       0.0       1.9       0.2       0.0       2.2
 4 C  pz              0.2       0.0       0.0       0.0       0.9       0.0
 4 C  px              0.0       0.2       2.0       0.2       0.0       0.4
 4 C  py              0.0       0.3       0.1       1.1       0.0       0.1
 4 C  dz2             0.0       0.3       0.8       3.1       0.0       0.8
 4 C  dxz             0.0       0.0       0.0       0.0      12.4       0.0
 4 C  dyz             0.1       0.0       0.0       0.0       2.3       0.0
 4 C  dx2y2           0.0       0.0       3.0       1.7       0.0       0.4
 4 C  dxy             0.0       0.0       1.7       0.9       0.0       1.0
 5 F  s               0.0       0.0       0.6       0.5       0.0       0.6
 5 F  pz              0.0       0.0       0.0       0.0       0.4       0.0
 5 F  px              0.0       0.1       0.1       0.0       0.0       0.2
 5 F  py              0.0       0.0       0.4       0.0       0.0       0.2
 5 F  dz2             0.0       0.1       6.4       0.1       0.0       1.3
 5 F  dxz             2.9       0.0       0.0       0.0      12.3       0.0
 5 F  dyz             1.6       0.0       0.0       0.0      22.5       0.0
 5 F  dx2y2           0.0       2.1      18.8       4.5       0.0       1.9
 5 F  dxy             0.0       0.4       0.0       0.5       0.0       9.3
 6 F  s               0.0       0.0       0.2       0.5       0.3       0.4
 6 F  pz              0.0       0.0       0.2       0.2       0.0       0.0
 6 F  px              0.0       0.1       0.4       0.0       0.1       0.1
 6 F  py              0.0       0.0       0.0       0.1       0.1       0.2
 6 F  dz2             0.4       4.0       5.5      15.7       0.0       0.5
 6 F  dxz             0.0       0.1      11.4       0.9       6.5       1.6
 6 F  dyz             0.4       0.1       6.9       0.2       4.6       5.2
 6 F  dx2y2           0.4       0.0       0.2       3.0       7.4       0.8
 6 F  dxy             0.4       0.5       2.3       0.2       3.8       1.9
 7 F  s               0.0       0.0       0.2       0.5       0.3       0.4
 7 F  pz              0.0       0.0       0.2       0.2       0.0       0.0
 7 F  px              0.0       0.1       0.4       0.0       0.1       0.1
 7 F  py              0.0       0.0       0.0       0.1       0.1       0.2
 7 F  dz2             0.4       4.0       5.5      15.7       0.0       0.5
 7 F  dxz             0.0       0.1      11.5       0.9       6.5       1.6
 7 F  dyz             0.4       0.1       6.8       0.2       4.6       5.2
 7 F  dx2y2           0.4       0.0       0.2       3.0       7.4       0.8
 7 F  dxy             0.4       0.5       2.3       0.2       3.8       1.9

                    114       115       116       117   
                   3.55402   3.59138   3.73025   3.75982
                   0.00000   0.00000   0.00000   0.00000
                  --------  --------  --------  --------
 0 C  s               0.1       0.1       0.0       0.0
 0 C  px              0.2       0.1       0.0       0.0
 0 C  dz2             0.1       0.0       0.0       0.0
 0 C  dx2y2           0.3       0.1       0.0       0.0
 0 C  dxy             0.2       0.1       0.0       0.1
 1 O  s               0.0       0.2       0.0       0.1
 1 O  px              0.2       0.5       0.0       0.0
 1 O  py              0.4       0.2       0.0       0.0
 1 O  dz2             0.0       0.5       0.0       0.1
 1 O  dx2y2           8.1       0.0       0.0       1.6
 1 O  dxy             0.7       7.0       0.0       0.0
 2 C  s               2.4       1.0       0.0       0.2
 2 C  px              0.1       0.3       0.0       0.0
 2 C  py              4.1       0.0       0.0       0.3
 2 C  dz2             0.3       0.1       0.0       0.1
 2 C  dxz             0.0       0.0       0.1       0.0
 2 C  dx2y2           3.6       3.6       0.0       1.0
 2 C  dxy             4.0       3.9       0.0       0.5
 3 O  s               3.6       0.2       0.0       0.1
 3 O  px              0.1       0.3       0.0       0.0
 3 O  py              2.3       0.1       0.0       0.2
 3 O  dz2             6.0       0.5       0.0       0.3
 3 O  dx2y2          20.5       0.0       0.0       1.2
 3 O  dxy             4.4       8.0       0.0       0.2
 4 C  s               0.0       3.9       0.0       0.0
 4 C  pz              0.0       0.0       4.3       0.0
 4 C  px              0.1       1.0       0.0       0.4
 4 C  py              0.2       0.2       0.0       3.8
 4 C  dz2             2.7       1.0       0.0       5.1
 4 C  dxz             0.0       0.0       0.3       0.0
 4 C  dyz             0.0       0.0      10.5       0.0
 4 C  dx2y2           3.8       5.0       0.0       0.0
 4 C  dxy             1.0       0.7       0.0       5.5
 5 F  s               0.0       0.6       0.0       3.6
 5 F  pz              0.0       0.0       0.1       0.0
 5 F  px              0.1       0.6       0.0       0.8
 5 F  py              0.0       0.0       0.0       1.7
 5 F  dz2             1.2       2.3       0.0      11.9
 5 F  dxz             0.0       0.0       1.9       0.0
 5 F  dyz             0.0       0.0       1.6       0.0
 5 F  dx2y2           6.7       3.2       0.0       2.7
 5 F  dxy             1.2      13.2       0.0      31.3
 6 F  s               0.0       0.8       2.6       1.0
 6 F  pz              0.0       0.3       1.5       0.3
 6 F  px              0.0       0.2       0.1       0.0
 6 F  py              0.1       0.2       0.4       0.4
 6 F  dz2             6.2       3.1      11.6       0.7
 6 F  dxz             0.0       6.2       3.6       0.1
 6 F  dyz             3.0       7.3      19.0       8.4
 6 F  dx2y2           0.8       0.8       0.7       2.0
 6 F  dxy             0.5       1.9       1.1       0.6
 7 F  s               0.0       0.8       2.6       1.0
 7 F  pz              0.0       0.3       1.5       0.3
 7 F  px              0.0       0.2       0.1       0.0
 7 F  py              0.1       0.2       0.4       0.4
 7 F  dz2             6.2       3.2      11.7       0.7
 7 F  dxz             0.0       6.2       3.6       0.1
 7 F  dyz             3.0       7.3      18.9       8.4
 7 F  dx2y2           0.8       0.8       0.7       2.0
 7 F  dxy             0.5       1.9       1.1       0.6


                      *****************************
                      * MAYER POPULATION ANALYSIS *
                      *****************************

  NA   - Mulliken gross atomic population
  ZA   - Total nuclear charge
  QA   - Mulliken gross atomic charge
  VA   - Mayer's total valence
  BVA  - Mayer's bonded valence
  FA   - Mayer's free valence

  ATOM       NA         ZA         QA         VA         BVA        FA
  0 C      6.1181     6.0000    -0.1181     3.8654     3.8654     0.0000
  1 O      8.2297     8.0000    -0.2297     2.2889     2.2889    -0.0000
  2 C      5.9491     6.0000     0.0509     4.2495     4.2495    -0.0000
  3 O      8.1575     8.0000    -0.1575     2.3343     2.3343     0.0000
  4 C      5.5670     6.0000     0.4330     4.4383     4.4383    -0.0000
  5 F      9.1148     9.0000    -0.1148     1.2615     1.2615    -0.0000
  6 F      9.1316     9.0000    -0.1316     1.2327     1.2327    -0.0000
  7 F      9.1316     9.0000    -0.1316     1.2326     1.2326    -0.0000
  8 H      0.8634     1.0000     0.1366     0.9540     0.9540     0.0000
  9 H      0.8686     1.0000     0.1314     0.9607     0.9607     0.0000
 10 H      0.8687     1.0000     0.1313     0.9599     0.9599     0.0000

  Mayer bond orders larger than 0.100000
B(  0-C ,  1-O ) :   0.9238 B(  0-C ,  8-H ) :   0.9580 B(  0-C ,  9-H ) :   0.9502 
B(  0-C , 10-H ) :   0.9509 B(  1-O ,  2-C ) :   1.2325 B(  1-O ,  3-O ) :   0.1136 
B(  2-C ,  3-O ) :   2.0963 B(  2-C ,  4-C ) :   0.8297 B(  4-C ,  5-F ) :   1.2006 
B(  4-C ,  6-F ) :   1.1731 B(  4-C ,  7-F ) :   1.1730 

-------
TIMINGS
-------

Total SCF time: 0 days 0 hours 0 min 3 sec 

Total time                  ....       3.263 sec
Sum of individual times     ....       3.230 sec  ( 99.0%)

SCF preparation             ....       0.414 sec  ( 12.7%)
Fock matrix formation       ....       1.892 sec  ( 58.0%)
  Startup                   ....       0.007 sec  (  0.4% of F)
  Split-RI-J                ....       0.739 sec  ( 39.1% of F)
  XC integration            ....       1.066 sec  ( 56.4% of F)
    XC Preparation          ....       0.000 sec  (  0.0% of XC)
    Basis function eval.    ....       0.432 sec  ( 40.5% of XC)
    Density eval.           ....       0.199 sec  ( 18.7% of XC)
    XC-Functional eval.     ....       0.102 sec  (  9.5% of XC)
    XC-Potential eval.      ....       0.212 sec  ( 19.9% of XC)
Diagonalization             ....       0.000 sec  (  0.0%)
Density matrix formation    ....       0.028 sec  (  0.9%)
Total Energy calculation    ....       0.002 sec  (  0.0%)
Population analysis         ....       0.814 sec  ( 24.9%)
Orbital Transformation      ....       0.011 sec  (  0.3%)
Orbital Orthonormalization  ....       0.000 sec  (  0.0%)
DIIS solution               ....       0.055 sec  (  1.7%)
  MO trafo                  ....       0.000 sec  (  0.0 % of DIIS)
  Orb grad                  ....       0.000 sec  (  0.0 % of DIIS)
  Energy W gradient         ....       0.000 sec  (  0.0 % of DIIS)
  DIIS error                ....       0.002 sec  (  3.3 % of DIIS)
  DIIS work                 ....       0.048 sec  ( 85.8 % of DIIS)
  Form Q                    ....       0.000 sec  (  0.0 % of DIIS)
  Form QpQm                 ....       0.000 sec  (  0.0 % of DIIS)
  Exp/Cayley                ....       0.000 sec  (  0.0 % of DIIS)
  Orb update                ....       0.000 sec  (  0.0 % of DIIS)
  Wake-sleep                ....       0.001 sec  (  1.7 % of DIIS)
SOSCF solution              ....       0.014 sec  (  0.4%)
  MO trafo                  ....       0.008 sec  ( 59.8 % of SOSCF)
  Orb grad                  ....       0.000 sec  (  1.0 % of SOSCF)
  Rot update                ....       0.001 sec  (  9.9 % of SOSCF)
  Step                      ....       0.004 sec  ( 29.0 % of SOSCF)
Finished LeanSCF after   4.1 sec

Maximum memory used throughout the entire LEANSCF-calculation: 10.3 MB


-------------------------------------------------------------------------------
                          DFT DISPERSION CORRECTION                            
                                                                               
                                DFTD4 V3.4.0                                   
-------------------------------------------------------------------------------
The PBE functional is recognized
Active option DFTDOPT                   ...         5   

-------------------------   ----------------
Dispersion correction           -0.007872032
-------------------------   ----------------

------------------   -----------------
gCP correction             0.068259581
------------------   -----------------

-------------------------   --------------------
FINAL SINGLE POINT ENERGY      -565.037873406142
-------------------------   --------------------


------------------------------------------------------------------------------
                              ORCA PROPERTY CALCULATIONS
------------------------------------------------------------------------------

GBWName                                 ... sp.gbw
Number of atoms                         ...     11
Number of basis functions               ...    118
Max core memory                         ...   1024 MB

Electric properties:
Dipole moment                           ... YES
Quadrupole moment                       ...  NO
Static polarizability (Dipole/Dipole)   ...  NO
Static polarizability (Dipole/Quad.)    ...  NO
Static polarizability (Quad./Quad.)     ...  NO
Static polarizability (Velocity)        ...  NO

Atomic electric properties:
Dipole moment                           ...  NO
Quadrupole moment                       ...  NO
Static polarizability                   ...  NO

Choice of electric origin               ... Center of mass
Position of electric origin             ...    -0.000024    -0.000003     0.000000

General magnetic properties:
Magnetizability                         ...  NO

EPR properties:
g-Tensor (aka g-matrix)                 ...  NO
Zero-Field splitting spin-orbit         ...  NO
Zero-field splitting spin-spin          ...  NO
Hyperfine couplings                     ...  NO (   0 nuclei)
Quadrupole couplings                    ...  NO (   0 nuclei)
Contact density                         ...  NO (   0 nuclei)

NMR properties:
Chemical shifts                         ...  NO (   0 nuclei)
Spin-rotation constants                 ...  NO (   0 nuclei)
Spin-spin couplings                     ...  NO (   0 nuclei,    0 pairs)

Choice of magnetic origin               ... GIAO
Position of magnetic origin             ...     0.000000     0.000000     0.000000

Properties with geometric perturbations:
SCF Hessian                             ...  NO
IR spectrum                             ...  NO
VCD spectrum                            ...  NO
X-ray spectroscopy properties:
SCF XES/XAS/RIXS spectra                ...  NO


-------------
DIPOLE MOMENT
-------------

Method             : SCF
Type of density    : Electron Density
Multiplicity       :   1
Irrep              :   0
Energy             :  -565.0982609546499589 Eh
Relativity type    : 
Basis              : AO
                                X                 Y                 Z
Electronic contribution:     11.555264612      -0.160289906       0.000088577
Nuclear contribution   :    -12.596394552      -0.310059633       0.000190095
                        -----------------------------------------
Total Dipole Moment    :     -1.041129939      -0.470349540       0.000278673
                        -----------------------------------------
Magnitude (a.u.)       :      1.142444886
Magnitude (Debye)      :      2.903864126



--------------------
Rotational spectrum 
--------------------
 
Rotational constants in cm-1:             0.120621             0.050432             0.044065 
Rotational constants in MHz :          3616.126281          1511.926778          1321.033990 

Dipole components along the rotational axes: 
x,y,z [a.u.] :     1.041131    -0.470346     0.000279 
x,y,z [Debye]:     2.646346    -1.195525     0.000708 

 

Dipole moment calculation done in   0.2 sec 

Maximum memory used throughout the entire PROP-calculation: 6.8 MB

--------------------------------
SUGGESTED CITATIONS FOR THIS RUN
--------------------------------

Below you find a list of papers that are relevant to this ORCA run
We neither can nor want to force you to cite these papers, but we appreciate if you do
You receive ORCA, which is the product of decades of hard work by many enthusiastic individuals, for free
The only thing we kindly ask in return is that you cite our papers,
We deeply appreciate it, if you show your appreciation for ORCA by not just citing the generic ORCA reference.

Please note that relegating all ORCA citations to the supporting information does *not* help us.
SI sections are not indexed - citations you put there will not count into any citation statistics
But we need these citations in order to attract the funding resources that allow us to do what we are doing

Therefore, if you are a happy ORCA user, please consider citing a few of the papers listed below in the main body of your paper

In addition to the list printed below, the program has created the file sp.bibtex that contains the list in bibtex format
You can import this file easily into all common literature databanks and citation aid programs


List of essential papers. We consider these as the minimum necessary citations

  1. Neese,F.
     Software update: the ORCA program system, version 5.0
     WIRES Comput. Molec. Sci., 2022 12(1)e1606
     doi.org/10.1002/wcms.1606

List of papers to cite with high priority. The work reported in these papers was absolutely
necessary for this run to complete.
Our perspective: the developers of density functionals and basis sets usually get cited in chemistry papers
Good! But without the algorithms to do something with them, the functionals or basis sets would not do anything.
Hence, in our opinion, the algorithm design and method developments papers are equally worthy of getting cited

  1. Neese,F.
     An improvement of the resolution of the identity approximation for the formation of the Coulomb matrix
     J. Comp. Chem., 2003 24(14)1740-1747
     doi.org/10.1002/jcc.10318
  2. Neese,F.
     The SHARK Integral Generation and Digestion System
     J. Comp. Chem., 2022  1-16
     doi.org/10.1002/jcc.26942
  3. Caldeweyher,E.; Bannwarth,C.; Grimme,S.
     Extension of the D3 dispersion coefficient model
     J. Chem. Phys., 2017 147 034112
     doi.org/10.1063/1.4993215
  4. Caldeweyher,E.; Ehlert,S.; Hansen,A.; Neugebauer,H.; Spicher,S.; Bannwarth,C.; Grimme,S.
     A generally applicable atomic-charge dependent London dispersion correction
     J. Chem. Phys., 2019 150 154122
     doi.org/10.1063/1.5090222
  5. Caldeweyher,E.; Mewes,J.; Ehlert,S.; Grimme,S.
     Extension and evaluation of the D4 London-dispersion model for periodic systems
     Phys. Chem. Chem. Phys., 2020 22(16)8499-8512
     doi.org/10.1039/D0CP00502A
  6. Wittmann,L.; Gordiy,I.; Friede,M.; Helmich-Paris,B.; Grimme,S.; Hansen,A.; Bursch,M.
     Extension of the D3 and D4 London Dispersion Corrections to the full Actinides Series
     Phys. Chem. Chem. Phys., 2024 26(32)21379-21394
     doi.org/https://doi.org/10.1039/D4CP01514B 

List of suggested additional citations. These are papers that are important in the 'surrounding' of 
of this run, or papers that preceded the highly important papers. If you like your results we are grateful for a citation.

  1. Neese,F.
     The ORCA program system
     WIRES Comput. Molec. Sci., 2012 2(1)73-78
     doi.org/10.1002/wcms.81
  2. Neese,F.
     Software update: the ORCA program system, version 4.0
     WIRES Comput. Molec. Sci., 2018 8(1)1-6
     doi.org/10.1002/wcms.1327
  3. Neese,F.; Wennmohs,F.; Becker,U.; Riplinger,C.
     The ORCA quantum chemistry program package
     J. Chem. Phys., 2020 152 Art. No. L224108
     doi.org/10.1063/5.0004608

List of optional additional citations

  1. Neese,F.
     Approximate second-order SCF convergence for spin unrestricted wavefunctions
     Chem. Phys. Lett., 2000 325(1-3)93-98
     doi.org/10.1016/s0009-2614(00)00662-x

Timings for individual modules:

Sum of individual times          ...        4.942 sec (=   0.082 min)
Startup calculation              ...        0.296 sec (=   0.005 min)   6.0 %
SCF iterations                   ...        4.371 sec (=   0.073 min)  88.4 %
Property calculations            ...        0.275 sec (=   0.005 min)   5.6 %
                             ****ORCA TERMINATED NORMALLY****
TOTAL RUN TIME: 0 days 0 hours 0 minutes 5 seconds 824 msec
