
                                 *****************
                                 * O   R   C   A *
                                 *****************

                                            #,                                       
                                            ###                                      
                                            ####                                     
                                            #####                                    
                                            ######                                   
                                           ########,                                 
                                     ,,################,,,,,                         
                               ,,#################################,,                 
                          ,,##########################################,,             
                       ,#########################################, ''#####,          
                    ,#############################################,,   '####,        
                  ,##################################################,,,,####,       
                ,###########''''           ''''###############################       
              ,#####''   ,,,,##########,,,,          '''####'''          '####       
            ,##' ,,,,###########################,,,                        '##       
           ' ,,###''''                  '''############,,,                           
         ,,##''                                '''############,,,,        ,,,,,,###''
      ,#''                                            '''#######################'''  
     '                                                          ''''####''''         
             ,#######,   #######,   ,#######,      ##                                
            ,#'     '#,  ##    ##  ,#'     '#,    #''#        ,####,   ,####,        
            ##       ##  ##   ,#'  ##            #'  '#       #'       #'  '#        
            ##       ##  #######   ##           ,######,      #####,   #    #        
            '#,     ,#'  ##    ##  '#,     ,#' ,#      #,     #,   #   #,  ,#        
             '#######'   ##     ##  '#######'  #'      '#     '####' # '####'        



                #########################################################
                #                        -***-                          #
                #          Department of theory and spectroscopy        #
                #                                                       #
                #                      Frank Neese                      #
                #                                                       #
                #     Directorship, Architecture, Infrastructure        #
                #                    SHARK, DRIVERS                     #
                #        Core code/Algorithms in most modules           #
                #                                                       #
                #        Max Planck Institute fuer Kohlenforschung      #
                #                Kaiser Wilhelm Platz 1                 #
                #                 D-45470 Muelheim/Ruhr                 #
                #                      Germany                          #
                #                                                       #
                #                  All rights reserved                  #
                #                        -***-                          #
                #########################################################


                         Program Version 6.0.0  -   RELEASE  -


 With contributions from (in alphabetic order):
   Daniel Aravena         : Magnetic Suceptibility
   Michael Atanasov       : Ab Initio Ligand Field Theory (pilot matlab implementation)
   Alexander A. Auer      : GIAO ZORA, VPT2 properties, NMR spectrum
   Ute Becker             : All parallelization in ORCA, NUMFREQ, NUMCALC
   Giovanni Bistoni       : ED, misc. LED, open-shell LED, HFLD
   Martin Brehm           : Molecular dynamics
   Dmytro Bykov           : pre 5.0 version of the SCF Hessian
   Marcos Casanova-Páez   : Triplet and SCS-CIS(D). UHF-(DLPNO)-IP/EA/STEOM-CCSD. UHF-CVS-IP/STEOM-CCSD
   Vijay G. Chilkuri      : MRCI spin determinant printing, contributions to CSF-ICE
   Pauline Colinet        : FMM embedding
   Dipayan Datta          : RHF DLPNO-CCSD density
   Achintya Kumar Dutta   : EOM-CC, STEOM-CC
   Nicolas Foglia         : Exact transition moments, OPA infrastructure, MCD improvements
   Dmitry Ganyushin       : Spin-Orbit,Spin-Spin,Magnetic field MRCI
   Miquel Garcia          : C-PCM and meta-GGA Hessian, CCSD/C-PCM, Gaussian charge scheme
   Tiago L. C. Gouveia    : GS-ROHF, GS-ROCIS
   Yang Guo               : DLPNO-NEVPT2, F12-NEVPT2, CIM, IAO-localization
   Andreas Hansen         : Spin unrestricted coupled pair/coupled cluster methods
   Ingolf Harden          : AUTO-CI MPn and infrastructure 
   Benjamin Helmich-Paris : MC-RPA, TRAH-(SCF,CASSCF), AVAS, COSX integrals, SCF dyn. polar.
   Lee Huntington         : MR-EOM, pCC
   Robert Izsak           : Overlap fitted RIJCOSX, COSX-SCS-MP3, EOM
   Riya Kayal             : Wick's Theorem for AUTO-CI, AUTO-CI UHF-CCSDT
   Emily Kempfer          : AUTO-CI, RHF CISDT and CCSDT
   Christian Kollmar      : KDIIS, OOCD, Brueckner-CCSD(T), CCSD density, CASPT2, CASPT2-K, improved NEVPT2
   Axel Koslowski         : Symmetry handling
   Simone Kossmann        : Meta GGA functionals, TD-DFT gradient, OOMP2, (MP2 Hessian; deprecated post 5.0)
   Lucas Lang             : DCDCAS
   Marvin Lechner         : AUTO-CI (C++ implementation), FIC-MRCC
   Spencer Leger          : CASSCF response
   Dagmar Lenk            : GEPOL surface, SMD, ORCA-2-JSON
   Dimitrios Liakos       : Extrapolation schemes; Compound Job, initial MDCI parallelization
   Dimitrios Manganas     : Further ROCIS development; embedding schemes. LFT, Crystal Embedding
   Dimitrios Pantazis     : SARC Basis sets
   Anastasios Papadopoulos: AUTO-CI, single reference methods and gradients
   Taras Petrenko         : pre 6.0 DFT Hessian and TD-DFT gradient, (ASA, deprecated), ECA, 1-Electron XAS/XES, NRVS
   Peter Pinski           : DLPNO-MP2, DLPNO-MP2 Gradient
   Christoph Reimann      : Effective Core Potentials
   Marius Retegan         : Local ZFS, SOC
   Christoph Riplinger    : Optimizer, TS searches, QM/MM, DLPNO-CCSD(T), (RO)-DLPNO pert. Triples
   Michael Roemelt        : Original ROCIS implementation
   Masaaki Saitow         : Open-shell DLPNO-CCSD energy and density
   Barbara Sandhoefer     : DKH picture change effects
   Kantharuban Sivalingam : CASSCF convergence/infrastructure, NEVPT2 and variants, FIC-MRCI
   Bernardo de Souza      : ESD, SOC TD-DFT
   Georgi Stoychev        : AutoAux, RI-MP2 NMR, DLPNO-MP2 response, X2C
   Van Anh Tran           : RI-MP2 g-tensors
   Willem Van den Heuvel  : Paramagnetic NMR
   Zikuan Wang            : NOTCH, Electric field optimization 
   Frank Wennmohs         : Technical directorship and infrastructure
   Hang Xu                : AUTO-CI-Response properties 


 We gratefully acknowledge several colleagues who have allowed us to
 interface, adapt or use parts of their codes:
   Stefan Grimme, W. Hujo, H. Kruse, P. Pracht,  : VdW corrections, initial TS optimization,
                  C. Bannwarth, S. Ehlert,         DFT functionals, gCP, sTDA/sTD-DF
                  L. Wittmann, M. Mueller
   Ed Valeev, F. Pavosevic, A. Kumar             : LibInt (2-el integral package), F12 methods
   Garnet Chan, S. Sharma, J. Yang, R. Olivares  : DMRG
   Ulf Ekstrom                                   : XCFun DFT Library
   Mihaly Kallay                                 : mrcc  (arbitrary order and MRCC methods)
   Frank Weinhold                                : gennbo (NPA and NBO analysis)
   Simon Mueller                                 : openCOSMO-RS
   Christopher J. Cramer and Donald G. Truhlar   : smd solvation model
   Lars Goerigk                                  : TD-DFT with DH, B97 family of functionals
   V. Asgeirsson, H. Jonsson                     : NEB implementation
   FAccTs GmbH                                   : IRC, NEB, NEB-TS, DLPNO-Multilevel, CI-OPT
                                                   MM, QMMM, 2- and 3-layer-ONIOM, Crystal-QMMM,
                                                   LR-CPCM, SF, NACMEs, symmetry and pop. for TD-DFT,
                                                   nearIR, NL-DFT gradient (VV10), updates on ESD,
                                                   ML-optimized integration grids, MBIS, APM,
                                                   GOAT, DOCKER, SOLVATOR, interface openCOSMO-RS
   S Lehtola, MJT Oliveira, MAL Marques          : LibXC Library
   Liviu Ungur et al                             : ANISO software


 Your calculation uses the libint2 library for the computation of 2-el integrals
 For citations please refer to: http://libint.valeyev.net

 Your ORCA version has been built with support for libXC version: 6.2.2
 For citations please refer to: https://libxc.gitlab.io

 This ORCA versions uses:
   CBLAS   interface :  Fast vector & matrix operations
   LAPACKE interface :  Fast linear algebra routines
   SCALAPACK package :  Parallel linear algebra routines
   Shared memory     :  Shared parallel matrices
   BLAS/LAPACK       :  OpenBLAS 0.3.27  USE64BITINT DYNAMIC_ARCH NO_AFFINITY SkylakeX SINGLE_THREADED
        Core in use  :  SkylakeX
   Copyright (c) 2011-2014, The OpenBLAS Project




***************************************
The coordinates will be read from file: censo.xyz
***************************************


Your calculation utilizes the geometrical counterpoise correction gCP
Please cite in your paper:
H.Kruse, S. Grimme J.Chem.Phys., 136, (2012), 154101 
   

Your calculation utilizes the atom-pairwise dispersion correction
based on EEQ partial charges (D4)


================================================================================

----- Orbital basis set information -----
Your calculation utilizes the basis: def2-TZVP
   F. Weigend and R. Ahlrichs, Phys. Chem. Chem. Phys. 7, 3297 (2005).

----- AuxJ basis set information -----
Your calculation utilizes the basis: def2-mTZVPP/J
   Stefan Grimme, Andreas Hansen, Sebastian Ehlert, and Jan-Michael Mewes 
   J. Chem. Phys. 154, 000000 (2021). DOI: 10.1063/5.0040021

================================================================================
                                        WARNINGS
                       Please study these warnings very carefully!
================================================================================

Using LibXC functional ID 497 : Re-regularized SCAN exchange by Furness et al
[ 1]  J. W. Furness, A. D. Kaplan, J. Ning, J. P. Perdew, and J. Sun.,  J. Phys. Chem. Lett. 11, 8208-8215 (2020)
[ 2]  J. W. Furness, A. D. Kaplan, J. Ning, J. P. Perdew, and J. Sun.,  J. Phys. Chem. Lett. 11, 9248-9248 (2020)
Using LibXC functional ID 498 : Re-regularized SCAN correlation by Furness et al
[ 1]  J. W. Furness, A. D. Kaplan, J. Ning, J. P. Perdew, and J. Sun.,  J. Phys. Chem. Lett. 11, 8208-8215 (2020)
[ 2]  J. W. Furness, A. D. Kaplan, J. Ning, J. P. Perdew, and J. Sun.,  J. Phys. Chem. Lett. 11, 9248-9248 (2020)
Using LibXC functional ID 497 : Re-regularized SCAN exchange by Furness et al
[ 1]  J. W. Furness, A. D. Kaplan, J. Ning, J. P. Perdew, and J. Sun.,  J. Phys. Chem. Lett. 11, 8208-8215 (2020)
[ 2]  J. W. Furness, A. D. Kaplan, J. Ning, J. P. Perdew, and J. Sun.,  J. Phys. Chem. Lett. 11, 9248-9248 (2020)
Using LibXC functional ID 498 : Re-regularized SCAN correlation by Furness et al
[ 1]  J. W. Furness, A. D. Kaplan, J. Ning, J. P. Perdew, and J. Sun.,  J. Phys. Chem. Lett. 11, 8208-8215 (2020)
[ 2]  J. W. Furness, A. D. Kaplan, J. Ning, J. P. Perdew, and J. Sun.,  J. Phys. Chem. Lett. 11, 9248-9248 (2020)

================================================================================
                                       INPUT FILE
================================================================================
NAME = censo.inp
|  1> ! r2SCAN-3c DEF2-TZVP FREQ
|  2> * xyzfile 0 1 censo.xyz
|  3> 
|  4>                          ****END OF INPUT****
================================================================================

                       ****************************
                       * Single Point Calculation *
                       ****************************

---------------------------------
CARTESIAN COORDINATES (ANGSTROEM)
---------------------------------
  C     -2.744352   -0.257145   -0.007945
  C     -2.356830    1.097751    0.017012
  C     -1.023163    1.438882    0.025548
  C     -0.013692    0.445890    0.006215
  C     -0.407309   -0.932567   -0.004212
  C     -1.789578   -1.245637   -0.015703
  C      0.575699   -1.951617    0.000793
  C      1.908461   -1.611161    0.012910
  C      2.313323   -0.266315    0.010668
  C      1.384739    0.765096    0.005284
  N      1.805470    2.085763    0.064077
  H     -3.798283   -0.516554   -0.016403
  H     -3.113391    1.875550    0.033268
  H     -0.756792    2.489834    0.056501
  H     -2.081183   -2.292182   -0.028128
  H      0.260767   -2.990431   -0.005509
  H      2.668301   -2.386882    0.015036
  H      3.371906   -0.021840    0.008858
  H      2.772061    2.216926   -0.198657
  H      1.203347    2.761100   -0.382849

----------------------------
CARTESIAN COORDINATES (A.U.)
----------------------------
  NO LB      ZA    FRAG     MASS         X           Y           Z
   0 C     6.0000    0    12.011   -5.186073   -0.485934   -0.015015
   1 C     6.0000    0    12.011   -4.453763    2.074448    0.032148
   2 C     6.0000    0    12.011   -1.933498    2.719092    0.048279
   3 C     6.0000    0    12.011   -0.025875    0.842610    0.011744
   4 C     6.0000    0    12.011   -0.769703   -1.762297   -0.007960
   5 C     6.0000    0    12.011   -3.381812   -2.353913   -0.029674
   6 C     6.0000    0    12.011    1.087914   -3.688022    0.001498
   7 C     6.0000    0    12.011    3.606469   -3.044653    0.024396
   8 C     6.0000    0    12.011    4.371547   -0.503262    0.020160
   9 C     6.0000    0    12.011    2.616777    1.445821    0.009985
  10 N     7.0000    0    14.007    3.411844    3.941520    0.121088
  11 H     1.0000    0     1.008   -7.177715   -0.976145   -0.030997
  12 H     1.0000    0     1.008   -5.883457    3.544276    0.062867
  13 H     1.0000    0     1.008   -1.430129    4.705105    0.106771
  14 H     1.0000    0     1.008   -3.932866   -4.331596   -0.053153
  15 H     1.0000    0     1.008    0.492778   -5.651095   -0.010410
  16 H     1.0000    0     1.008    5.042358   -4.510554    0.028414
  17 H     1.0000    0     1.008    6.371979   -0.041272    0.016740
  18 H     1.0000    0     1.008    5.238436    4.189383   -0.375407
  19 H     1.0000    0     1.008    2.273996    5.217723   -0.723480

--------------------------------
INTERNAL COORDINATES (ANGSTROEM)
--------------------------------
 C      0   0   0     0.000000000000     0.00000000     0.00000000
 C      1   0   0     1.409446402447     0.00000000     0.00000000
 C      2   1   0     1.376629920782   120.31052046     0.00000000
 C      3   2   1     1.416134806390   121.11419357     0.16057897
 C      4   3   2     1.433592388728   118.59462577   359.16107019
 C      1   2   3     1.374325336943   120.03355218     0.39464808
 C      5   4   3     1.415907115211   120.09193125   181.13934184
 C      7   5   4     1.375613274447   119.63938891   359.86638627
 C      8   7   5     1.404467373161   121.08179074   359.53481828
 C      9   8   7     1.387841919323   121.24898437     0.43994892
 N     10   9   8     1.387311294998   120.29129710   177.08465652
 H      1   2   3     1.085419748048   119.79193261   180.11520730
 H      2   1   3     1.085182879420   119.84031861   180.22591020
 H      3   2   1     1.084625604573   118.56851359   180.70100535
 H      6   1   2     1.086482422804   120.42582776   179.58496155
 H      7   5   4     1.085520729820   119.16377103   179.89489655
 H      8   7   5     1.085865983772   120.07737406   180.10853418
 H      9   8   7     1.086448294169   119.75855467   180.70208524
 H     11  10   9     1.010213049084   113.75043422    19.31916054
 H     11  10   9     1.009146149992   115.93482436   150.77746652

---------------------------
INTERNAL COORDINATES (A.U.)
---------------------------
 C      0   0   0     0.000000000000     0.00000000     0.00000000
 C      1   0   0     2.663467701066     0.00000000     0.00000000
 C      2   1   0     2.601453538041   120.31052046     0.00000000
 C      3   2   1     2.676106952790   121.11419357     0.16057897
 C      4   3   2     2.709097002371   118.59462577   359.16107019
 C      1   2   3     2.597098505731   120.03355218     0.39464808
 C      5   4   3     2.675676678820   120.09193125   181.13934184
 C      7   5   4     2.599532354892   119.63938891   359.86638627
 C      8   7   5     2.654058699302   121.08179074   359.53481828
 C      9   8   7     2.622641144696   121.24898437     0.43994892
 N     10   9   8     2.621638410042   120.29129710   177.08465652
 H      1   2   3     2.051146064161   119.79193261   180.11520730
 H      2   1   3     2.050698447324   119.84031861   180.22591020
 H      3   2   1     2.049645350481   118.56851359   180.70100535
 H      6   1   2     2.053154228420   120.42582776   179.58496155
 H      7   5   4     2.051336892054   119.16377103   179.89489655
 H      8   7   5     2.051989327470   120.07737406   180.10853418
 H      9   8   7     2.053089734645   119.75855467   180.70208524
 H     11  10   9     1.909025999683   113.75043422    19.31916054
 H     11  10   9     1.907009852586   115.93482436   150.77746652

---------------------
BASIS SET INFORMATION
---------------------
There are 3 groups of distinct atoms

 Group   1 Type C   : 11s6p2d1f contracted to 5s3p2d1f pattern {62111/411/11/1}
 Group   2 Type N   : 11s6p2d1f contracted to 5s3p2d1f pattern {62111/411/11/1}
 Group   3 Type H   : 5s1p contracted to 3s1p pattern {311/1}

Atom   0C    basis set group =>   1
Atom   1C    basis set group =>   1
Atom   2C    basis set group =>   1
Atom   3C    basis set group =>   1
Atom   4C    basis set group =>   1
Atom   5C    basis set group =>   1
Atom   6C    basis set group =>   1
Atom   7C    basis set group =>   1
Atom   8C    basis set group =>   1
Atom   9C    basis set group =>   1
Atom  10N    basis set group =>   2
Atom  11H    basis set group =>   3
Atom  12H    basis set group =>   3
Atom  13H    basis set group =>   3
Atom  14H    basis set group =>   3
Atom  15H    basis set group =>   3
Atom  16H    basis set group =>   3
Atom  17H    basis set group =>   3
Atom  18H    basis set group =>   3
Atom  19H    basis set group =>   3
---------------------------------
AUXILIARY/J BASIS SET INFORMATION
---------------------------------
There are 3 groups of distinct atoms

 Group   1 Type C   : 8s3p3d contracted to 6s3p3d pattern {311111/111/111}
 Group   2 Type N   : 8s3p3d contracted to 6s3p3d pattern {311111/111/111}
 Group   3 Type H   : 5s2p1d contracted to 3s1p1d pattern {311/2/1}

Atom   0C    basis set group =>   1
Atom   1C    basis set group =>   1
Atom   2C    basis set group =>   1
Atom   3C    basis set group =>   1
Atom   4C    basis set group =>   1
Atom   5C    basis set group =>   1
Atom   6C    basis set group =>   1
Atom   7C    basis set group =>   1
Atom   8C    basis set group =>   1
Atom   9C    basis set group =>   1
Atom  10N    basis set group =>   2
Atom  11H    basis set group =>   3
Atom  12H    basis set group =>   3
Atom  13H    basis set group =>   3
Atom  14H    basis set group =>   3
Atom  15H    basis set group =>   3
Atom  16H    basis set group =>   3
Atom  17H    basis set group =>   3
Atom  18H    basis set group =>   3
Atom  19H    basis set group =>   3
------------------------------------------------------------------------------
                             ORCA STARTUP CALCULATIONS
                           -- RI-GTO INTEGRALS CHOSEN --
------------------------------------------------------------------------------
------------------------------------------------------------------------------
                   ___                                                        
                  /   \      - P O W E R E D   B Y -                         
                 /     \                                                     
                 |  |  |   _    _      __       _____    __    __             
                 |  |  |  | |  | |    /  \     |  _  \  |  |  /  |          
                  \  \/   | |  | |   /    \    | | | |  |  | /  /          
                 / \  \   | |__| |  /  /\  \   | |_| |  |  |/  /          
                |  |  |   |  __  | /  /__\  \  |    /   |      \           
                |  |  |   | |  | | |   __   |  |    \   |  |\   \          
                \     /   | |  | | |  |  |  |  | |\  \  |  | \   \       
                 \___/    |_|  |_| |__|  |__|  |_| \__\ |__|  \__/        
                                                                              
                      - O R C A' S   B I G   F R I E N D -                    
                                      &                                       
                       - I N T E G R A L  F E E D E R -                       
                                                                              
 v1 FN, 2020, v2 2021, v3 2022-2024                                           
------------------------------------------------------------------------------


----------------------
SHARK INTEGRAL PACKAGE
----------------------

Number of atoms                             ...     20
Number of basis functions                   ...    395
Number of shells                            ...    157
Maximum angular momentum                    ...      3
Integral batch strategy                     ... SHARK/LIBINT Hybrid
RI-J (if used) integral strategy            ... SPLIT-RIJ (Revised 2003 algorithm where possible)
Printlevel                                  ...      1
Contraction scheme used                     ... SEGMENTED contraction
Prescreening option                         ... SCHWARTZ
   Thresh                                   ... 1.000e-10
   Tcut                                     ... 1.000e-11
   Tpresel                                  ... 1.000e-11 
Coulomb Range Separation                    ... NOT USED
Exchange Range Separation                   ... NOT USED
Multipole approximations                    ... NOT USED
Finite Nucleus Model                        ... NOT USED
CABS basis                                  ... NOT available
Auxiliary Coulomb fitting basis             ... AVAILABLE
   # of basis functions in Aux-J            ...    429
   # of shells in Aux-J                     ...    177
   Maximum angular momentum in Aux-J        ...      2
Auxiliary J/K fitting basis                 ... NOT available
Auxiliary Correlation fitting basis         ... NOT available
Auxiliary 'external' fitting basis          ... NOT available

Checking pre-screening integrals            ... done (  0.0 sec) Dimension = 157
Check shell pair data                       ... done (  0.0 sec)
Shell pair information
Shell pair cut-off parameter TPreSel        ...   1.0e-11
Total number of shell pairs                 ...     12403
Shell pairs after pre-screening             ...     10920
Total number of primitive shell pairs       ...     37944
Primitive shell pairs kept                  ...     24319
          la=0 lb=0:   2825 shell pairs
          la=1 lb=0:   3055 shell pairs
          la=1 lb=1:    837 shell pairs
          la=2 lb=0:   1604 shell pairs
          la=2 lb=1:    868 shell pairs
          la=2 lb=2:    240 shell pairs
          la=3 lb=0:    776 shell pairs
          la=3 lb=1:    425 shell pairs
          la=3 lb=2:    226 shell pairs
          la=3 lb=3:     64 shell pairs

Calculating one electron integrals          ... done (  0.1 sec)
Calculating RI/J V-Matrix + Cholesky decomp.... done (  0.1 sec)
Calculating Nuclear repulsion               ... done (  0.0 sec) ENN=    551.579010284117 Eh

Diagonalization of the overlap matrix:
Smallest eigenvalue                        ... 6.005e-06
Time for diagonalization                   ...    0.018 sec
Threshold for overlap eigenvalues          ... 1.000e-07
Number of eigenvalues below threshold      ... 0
Time for construction of square roots      ...    0.027 sec
Total time needed                          ...    0.056 sec

-------------------
DFT GRID GENERATION
-------------------

General Integration Accuracy     IntAcc      ... 4.388
Radial Grid Type                 RadialGrid  ... OptM3 with GC (2021)
Angular Grid (max. ang.)         AngularGrid ... 4 (Lebedev-302)
Angular grid pruning method      GridPruning ... 4 (adaptive)
Weight generation scheme         WeightScheme... mBecke (2022)
Basis function cutoff            BFCut       ... 1.0000e-10
Integration weight cutoff        WCut        ... 1.0000e-14
Partially contracted basis set               ... off
Rotationally invariant grid construction     ... off
Angular grids for H and He will be reduced by one unit

Total number of grid points                  ...    94740
Total number of batches                      ...     1489
Average number of points per batch           ...       63
Average number of grid points per atom       ...     4737
Initializing property integral containers    ... done (  0.0 sec)

SHARK setup successfully completed in   1.7 seconds

Maximum memory used throughout the entire STARTUP-calculation: 60.2 MB
-------------------------------------------------------------------------------
                                 ORCA GUESS
                   Start orbitals & Density for SCF / CASSCF
-------------------------------------------------------------------------------

------------
SCF SETTINGS
------------
Hamiltonian:
 Density Functional     Method          .... DFT(GTOs)
  Functional kind                       .... Exchange
  Functional name                       .... Re-regularized SCAN exchange by Furness et al
  Functional family                     .... MGGA
  Functional refs                              
    [ 0] J. W. Furness, A. D. Kaplan, J. Ning, J. P. Perdew, and J. Sun.,  J. Phys. Chem. Lett. 11, 8208-8215 (2020), doi: 10.1021/acs.jpclett.0c02405
    [ 1] J. W. Furness, A. D. Kaplan, J. Ning, J. P. Perdew, and J. Sun.,  J. Phys. Chem. Lett. 11, 9248-9248 (2020), doi: 10.1021/acs.jpclett.0c03077
  Functional external parameters        .... 6
    Parameter  0 _c1        =  6.670000e-01 : c1 parameter        
    Parameter  1 _c2        =  8.000000e-01 : c2 parameter        
    Parameter  2 _d         =  1.240000e+00 : d parameter         
    Parameter  3 _k1        =  6.500000e-02 : k1 parameter        
    Parameter  4 _eta       =  1.000000e-03 : eta parameter       
    Parameter  5 _dp2       =  3.610000e-01 : dp2 parameter       
  Functional kind                       .... Correlation
  Functional name                       .... Re-regularized SCAN correlation by Furness et al
  Functional family                     .... MGGA
  Functional refs                              
    [ 0] J. W. Furness, A. D. Kaplan, J. Ning, J. P. Perdew, and J. Sun.,  J. Phys. Chem. Lett. 11, 8208-8215 (2020), doi: 10.1021/acs.jpclett.0c02405
    [ 1] J. W. Furness, A. D. Kaplan, J. Ning, J. P. Perdew, and J. Sun.,  J. Phys. Chem. Lett. 11, 9248-9248 (2020), doi: 10.1021/acs.jpclett.0c03077
  Functional external parameters        .... 1
    Parameter  0 _eta       =  1.000000e-03 : Regularization parameter
 Gradients option       PostSCFGGA      .... off
 RI-approximation to the Coulomb term is turned on
   Number of AuxJ basis functions       .... 429


General Settings:
 Integral files         IntName         .... censo
 Hartree-Fock type      HFTyp           .... RHF
 Total Charge           Charge          ....    0
 Multiplicity           Mult            ....    1
 Number of Electrons    NEL             ....   76
 Basis Dimension        Dim             ....  395
 Nuclear Repulsion      ENuc            ....    551.5790102841 Eh

Convergence Acceleration:
 AO-DIIS                CNVDIIS         .... on
   Start iteration      DIISMaxIt       ....    12
   Startup error        DIISStart       ....  0.200000
   # of expansion vecs  DIISMaxEq       ....     5
   Bias factor          DIISBfac        ....   1.050
   Max. coefficient     DIISMaxC        ....  10.000
 MO-DIIS                CNVKDIIS        .... off
 Trust-Rad. Augm. Hess. CNVTRAH         .... auto
   Auto Start mean grad. ratio tolernc. ....  1.125000
   Auto Start start iteration           ....    50
   Auto Start num. interpolation iter.  ....    10
   Max. Number of Micro iterations      ....    24
   Max. Number of Macro iterations      .... Maxiter - #DIIS iter
   Number of Davidson start vectors     ....     2
   Converg. threshold    (grad. norm)   ....   5.000e-05
   Grad. Scal. Fac. for Micro threshold ....   0.100
   Minimum threshold for Micro iter.    ....   1.000e-02
   NR start threshold (gradient norm)   ....   1.000e-04
   Initial trust radius                 ....   0.400
   Minimum AH scaling param. (alpha)    ....   1.000
   Maximum AH scaling param. (alpha)    .... 1000.000
   Quad. conv. algorithm                .... NR
   White noise on init. David. guess    .... on
   Maximum white noise                  ....   0.010
   Pseudo random numbers                .... off
   Inactive MOs                         .... canonical
   Orbital update algorithm             .... Taylor
   Preconditioner                       .... Diag
   Full preconditioner red. dimension   ....   250
   COSX micro iterations for RIJONX calc.... off
 SOSCF                  CNVSOSCF        .... on
   Start iteration      SOSCFMaxIt      ....   150
   Startup grad/error   SOSCFStart      ....  0.003300
   Hessian update       SOSCFHessUp     .... L-BFGS
 Level Shifting         CNVShift        .... on
   Level shift para.    LevelShift      ....    0.2500
   Turn off err/grad.   ShiftErr        ....    0.0010
 Zerner damping         CNVZerner       .... off
 Static damping         CNVDamp         .... on
   Fraction old density DampFac         ....    0.7000
   Max. Damping (<1)    DampMax         ....    0.9800
   Min. Damping (>=0)   DampMin         ....    0.0000
   Turn off err/grad.   DampErr         ....    0.1000

SCF Procedure:
 Maximum # iterations   MaxIter         ....   125
 SCF integral mode      SCFMode         .... Direct
   Integral package                     .... SHARK and LIBINT hybrid scheme
 Reset frequency        DirectResetFreq ....    20
 Integral Threshold     Thresh          ....  1.000e-10 Eh
 Primitive CutOff       TCut            ....  1.000e-11 Eh

Convergence Tolerance:
 Convergence Check Mode ConvCheckMode   .... Total+1el-Energy
 Convergence forced     ConvForced      .... 0
 Energy Change          TolE            ....  1.000e-06 Eh
 1-El. energy change                    ....  1.000e-03 Eh
 Orbital Gradient       TolG            ....  5.000e-05
 Orbital Rotation angle TolX            ....  5.000e-05
 DIIS Error             TolErr          ....  1.000e-06

------------------------------
INITIAL GUESS: MODEL POTENTIAL
------------------------------
Loading Hartree-Fock densities                     ... done
Calculating cut-offs                               ... done
Initializing the effective Hamiltonian             ... done
Setting up the integral package (SHARK)            ... done
Starting the Coulomb interaction                   ... done (   0.7 sec)
Making the grid                                    ... done (   0.3 sec)
Mapping shells                                     ... done
Starting the XC term evaluation                    ... done (   0.7 sec)
  promolecular density results
     # of electrons  =     75.999748278
     EX              =    -60.359323529
     EC              =     -2.528128881
     EX+EC           =    -62.887452411
Transforming the Hamiltonian                       ... done (   0.0 sec)
Diagonalizing the Hamiltonian                      ... done (   0.0 sec)
Back transforming the eigenvectors                 ... done (   0.1 sec)
Now organizing SCF variables                       ... done
                      ------------------
                      INITIAL GUESS DONE (   2.0 sec)
                      ------------------
             **** ENERGY FILE WAS UPDATED (censo.en.tmp) ****
Finished Guess after   2.4 sec
Maximum memory used throughout the entire GUESS-calculation: 42.4 MB

-------------------------------------------------------------------------------------------
                                      ORCA LEAN-SCF
                              memory conserving SCF solver
-------------------------------------------------------------------------------------------

----------------------------------------D-I-I-S--------------------------------------------
Iteration    Energy (Eh)           Delta-E    RMSDP     MaxDP     DIISErr   Damp  Time(sec)
-------------------------------------------------------------------------------------------
               ***  Starting incremental Fock matrix formation  ***
    1    -440.9014589041184990     0.00e+00  1.73e-03  4.79e-02  2.32e-01  0.700   7.0
    2    -441.0242896167837898    -1.23e-01  1.42e-03  5.47e-02  1.09e-01  0.700   5.8
                               ***Turning on AO-DIIS***
    3    -441.0746467197636775    -5.04e-02  7.01e-04  2.26e-02  3.35e-02  0.700   5.6
    4    -441.1036843236505547    -2.90e-02  1.47e-03  4.62e-02  1.68e-02  0.000   5.4
    5    -441.1668303575755772    -6.31e-02  3.55e-04  2.21e-02  7.84e-03  0.000   5.5
                              *** Initializing SOSCF ***
---------------------------------------S-O-S-C-F--------------------------------------
Iteration    Energy (Eh)           Delta-E    RMSDP     MaxDP     MaxGrad    Time(sec)
--------------------------------------------------------------------------------------
    6    -441.1672457834233683    -4.15e-04  1.51e-04  8.70e-03  1.47e-03     5.1
               *** Restarting incremental Fock matrix formation ***
    7    -441.1672705767913385    -2.48e-05  1.06e-04  5.80e-03  2.62e-04     6.5
    8    -441.1672594079332157     1.12e-05  2.60e-05  7.81e-04  6.26e-04     4.7
    9    -441.1672756629160403    -1.63e-05  2.51e-05  1.52e-03  1.58e-04     4.6
   10    -441.1672741937633191     1.47e-06  1.12e-05  5.85e-04  2.31e-04     4.5
   11    -441.1672761689491153    -1.98e-06  1.16e-05  6.55e-04  2.77e-05     4.4
   12    -441.1672760394519628     1.29e-07  3.54e-06  9.93e-05  5.88e-05     4.4
                 **** Energy Check signals convergence ****

               *****************************************************
               *                     SUCCESS                       *
               *           SCF CONVERGED AFTER  12 CYCLES          *
               *****************************************************

             **** ENERGY FILE WAS UPDATED (censo.en.tmp) ****

----------------
TOTAL SCF ENERGY
----------------

Total Energy       :       -441.16727603945196 Eh          -12004.77189 eV

Components:
Nuclear Repulsion  :        551.57901028411675 Eh           15009.22792 eV
Electronic Energy  :       -992.74628632356871 Eh          -27013.99982 eV
One Electron Energy:      -1688.67666473591476 Eh          -45951.22816 eV
Two Electron Energy:        695.93037841234604 Eh           18937.22835 eV

Virial components:
Potential Energy   :       -880.21063764314727 Eh          -23951.74913 eV
Kinetic Energy     :        439.04336160369536 Eh           11946.97724 eV
Virial Ratio       :          2.00483759605885

DFT components:
N(Alpha)           :       38.000046248405 electrons
N(Beta)            :       38.000046248405 electrons
N(Total)           :       76.000092496810 electrons
E(X)               :      -61.946412315602 Eh       
E(C)               :       -2.459921825503 Eh       
E(XC)              :      -64.406334141105 Eh       

---------------
SCF CONVERGENCE
---------------

  Last Energy change         ...   -1.2950e-07  Tolerance :   1.0000e-06
  Last MAX-Density change    ...    9.9294e-05  Tolerance :   1.0000e-05
  Last RMS-Density change    ...    3.5442e-06  Tolerance :   1.0000e-06
  Last DIIS Error            ...    1.4739e-03  Tolerance :   1.0000e-06
  Last Orbital Gradient      ...    5.8772e-05  Tolerance :   5.0000e-05
  Last Orbital Rotation      ...    9.1224e-05  Tolerance :   5.0000e-05


----------------
ORBITAL ENERGIES
----------------

  NO   OCC          E(Eh)            E(eV) 
   0   2.0000     -14.173031      -385.6678 
   1   2.0000     -10.078152      -274.2405 
   2   2.0000     -10.043875      -273.3077 
   3   2.0000     -10.043264      -273.2911 
   4   2.0000     -10.038831      -273.1705 
   5   2.0000     -10.035646      -273.0838 
   6   2.0000     -10.035163      -273.0707 
   7   2.0000     -10.034451      -273.0513 
   8   2.0000     -10.032926      -273.0098 
   9   2.0000     -10.027352      -272.8581 
  10   2.0000     -10.022984      -272.7393 
  11   2.0000      -0.894564       -24.3423 
  12   2.0000      -0.827319       -22.5125 
  13   2.0000      -0.780030       -21.2257 
  14   2.0000      -0.727379       -19.7930 
  15   2.0000      -0.706609       -19.2278 
  16   2.0000      -0.676706       -18.4141 
  17   2.0000      -0.592114       -16.1122 
  18   2.0000      -0.584378       -15.9017 
  19   2.0000      -0.558061       -15.1856 
  20   2.0000      -0.501120       -13.6362 
  21   2.0000      -0.490522       -13.3478 
  22   2.0000      -0.467580       -12.7235 
  23   2.0000      -0.448148       -12.1947 
  24   2.0000      -0.432038       -11.7563 
  25   2.0000      -0.401125       -10.9152 
  26   2.0000      -0.394735       -10.7413 
  27   2.0000      -0.378244       -10.2925 
  28   2.0000      -0.373596       -10.1661 
  29   2.0000      -0.363954        -9.9037 
  30   2.0000      -0.342533        -9.3208 
  31   2.0000      -0.322746        -8.7824 
  32   2.0000      -0.305426        -8.3111 
  33   2.0000      -0.302741        -8.2380 
  34   2.0000      -0.288924        -7.8620 
  35   2.0000      -0.238234        -6.4827 
  36   2.0000      -0.228141        -6.2080 
  37   2.0000      -0.177671        -4.8347 
  38   0.0000      -0.060720        -1.6523 
  39   0.0000      -0.035900        -0.9769 
  40   0.0000       0.009583         0.2608 
  41   0.0000       0.034583         0.9410 
  42   0.0000       0.063831         1.7369 
  43   0.0000       0.066395         1.8067 
  44   0.0000       0.070844         1.9278 
  45   0.0000       0.095611         2.6017 
  46   0.0000       0.099644         2.7115 
  47   0.0000       0.121517         3.3066 
  48   0.0000       0.126441         3.4406 
*Only the first 10 virtual orbitals were printed.

                    ********************************
                    * MULLIKEN POPULATION ANALYSIS *
                    ********************************

-----------------------
MULLIKEN ATOMIC CHARGES
-----------------------
   0 C :   -0.111880
   1 C :   -0.096855
   2 C :   -0.252039
   3 C :    0.060149
   4 C :    0.194820
   5 C :   -0.170715
   6 C :   -0.294627
   7 C :   -0.037716
   8 C :   -0.284782
   9 C :    0.300599
  10 N :   -0.426420
  11 H :    0.107067
  12 H :    0.106888
  13 H :    0.076761
  14 H :    0.098359
  15 H :    0.092100
  16 H :    0.104418
  17 H :    0.081416
  18 H :    0.224883
  19 H :    0.227574
Sum of atomic charges:    0.0000000

--------------------------------
MULLIKEN REDUCED ORBITAL CHARGES
--------------------------------
  0 C s       :     3.210012  s :     3.210012
      pz      :     0.967154  p :     2.817043
      px      :     0.940538
      py      :     0.909351
      dz2     :     0.003533  d :     0.076175
      dxz     :     0.005549
      dyz     :     0.022687
      dx2y2   :     0.024239
      dxy     :     0.020168
      f0      :     0.001765  f :     0.008649
      f+1     :     0.000654
      f-1     :     0.000639
      f+2     :     0.000386
      f-2     :     0.001019
      f+3     :     0.002049
      f-3     :     0.002138

  1 C s       :     3.188237  s :     3.188237
      pz      :     0.972596  p :     2.824489
      px      :     0.930768
      py      :     0.921125
      dz2     :     0.003279  d :     0.075409
      dxz     :     0.014246
      dyz     :     0.014319
      dx2y2   :     0.020217
      dxy     :     0.023348
      f0      :     0.001769  f :     0.008721
      f+1     :     0.000644
      f-1     :     0.000666
      f+2     :     0.001232
      f-2     :     0.000191
      f+3     :     0.002101
      f-3     :     0.002118

  2 C s       :     3.331544  s :     3.331544
      pz      :     0.990292  p :     2.835991
      px      :     0.924959
      py      :     0.920740
      dz2     :     0.003883  d :     0.075835
      dxz     :     0.024330
      dyz     :     0.005700
      dx2y2   :     0.019060
      dxy     :     0.022861
      f0      :     0.001718  f :     0.008670
      f+1     :     0.000610
      f-1     :     0.000604
      f+2     :     0.000439
      f-2     :     0.000955
      f+3     :     0.002101
      f-3     :     0.002243

  3 C s       :     3.337515  s :     3.337515
      pz      :     0.971996  p :     2.474722
      px      :     0.743075
      py      :     0.759650
      dz2     :     0.003632  d :     0.115688
      dxz     :     0.024173
      dyz     :     0.021152
      dx2y2   :     0.034724
      dxy     :     0.032007
      f0      :     0.002025  f :     0.011926
      f+1     :     0.000786
      f-1     :     0.000683
      f+2     :     0.001036
      f-2     :     0.001069
      f+3     :     0.003111
      f-3     :     0.003216

  4 C s       :     3.193783  s :     3.193783
      pz      :     0.905411  p :     2.477975
      px      :     0.769299
      py      :     0.803265
      dz2     :     0.004034  d :     0.121120
      dxz     :     0.026464
      dyz     :     0.024936
      dx2y2   :     0.034776
      dxy     :     0.030910
      f0      :     0.002059  f :     0.012302
      f+1     :     0.000761
      f-1     :     0.000696
      f+2     :     0.001115
      f-2     :     0.001187
      f+3     :     0.003135
      f-3     :     0.003349

  5 C s       :     3.273713  s :     3.273713
      pz      :     0.975522  p :     2.810386
      px      :     0.893646
      py      :     0.941218
      dz2     :     0.002998  d :     0.077971
      dxz     :     0.023087
      dyz     :     0.005997
      dx2y2   :     0.025335
      dxy     :     0.020554
      f0      :     0.001712  f :     0.008645
      f+1     :     0.000613
      f-1     :     0.000635
      f+2     :     0.000517
      f-2     :     0.000796
      f+3     :     0.002053
      f-3     :     0.002319

  6 C s       :     3.341976  s :     3.341976
      pz      :     1.027812  p :     2.867730
      px      :     0.920394
      py      :     0.919524
      dz2     :     0.002998  d :     0.076360
      dxz     :     0.022558
      dyz     :     0.006078
      dx2y2   :     0.021148
      dxy     :     0.023578
      f0      :     0.001709  f :     0.008561
      f+1     :     0.000637
      f-1     :     0.000639
      f+2     :     0.000404
      f-2     :     0.000860
      f+3     :     0.002197
      f-3     :     0.002116

  7 C s       :     3.153214  s :     3.153214
      pz      :     0.954463  p :     2.797332
      px      :     0.932797
      py      :     0.910072
      dz2     :     0.003291  d :     0.078316
      dxz     :     0.015835
      dyz     :     0.017757
      dx2y2   :     0.019558
      dxy     :     0.021874
      f0      :     0.001792  f :     0.008855
      f+1     :     0.000651
      f-1     :     0.000683
      f+2     :     0.001401
      f-2     :     0.000196
      f+3     :     0.001988
      f-3     :     0.002144

  8 C s       :     3.333478  s :     3.333478
      pz      :     1.057849  p :     2.869945
      px      :     0.921650
      py      :     0.890446
      dz2     :     0.004632  d :     0.072646
      dxz     :     0.004556
      dyz     :     0.022458
      dx2y2   :     0.019277
      dxy     :     0.021724
      f0      :     0.001759  f :     0.008714
      f+1     :     0.000635
      f-1     :     0.000691
      f+2     :     0.000409
      f-2     :     0.000969
      f+3     :     0.002020
      f-3     :     0.002231

  9 C s       :     2.980019  s :     2.980019
      pz      :     0.903040  p :     2.556893
      px      :     0.875281
      py      :     0.778573
      dz2     :     0.002559  d :     0.147592
      dxz     :     0.025868
      dyz     :     0.043603
      dx2y2   :     0.039181
      dxy     :     0.036382
      f0      :     0.002311  f :     0.014896
      f+1     :     0.000755
      f-1     :     0.001070
      f+2     :     0.001824
      f-2     :     0.001464
      f+3     :     0.003341
      f-3     :     0.004131

 10 N s       :     3.495754  s :     3.495754
      pz      :     1.647681  p :     3.887864
      px      :     1.117641
      py      :     1.122541
      dz2     :     0.003274  d :     0.039606
      dxz     :     0.004339
      dyz     :     0.012084
      dx2y2   :     0.009741
      dxy     :     0.010169
      f0      :     0.000685  f :     0.003196
      f+1     :     0.000255
      f-1     :     0.000412
      f+2     :     0.000198
      f-2     :     0.000266
      f+3     :     0.000816
      f-3     :     0.000564

 11 H s       :     0.869462  s :     0.869462
      pz      :     0.005635  p :     0.023471
      px      :     0.012860
      py      :     0.004975

 12 H s       :     0.869559  s :     0.869559
      pz      :     0.005740  p :     0.023553
      px      :     0.008733
      py      :     0.009080

 13 H s       :     0.898846  s :     0.898846
      pz      :     0.005925  p :     0.024393
      px      :     0.005202
      py      :     0.013266

 14 H s       :     0.878141  s :     0.878141
      pz      :     0.005589  p :     0.023500
      px      :     0.005042
      py      :     0.012869

 15 H s       :     0.884110  s :     0.884110
      pz      :     0.006131  p :     0.023789
      px      :     0.004987
      py      :     0.012671

 16 H s       :     0.872151  s :     0.872151
      pz      :     0.005570  p :     0.023432
      px      :     0.008782
      py      :     0.009079

 17 H s       :     0.894856  s :     0.894856
      pz      :     0.006231  p :     0.023728
      px      :     0.012877
      py      :     0.004620

 18 H s       :     0.736512  s :     0.736512
      pz      :     0.013324  p :     0.038604
      px      :     0.018041
      py      :     0.007239

 19 H s       :     0.732900  s :     0.732900
      pz      :     0.014939  p :     0.039526
      px      :     0.011334
      py      :     0.013253



                     *******************************
                     * LOEWDIN POPULATION ANALYSIS *
                     *******************************

----------------------
LOEWDIN ATOMIC CHARGES
----------------------
   0 C :   -0.143935
   1 C :   -0.145932
   2 C :   -0.111674
   3 C :   -0.073368
   4 C :   -0.093912
   5 C :   -0.099359
   6 C :   -0.129060
   7 C :   -0.146807
   8 C :   -0.144974
   9 C :   -0.206118
  10 N :   -0.031011
  11 H :    0.142747
  12 H :    0.142329
  13 H :    0.140163
  14 H :    0.146554
  15 H :    0.143620
  16 H :    0.143556
  17 H :    0.139923
  18 H :    0.166110
  19 H :    0.161150

-------------------------------
LOEWDIN REDUCED ORBITAL CHARGES
-------------------------------
  0 C s       :     2.770414  s :     2.770414
      pz      :     0.886299  p :     2.938807
      px      :     0.994640
      py      :     1.057868
      dz2     :     0.025601  d :     0.390999
      dxz     :     0.015108
      dyz     :     0.077780
      dx2y2   :     0.157077
      dxy     :     0.115433
      f0      :     0.003255  f :     0.043715
      f+1     :     0.003372
      f-1     :     0.004352
      f+2     :     0.002596
      f-2     :     0.006474
      f+3     :     0.011516
      f-3     :     0.012149

  1 C s       :     2.770360  s :     2.770360
      pz      :     0.891391  p :     2.940671
      px      :     1.032639
      py      :     1.016641
      dz2     :     0.025502  d :     0.391299
      dxz     :     0.045861
      dyz     :     0.047532
      dx2y2   :     0.103893
      dxy     :     0.168512
      f0      :     0.003272  f :     0.043603
      f+1     :     0.003955
      f-1     :     0.003766
      f+2     :     0.007715
      f-2     :     0.001299
      f+3     :     0.011466
      f-3     :     0.012130

  2 C s       :     2.761194  s :     2.761194
      pz      :     0.894701  p :     2.919270
      px      :     1.047916
      py      :     0.976654
      dz2     :     0.025548  d :     0.388199
      dxz     :     0.077598
      dyz     :     0.017405
      dx2y2   :     0.145221
      dxy     :     0.122429
      f0      :     0.003184  f :     0.043010
      f+1     :     0.004320
      f-1     :     0.003302
      f+2     :     0.002926
      f-2     :     0.006118
      f+3     :     0.011597
      f-3     :     0.011563

  3 C s       :     2.693705  s :     2.693705
      pz      :     0.869665  p :     2.825434
      px      :     0.967501
      py      :     0.988268
      dz2     :     0.033775  d :     0.498379
      dxz     :     0.070713
      dyz     :     0.066547
      dx2y2   :     0.168462
      dxy     :     0.158882
      f0      :     0.003955  f :     0.055850
      f+1     :     0.004299
      f-1     :     0.004128
      f+2     :     0.006358
      f-2     :     0.006568
      f+3     :     0.014964
      f-3     :     0.015579

  4 C s       :     2.696559  s :     2.696559
      pz      :     0.826940  p :     2.812834
      px      :     0.994015
      py      :     0.991879
      dz2     :     0.033900  d :     0.525927
      dxz     :     0.076115
      dyz     :     0.078495
      dx2y2   :     0.169793
      dxy     :     0.167624
      f0      :     0.003978  f :     0.058593
      f+1     :     0.004194
      f-1     :     0.004181
      f+2     :     0.006775
      f-2     :     0.007336
      f+3     :     0.015113
      f-3     :     0.017015

  5 C s       :     2.763625  s :     2.763625
      pz      :     0.882122  p :     2.908660
      px      :     1.030727
      py      :     0.995810
      dz2     :     0.025723  d :     0.384588
      dxz     :     0.072746
      dyz     :     0.017055
      dx2y2   :     0.152488
      dxy     :     0.116575
      f0      :     0.003200  f :     0.042486
      f+1     :     0.004228
      f-1     :     0.003355
      f+2     :     0.003005
      f-2     :     0.005357
      f+3     :     0.010893
      f-3     :     0.012447

  6 C s       :     2.761237  s :     2.761237
      pz      :     0.924983  p :     2.943773
      px      :     1.042867
      py      :     0.975923
      dz2     :     0.025515  d :     0.381361
      dxz     :     0.071554
      dyz     :     0.017224
      dx2y2   :     0.141332
      dxy     :     0.125736
      f0      :     0.003286  f :     0.042689
      f+1     :     0.004324
      f-1     :     0.003364
      f+2     :     0.002855
      f-2     :     0.005413
      f+3     :     0.011678
      f-3     :     0.011768

  7 C s       :     2.768658  s :     2.768658
      pz      :     0.877536  p :     2.929382
      px      :     1.036453
      py      :     1.015393
      dz2     :     0.025220  d :     0.404450
      dxz     :     0.052894
      dyz     :     0.056597
      dx2y2   :     0.102179
      dxy     :     0.167560
      f0      :     0.003246  f :     0.044317
      f+1     :     0.003953
      f-1     :     0.003777
      f+2     :     0.008767
      f-2     :     0.001337
      f+3     :     0.011100
      f-3     :     0.012137

  8 C s       :     2.763324  s :     2.763324
      pz      :     0.949906  p :     2.964898
      px      :     0.975572
      py      :     1.039420
      dz2     :     0.026047  d :     0.374277
      dxz     :     0.013196
      dyz     :     0.073623
      dx2y2   :     0.144078
      dxy     :     0.117334
      f0      :     0.003327  f :     0.042475
      f+1     :     0.003391
      f-1     :     0.004474
      f+2     :     0.002486
      f-2     :     0.006188
      f+3     :     0.010393
      f-3     :     0.012217

  9 C s       :     2.710451  s :     2.710451
      pz      :     0.837319  p :     2.785283
      px      :     1.018846
      py      :     0.929119
      dz2     :     0.039043  d :     0.633193
      dxz     :     0.079123
      dyz     :     0.142494
      dx2y2   :     0.193658
      dxy     :     0.178874
      f0      :     0.005591  f :     0.077190
      f+1     :     0.004502
      f-1     :     0.006418
      f+2     :     0.011415
      f-2     :     0.010010
      f+3     :     0.017545
      f-3     :     0.021710

 10 N s       :     3.020900  s :     3.020900
      pz      :     1.530087  p :     3.855086
      px      :     1.138291
      py      :     1.186708
      dz2     :     0.007340  d :     0.144381
      dxz     :     0.012126
      dyz     :     0.033139
      dx2y2   :     0.045624
      dxy     :     0.046152
      f0      :     0.001190  f :     0.010645
      f+1     :     0.000558
      f-1     :     0.001061
      f+2     :     0.001504
      f-2     :     0.001756
      f+3     :     0.002433
      f-3     :     0.002144

 11 H s       :     0.796995  s :     0.796995
      pz      :     0.014265  p :     0.060258
      px      :     0.033173
      py      :     0.012821

 12 H s       :     0.797243  s :     0.797243
      pz      :     0.014542  p :     0.060427
      px      :     0.022408
      py      :     0.023477

 13 H s       :     0.798554  s :     0.798554
      pz      :     0.015243  p :     0.061283
      px      :     0.013113
      py      :     0.032928

 14 H s       :     0.793192  s :     0.793192
      pz      :     0.014390  p :     0.060254
      px      :     0.012846
      py      :     0.033018

 15 H s       :     0.795193  s :     0.795193
      pz      :     0.015853  p :     0.061187
      px      :     0.012846
      py      :     0.032489

 16 H s       :     0.796702  s :     0.796702
      pz      :     0.014030  p :     0.059742
      px      :     0.022468
      py      :     0.023244

 17 H s       :     0.799002  s :     0.799002
      pz      :     0.016240  p :     0.061075
      px      :     0.032690
      py      :     0.012145

 18 H s       :     0.723936  s :     0.723936
      pz      :     0.037548  p :     0.109954
      px      :     0.053934
      py      :     0.018472

 19 H s       :     0.725549  s :     0.725549
      pz      :     0.044220  p :     0.113301
      px      :     0.034202
      py      :     0.034878



                      *****************************
                      * MAYER POPULATION ANALYSIS *
                      *****************************

  NA   - Mulliken gross atomic population
  ZA   - Total nuclear charge
  QA   - Mulliken gross atomic charge
  VA   - Mayer's total valence
  BVA  - Mayer's bonded valence
  FA   - Mayer's free valence

  ATOM       NA         ZA         QA         VA         BVA        FA
  0 C      6.1119     6.0000    -0.1119     3.9031     3.9031     0.0000
  1 C      6.0969     6.0000    -0.0969     3.9228     3.9228     0.0000
  2 C      6.2520     6.0000    -0.2520     3.9195     3.9195     0.0000
  3 C      5.9399     6.0000     0.0601     3.6163     3.6163     0.0000
  4 C      5.8052     6.0000     0.1948     3.6605     3.6605     0.0000
  5 C      6.1707     6.0000    -0.1707     3.8468     3.8468     0.0000
  6 C      6.2946     6.0000    -0.2946     3.9261     3.9261     0.0000
  7 C      6.0377     6.0000    -0.0377     3.8823     3.8823     0.0000
  8 C      6.2848     6.0000    -0.2848     3.9699     3.9699     0.0000
  9 C      5.6994     6.0000     0.3006     3.7161     3.7161    -0.0000
 10 N      7.4264     7.0000    -0.4264     3.0504     3.0504    -0.0000
 11 H      0.8929     1.0000     0.1071     0.9766     0.9766     0.0000
 12 H      0.8931     1.0000     0.1069     0.9774     0.9774     0.0000
 13 H      0.9232     1.0000     0.0768     0.9915     0.9915     0.0000
 14 H      0.9016     1.0000     0.0984     0.9812     0.9812     0.0000
 15 H      0.9079     1.0000     0.0921     0.9851     0.9851    -0.0000
 16 H      0.8956     1.0000     0.1044     0.9744     0.9744     0.0000
 17 H      0.9186     1.0000     0.0814     0.9940     0.9940     0.0000
 18 H      0.7751     1.0000     0.2249     0.9568     0.9568    -0.0000
 19 H      0.7724     1.0000     0.2276     0.9514     0.9514    -0.0000

  Mayer bond orders larger than 0.100000
B(  0-C ,  1-C ) :   1.2703 B(  0-C ,  5-C ) :   1.5110 B(  0-C , 11-H ) :   0.9708 
B(  1-C ,  2-C ) :   1.5537 B(  1-C , 12-H ) :   0.9689 B(  2-C ,  3-C ) :   1.1664 
B(  2-C , 13-H ) :   0.9762 B(  3-C ,  4-C ) :   1.2179 B(  3-C ,  9-C ) :   1.1757 
B(  4-C ,  5-C ) :   1.2124 B(  4-C ,  6-C ) :   1.1880 B(  5-C , 14-H ) :   0.9826 
B(  6-C ,  7-C ) :   1.5061 B(  6-C , 15-H ) :   0.9964 B(  7-C ,  8-C ) :   1.3027 
B(  7-C , 16-H ) :   0.9705 B(  8-C ,  9-C ) :   1.4252 B(  8-C , 17-H ) :   0.9809 
B(  9-C , 10-N ) :   1.0821 B( 10-N , 18-H ) :   0.9229 B( 10-N , 19-H ) :   0.9127 


-------
TIMINGS
-------

Total SCF time: 0 days 0 hours 1 min 3 sec 

Total time                  ....      63.945 sec
Sum of individual times     ....      63.279 sec  ( 99.0%)

SCF preparation             ....       0.252 sec  (  0.4%)
Fock matrix formation       ....      61.177 sec  ( 95.7%)
  Startup                   ....       0.086 sec  (  0.1% of F)
  Split-RI-J                ....       9.072 sec  ( 14.8% of F)
  XC integration            ....      50.995 sec  ( 83.4% of F)
    XC Preparation          ....       0.000 sec  (  0.0% of XC)
    Basis function eval.    ....       7.144 sec  ( 14.0% of XC)
    Density eval.           ....      16.575 sec  ( 32.5% of XC)
    XC-Functional eval.     ....       3.229 sec  (  6.3% of XC)
    XC-Potential eval.      ....      22.213 sec  ( 43.6% of XC)
Diagonalization             ....       0.000 sec  (  0.0%)
Density matrix formation    ....       0.328 sec  (  0.5%)
Total Energy calculation    ....       0.049 sec  (  0.1%)
Population analysis         ....       0.044 sec  (  0.1%)
Orbital Transformation      ....       0.146 sec  (  0.2%)
Orbital Orthonormalization  ....       0.000 sec  (  0.0%)
DIIS solution               ....       0.757 sec  (  1.2%)
SOSCF solution              ....       0.527 sec  (  0.8%)
Finished LeanSCF after  64.1 sec

Maximum memory used throughout the entire LEANSCF-calculation: 50.5 MB

------------------------------------------------------------------------------
                         ORCA PROPERTY INTEGRAL CALCULATIONS
------------------------------------------------------------------------------

GBWName                                   ... censo.gbw
Number of atoms                           ...     20
Number of basis functions                 ...    395
Max core memory                           ...   1024 MB

Dipole integrals                          ... YES
Quadrupole integrals                      ...  NO
Linear momentum integrals                 ...  NO
Angular momentum integrals                ...  NO
Higher moments length integrals           ...  NO
Higher moments velocity integrals         ...  NO
Kinetic energy integrals                  ...  NO
GIAO right hand sides                     ...  NO
GIAO dipole derivative integrals          ...  NO
SOC integrals                             ...  NO
EPR diamagnetic integrals (GIAO)          ...  NO
EPR gauge integrals                       ...  NO
Field gradient integrals                  ...  NO (   0 nuclei)
Spin-dipole/Fermi contact integrals       ...  NO (   0 nuclei)
Contact density integrals                 ...  NO (   0 nuclei)
Nucleus-orbit integrals                   ...  NO (   0 nuclei)
Geometric perturbations                   ... YES (  20 nuclei)

Choice of electric origin   ... Center of mass
Position of electric origin ... ( -0.0005,  0.0017,  0.0130) 
Choice of magnetic origin   ... GIAO
Position of magnetic origin ... (  0.0000,  0.0000,  0.0000) 

Calculating integrals                     ... Electric Dipole (Length)     done (  0.1 sec)
Calculating integrals                     ... Geometrical perturbation right hand sides

-----------------------
GEOMETRIC PERTURBATIONS (20 nuclei)
-----------------------

MaxCore                            ...   1024 MB
Number of batches                  ...      1

BATCH   0: Atoms    0 -   19 ( 60 perturbations)
   => H(core) and overlap derivative integrals     ... done (     1.0 sec)
   => Making and storing internal U-coefficients   ... done (     0.7 sec)
   => RI-J derivative integrals                    ... done (    11.9 sec)
   => RI-J response operators                      ... done (     3.1 sec)
   => XC derivative integrals                      ... done (   674.5 sec)
   => XC response operators                        ... done (   188.6 sec)
   => Completing and storing right hand sides      ... done (     0.3 sec)
   => Total time for right hand sides = 884.5 sec

  geometrical perturbations done (884.5 sec)

Property integrals calculated in 884.6 sec

Maximum memory used throughout the entire PROPINT-calculation: 297.6 MB


-------------------------------------------------------------------------------
                          DFT DISPERSION CORRECTION                            
                                                                               
                                DFTD4 V3.4.0                                   
-------------------------------------------------------------------------------
The R2SCAN3C composite method is recognized
Using three-body term ABC
Active option DFTDOPT                   ...         5   

-------------------------   ----------------
Dispersion correction           -0.007963825
-------------------------   ----------------

------------------   -----------------
gCP correction             0.006836979
------------------   -----------------

-------------------------   --------------------
FINAL SINGLE POINT ENERGY      -441.168402885420
-------------------------   --------------------

------------------------------------------------------------------------------
                            ORCA SCF RESPONSE CALCULATION
------------------------------------------------------------------------------

GBWName                                 ... censo.gbw
Number of atoms                         ...     20
Number of basis functions               ...    395
Max core memory                         ...   1024 MB

Electric field perturbation             ...  NO
Quadrupolar field perturbation          ...  NO
Magnetic field perturbation (no GIAO)   ...  NO
Magnetic field perturbation (with GIAO) ...  NO
Linear momentum (velocity) perturbation ...  NO
Spin-orbit coupling perturbation        ...  NO
Choice of electric origin               ... Center of mass
Position of electric origin             ...    -0.000474     0.001720     0.012972
Choice of magnetic origin               ... GIAO
Position of magnetic origin             ...     0.000000     0.000000     0.000000
Nuclear geometric perturbations         ... YES (  60 perturbations)
Nucleus-orbit perturbations             ...  NO (   0 perturbations)
Spin-dipole/Fermi contact perturbations ...  NO (   0 perturbations)

Total number of real perturbations      ...     60
Total number of imaginary perturbations ...      0
Total number of triplet perturbations   ...      0
Total number of SOC perturbations       ...      0


                                **********************
                                * REAL PERTURBATIONS *
                                **********************



-------------------
SHARK CP-SCF DRIVER
-------------------

Dimension of the orbital basis          ...    395
Dimension of the CPSCF-problem          ...  13566
Number of operators                     ...      1
Max. number of iterations               ...    128
Convergence Tolerance                   ... 1.0e-03
Number of perturbations                 ...     60
Perturbation type                       ... REAL

----------------------------
POPLE LINEAR EQUATION SOLVER
----------------------------

  ITERATION   0:   ||err||_max =   4.3518e-01 (  60.0 sec   0/ 60 done)
  ITERATION   1:   ||err||_max =   6.2841e-02 (  64.0 sec   0/ 60 done)
  ITERATION   2:   ||err||_max =   2.4157e-02 (  64.8 sec   0/ 60 done)
  ITERATION   3:   ||err||_max =   6.1775e-03 (  64.0 sec  12/ 60 done)
  ITERATION   4:   ||err||_max =   2.0471e-03 (  52.8 sec  37/ 60 done)
  ITERATION   5:   ||err||_max =   7.9534e-04 (  26.3 sec  60/ 60 done)

CP-SCF equations solved in 334.8 sec
Response densities calculated in   0.2 sec

Maximum memory used throughout the entire SCFRESP-calculation: 207.0 MB

------------------------------------------------------------------------------
                              ORCA PROPERTY CALCULATIONS
------------------------------------------------------------------------------

GBWName                                 ... censo.gbw
Number of atoms                         ...     20
Number of basis functions               ...    395
Max core memory                         ...   1024 MB

Electric properties:
Dipole moment                           ... YES
Quadrupole moment                       ...  NO
Static polarizability (Dipole/Dipole)   ...  NO
Static polarizability (Dipole/Quad.)    ...  NO
Static polarizability (Quad./Quad.)     ...  NO
Static polarizability (Velocity)        ...  NO

Atomic electric properties:
Dipole moment                           ...  NO
Quadrupole moment                       ...  NO
Static polarizability                   ...  NO

Choice of electric origin               ... Center of mass
Position of electric origin             ...    -0.000474     0.001720     0.012972

General magnetic properties:
Magnetizability                         ...  NO

EPR properties:
g-Tensor (aka g-matrix)                 ...  NO
Zero-Field splitting spin-orbit         ...  NO
Zero-field splitting spin-spin          ...  NO
Hyperfine couplings                     ...  NO (   0 nuclei)
Quadrupole couplings                    ...  NO (   0 nuclei)
Contact density                         ...  NO (   0 nuclei)

NMR properties:
Chemical shifts                         ...  NO (   0 nuclei)
Spin-rotation constants                 ...  NO (   0 nuclei)
Spin-spin couplings                     ...  NO (   0 nuclei,    0 pairs)

Choice of magnetic origin               ... GIAO
Position of magnetic origin             ...     0.000000     0.000000     0.000000

Properties with geometric perturbations:
SCF Hessian                             ... YES
IR spectrum                             ... YES
VCD spectrum                            ...  NO
X-ray spectroscopy properties:
SCF XES/XAS/RIXS spectra                ...  NO


-------------
DIPOLE MOMENT
-------------

Method             : SCF
Type of density    : Electron Density
Multiplicity       :   1
Irrep              :   0
Energy             :  -441.1672760394519628 Eh
Relativity type    : 
Basis              : AO
                                X                 Y                 Z
Electronic contribution:     -0.242061875      -0.563375067       0.182616216
Nuclear contribution   :      0.506230689       1.069116979      -0.543509340
                        -----------------------------------------
Total Dipole Moment    :      0.264168814       0.505741912      -0.360893124
                        -----------------------------------------
Magnitude (a.u.)       :      0.675132499
Magnitude (Debye)      :      1.716050434



--------------------
Rotational spectrum 
--------------------
 
Rotational constants in cm-1:             0.064746             0.037601             0.023804 
Rotational constants in MHz :          1941.026598          1127.247573           713.620161 

Dipole components along the rotational axes: 
x,y,z [a.u.] :     0.262959     0.503971    -0.364238 
x,y,z [Debye]:     0.668388     1.280993    -0.925821 

 

Dipole moment calculation done in   0.1 sec 

-----------
SCF HESSIAN
-----------

Occupied/Occupied contributions to the Hessian:
   => Occupied/Occupied contributions              ... done (  0.0 sec)
Perturbed density contributions to the Hessian:
   => Perturbed density contributions              ... done (  0.1 sec)
Explicit contributions to the Hessian:
   => Nuclear repulsion Hessian                    ... done (  0.0 sec)
   => HCore and overlap Hessian                    ... done ( 37.5 sec)
   => RI-J Hessian                                 ... done ( 26.7 sec)
   => XC-Hessian                                   ... done (168.2 sec)
   => Van der Waals-Hessian                        ... done (  3.5 sec)
   => GCP-Hessian                                  ... done (  0.1 sec)
   => Explicit contributions done
Dipole derivatives                                 ... done (  0.3 sec)
Mass weighting the Hessian           ... done
Calculating normal modes             ... done
Scaling frequencies                  ... done

-----------------------
VIBRATIONAL FREQUENCIES
-----------------------

Scaling factor for frequencies =  1.000000000  (already applied!)

     0:       0.00 cm**-1
     1:       0.00 cm**-1
     2:       0.00 cm**-1
     3:       0.00 cm**-1
     4:       0.00 cm**-1
     5:       0.00 cm**-1
     6:     126.31 cm**-1
     7:     174.89 cm**-1
     8:     253.99 cm**-1
     9:     300.86 cm**-1
    10:     368.75 cm**-1
    11:     425.45 cm**-1
    12:     465.27 cm**-1
    13:     475.24 cm**-1
    14:     488.81 cm**-1
    15:     524.40 cm**-1
    16:     568.77 cm**-1
    17:     588.69 cm**-1
    18:     623.61 cm**-1
    19:     659.34 cm**-1
    20:     724.37 cm**-1
    21:     728.42 cm**-1
    22:     775.10 cm**-1
    23:     797.75 cm**-1
    24:     809.05 cm**-1
    25:     848.52 cm**-1
    26:     869.22 cm**-1
    27:     896.74 cm**-1
    28:     925.83 cm**-1
    29:     938.23 cm**-1
    30:     960.72 cm**-1
    31:    1038.38 cm**-1
    32:    1052.70 cm**-1
    33:    1113.63 cm**-1
    34:    1148.76 cm**-1
    35:    1166.72 cm**-1
    36:    1189.66 cm**-1
    37:    1202.73 cm**-1
    38:    1246.45 cm**-1
    39:    1277.03 cm**-1
    40:    1323.94 cm**-1
    41:    1387.11 cm**-1
    42:    1397.28 cm**-1
    43:    1437.54 cm**-1
    44:    1483.23 cm**-1
    45:    1489.20 cm**-1
    46:    1548.89 cm**-1
    47:    1609.52 cm**-1
    48:    1620.94 cm**-1
    49:    1649.07 cm**-1
    50:    1667.65 cm**-1
    51:    3148.88 cm**-1
    52:    3152.34 cm**-1
    53:    3160.66 cm**-1
    54:    3161.98 cm**-1
    55:    3172.40 cm**-1
    56:    3175.84 cm**-1
    57:    3183.73 cm**-1
    58:    3536.01 cm**-1
    59:    3637.35 cm**-1


------------
NORMAL MODES
------------

These modes are the Cartesian displacements weighted by the diagonal matrix
M(i,i)=1/sqrt(m[i]) where m[i] is the mass of the displaced atom
Thus, these vectors are normalized but *not* orthogonal

                  0          1          2          3          4          5    
      0       0.000000   0.000000   0.000000   0.000000   0.000000   0.000000
      1       0.000000   0.000000   0.000000   0.000000   0.000000   0.000000
      2       0.000000   0.000000   0.000000   0.000000   0.000000   0.000000
      3       0.000000   0.000000   0.000000   0.000000   0.000000   0.000000
      4       0.000000   0.000000   0.000000   0.000000   0.000000   0.000000
      5       0.000000   0.000000   0.000000   0.000000   0.000000   0.000000
      6       0.000000   0.000000   0.000000   0.000000   0.000000   0.000000
      7       0.000000   0.000000   0.000000   0.000000   0.000000   0.000000
      8       0.000000   0.000000   0.000000   0.000000   0.000000   0.000000
      9       0.000000   0.000000   0.000000   0.000000   0.000000   0.000000
     10       0.000000   0.000000   0.000000   0.000000   0.000000   0.000000
     11       0.000000   0.000000   0.000000   0.000000   0.000000   0.000000
     12       0.000000   0.000000   0.000000   0.000000   0.000000   0.000000
     13       0.000000   0.000000   0.000000   0.000000   0.000000   0.000000
     14       0.000000   0.000000   0.000000   0.000000   0.000000   0.000000
     15       0.000000   0.000000   0.000000   0.000000   0.000000   0.000000
     16       0.000000   0.000000   0.000000   0.000000   0.000000   0.000000
     17       0.000000   0.000000   0.000000   0.000000   0.000000   0.000000
     18       0.000000   0.000000   0.000000   0.000000   0.000000   0.000000
     19       0.000000   0.000000   0.000000   0.000000   0.000000   0.000000
     20       0.000000   0.000000   0.000000   0.000000   0.000000   0.000000
     21       0.000000   0.000000   0.000000   0.000000   0.000000   0.000000
     22       0.000000   0.000000   0.000000   0.000000   0.000000   0.000000
     23       0.000000   0.000000   0.000000   0.000000   0.000000   0.000000
     24       0.000000   0.000000   0.000000   0.000000   0.000000   0.000000
     25       0.000000   0.000000   0.000000   0.000000   0.000000   0.000000
     26       0.000000   0.000000   0.000000   0.000000   0.000000   0.000000
     27       0.000000   0.000000   0.000000   0.000000   0.000000   0.000000
     28       0.000000   0.000000   0.000000   0.000000   0.000000   0.000000
     29       0.000000   0.000000   0.000000   0.000000   0.000000   0.000000
     30       0.000000   0.000000   0.000000   0.000000   0.000000   0.000000
     31       0.000000   0.000000   0.000000   0.000000   0.000000   0.000000
     32       0.000000   0.000000   0.000000   0.000000   0.000000   0.000000
     33       0.000000   0.000000   0.000000   0.000000   0.000000   0.000000
     34       0.000000   0.000000   0.000000   0.000000   0.000000   0.000000
     35       0.000000   0.000000   0.000000   0.000000   0.000000   0.000000
     36       0.000000   0.000000   0.000000   0.000000   0.000000   0.000000
     37       0.000000   0.000000   0.000000   0.000000   0.000000   0.000000
     38       0.000000   0.000000   0.000000   0.000000   0.000000   0.000000
     39       0.000000   0.000000   0.000000   0.000000   0.000000   0.000000
     40       0.000000   0.000000   0.000000   0.000000   0.000000   0.000000
     41       0.000000   0.000000   0.000000   0.000000   0.000000   0.000000
     42       0.000000   0.000000   0.000000   0.000000   0.000000   0.000000
     43       0.000000   0.000000   0.000000   0.000000   0.000000   0.000000
     44       0.000000   0.000000   0.000000   0.000000   0.000000   0.000000
     45       0.000000   0.000000   0.000000   0.000000   0.000000   0.000000
     46       0.000000   0.000000   0.000000   0.000000   0.000000   0.000000
     47       0.000000   0.000000   0.000000   0.000000   0.000000   0.000000
     48       0.000000   0.000000   0.000000   0.000000   0.000000   0.000000
     49       0.000000   0.000000   0.000000   0.000000   0.000000   0.000000
     50       0.000000   0.000000   0.000000   0.000000   0.000000   0.000000
     51       0.000000   0.000000   0.000000   0.000000   0.000000   0.000000
     52       0.000000   0.000000   0.000000   0.000000   0.000000   0.000000
     53       0.000000   0.000000   0.000000   0.000000   0.000000   0.000000
     54       0.000000   0.000000   0.000000   0.000000   0.000000   0.000000
     55       0.000000   0.000000   0.000000   0.000000   0.000000   0.000000
     56       0.000000   0.000000   0.000000   0.000000   0.000000   0.000000
     57       0.000000   0.000000   0.000000   0.000000   0.000000   0.000000
     58       0.000000   0.000000   0.000000   0.000000   0.000000   0.000000
     59       0.000000   0.000000   0.000000   0.000000   0.000000   0.000000
                  6          7          8          9         10         11    
      0      -0.004541  -0.001550  -0.000925  -0.052499  -0.003702  -0.003341
      1      -0.008889  -0.003626  -0.003220  -0.137038  -0.026592  -0.000527
      2       0.094941   0.233994  -0.002189   0.000714  -0.015654  -0.101423
      3      -0.008343   0.000628  -0.002127  -0.128390  -0.015509  -0.001481
      4      -0.003202  -0.001876  -0.005496  -0.111153  -0.021375  -0.001172
      5      -0.176042   0.103027   0.139276   0.022076  -0.019419  -0.087951
      6      -0.009676   0.001249  -0.001955  -0.143344  -0.018021  -0.001032
      7       0.002291   0.001402  -0.000762   0.027452   0.010046  -0.006019
      8      -0.209456  -0.169221  -0.022055  -0.001284   0.031570   0.189319
      9      -0.001472   0.000578  -0.001542  -0.017962  -0.005838   0.002348
     10       0.006907   0.001581   0.003096   0.127780   0.020979   0.002749
     11      -0.036196  -0.209611  -0.163467   0.019629  -0.007188  -0.128118
     12      -0.000047   0.000392  -0.000304   0.005426  -0.000528  -0.000808
     13       0.004143   0.001266   0.002334   0.104592   0.019202   0.002827
     14       0.066832  -0.200199  -0.078633   0.002329   0.000022  -0.099249
     15       0.000562  -0.000815   0.000976   0.041080   0.009722  -0.002684
     16      -0.003824  -0.000748  -0.000357  -0.028239  -0.011228  -0.001926
     17       0.199563  -0.006219  -0.137601  -0.035702   0.042339   0.202323
     18      -0.001638  -0.000368  -0.001775  -0.051241  -0.009375  -0.002187
     19       0.002999   0.001017   0.001921   0.070281   0.012495   0.003250
     20       0.002176  -0.162350   0.227580   0.000365  -0.015698  -0.080839
     21      -0.000196  -0.002476  -0.001477  -0.044311  -0.010670  -0.002979
     22       0.001127   0.000338   0.001360  -0.000330  -0.004267   0.003248
     23      -0.150092   0.101034   0.117125   0.012618  -0.007751   0.083009
     24      -0.001610  -0.000783  -0.001973  -0.032531  -0.013186   0.003505
     25       0.000158  -0.000228   0.001566  -0.020434  -0.001449  -0.000452
     26      -0.108010   0.216955  -0.220790   0.015115  -0.005955  -0.009692
     27       0.000778   0.001344  -0.000878   0.032756   0.001280   0.004703
     28       0.004711   0.000464   0.002715   0.051210   0.007716   0.002137
     29       0.022846  -0.026806  -0.148113   0.007004  -0.010469  -0.138615
     30       0.022447  -0.004822   0.000558   0.332439   0.018533   0.013445
     31      -0.013481   0.001283  -0.010208  -0.043131   0.017014  -0.014898
     32       0.244401   0.020839   0.156974  -0.029904   0.007740   0.032027
     33      -0.003719  -0.002879  -0.000815  -0.032094  -0.000775  -0.003265
     34      -0.014943  -0.006745  -0.004695  -0.218655  -0.038465  -0.000348
     35       0.183496   0.495936   0.028090  -0.009913  -0.022503  -0.115732
     36      -0.010128   0.002449  -0.002888  -0.188188  -0.030731  -0.001163
     37      -0.001545  -0.002731  -0.010058  -0.168505  -0.035692  -0.001120
     38      -0.344077   0.227469   0.323554   0.016448  -0.015718  -0.072510
     39      -0.030249   0.002873   0.001358  -0.251165   0.002229  -0.005814
     40       0.013861   0.003336  -0.002795   0.063406   0.003166  -0.014261
     41      -0.416790  -0.254031   0.006186  -0.082224   0.102878   0.516993
[...]
     32       0.000050   0.000060   0.000031   0.000065  -0.030325   0.010452
     33       0.166025  -0.662998   0.010951   0.442298  -0.000070  -0.000105
     34       0.037748  -0.160751   0.001614   0.111519   0.000060  -0.000104
     35       0.001310  -0.005232   0.000060   0.003578   0.000080  -0.000063
     36      -0.463021   0.033143  -0.048130   0.460518   0.000015   0.000152
     37       0.476284  -0.027413   0.049295  -0.474057  -0.000078   0.000022
     38       0.009766  -0.000690   0.001031  -0.009922  -0.000217   0.000111
     39      -0.129306  -0.157145   0.018045  -0.144733  -0.003799   0.002804
     40      -0.497706  -0.598383   0.065838  -0.537601  -0.004095   0.003725
     41      -0.014319  -0.017140   0.001913  -0.015282   0.001537  -0.001549
     42       0.118825  -0.097233   0.016409   0.046009   0.000148   0.000039
     43       0.420558  -0.354911   0.051264   0.172003   0.000199  -0.000075
     44       0.004968  -0.004251   0.000617   0.001994  -0.000054   0.000098
     45       0.043778   0.009156   0.198952   0.013608   0.000262  -0.000023
     46       0.153435   0.027287   0.652621   0.047370   0.000909   0.000046
     47       0.000862   0.000166   0.003972   0.000256  -0.000385  -0.000146
     48       0.123123  -0.042913  -0.469703  -0.029296   0.000609  -0.000134
     49      -0.127439   0.044332   0.477641   0.029444  -0.000373  -0.000120
     50       0.000352  -0.000139  -0.001410  -0.000098  -0.000122  -0.000045
     51       0.097416  -0.042736  -0.248520  -0.029703   0.001088   0.001554
     52       0.022614  -0.009576  -0.059432  -0.006399   0.001407   0.001837
     53      -0.000136   0.000059   0.000345   0.000027  -0.002122  -0.000363
     54       0.001288   0.001049  -0.000453   0.000912  -0.712924  -0.639904
     55      -0.000856  -0.001607  -0.000930  -0.001258  -0.091156  -0.091209
     56       0.000132   0.000367   0.000220   0.000343   0.167452   0.173997
     57      -0.002910  -0.003543  -0.000246  -0.002790   0.417795  -0.440832
     58       0.001362   0.000963  -0.000726   0.001412  -0.451266   0.497672
     59      -0.001040  -0.001279  -0.000234  -0.001492   0.272254  -0.320898


-----------
IR SPECTRUM
-----------

 Mode   freq       eps      Int      T**2         TX        TY        TZ
       cm**-1   L/(mol*cm) km/mol    a.u.
----------------------------------------------------------------------------
  6:    126.31   0.000195    0.99  0.000483  (-0.001757  0.016723  0.014147)
  7:    174.89   0.000530    2.68  0.000945  ( 0.009047  0.001783  0.029323)
  8:    253.99   0.001268    6.41  0.001557  ( 0.009031  0.010565  0.036937)
  9:    300.86   0.000084    0.43  0.000088  (-0.004681  0.007556 -0.002918)
 10:    368.75   0.004397   22.22  0.003721  ( 0.042616 -0.043506 -0.003502)
 11:    425.45   0.003190   16.12  0.002340  (-0.003206  0.019970  0.043944)
 12:    465.27   0.000653    3.30  0.000438  ( 0.015002  0.014589 -0.000594)
 13:    475.24   0.000048    0.24  0.000032  ( 0.002343  0.005103  0.000526)
 14:    488.81   0.000448    2.26  0.000286  ( 0.000829 -0.014430 -0.008775)
 15:    524.40   0.000217    1.10  0.000129  ( 0.000018 -0.009812 -0.005756)
 16:    568.77   0.006244   31.55  0.003426  (-0.023129 -0.052339 -0.012303)
 17:    588.69   0.000239    1.21  0.000127  ( 0.004830 -0.008278 -0.005917)
 18:    623.61   0.036266  183.27  0.018148  (-0.047155 -0.103692 -0.071918)
 19:    659.34   0.016539   83.58  0.007828  ( 0.027386  0.065418  0.052897)
 20:    724.37   0.000470    2.37  0.000202  ( 0.007241 -0.006595 -0.010314)
 21:    728.42   0.000465    2.35  0.000199  (-0.002254 -0.012424 -0.006311)
 22:    775.10   0.022434  113.37  0.009032  (-0.003303 -0.000211 -0.094979)
 23:    797.75   0.000936    4.73  0.000366  ( 0.006348  0.010665  0.014557)
 24:    809.05   0.000264    1.33  0.000102  ( 0.006580  0.001120 -0.007562)
 25:    848.52   0.001277    6.45  0.000470  (-0.006906 -0.011969 -0.016691)
 26:    869.22   0.000620    3.13  0.000223  (-0.000803  0.003795  0.014411)
 27:    896.74   0.000292    1.48  0.000102  (-0.007430 -0.002839  0.006193)
 28:    925.83   0.000105    0.53  0.000035  ( 0.000967 -0.002586  0.005280)
 29:    938.23   0.000002    0.01  0.000001  ( 0.000574  0.000232  0.000490)
 30:    960.72   0.000044    0.22  0.000014  ( 0.000350 -0.000815 -0.003670)
 31:   1038.38   0.001882    9.51  0.000566  ( 0.023764 -0.000529  0.000822)
 32:   1052.70   0.000404    2.04  0.000120  (-0.009020  0.006189  0.000472)
 33:   1113.63   0.001644    8.31  0.000461  ( 0.002391 -0.021289  0.001367)
 34:   1148.76   0.001342    6.78  0.000365  ( 0.015425  0.010823 -0.003088)
 35:   1166.72   0.000310    1.57  0.000083  ( 0.003319 -0.008472 -0.000220)
 36:   1189.66   0.000301    1.52  0.000079  (-0.005765 -0.006756  0.000231)
 37:   1202.73   0.000479    2.42  0.000124  (-0.006645 -0.008916 -0.000740)
 38:   1246.45   0.000222    1.12  0.000056  (-0.004600 -0.005780  0.000988)
 39:   1277.03   0.000625    3.16  0.000153  ( 0.005152  0.011221 -0.000555)
 40:   1323.94   0.006632   33.51  0.001563  (-0.014200 -0.036889 -0.000830)
 41:   1387.11   0.000450    2.27  0.000101  (-0.009217  0.004012  0.000415)
 42:   1397.28   0.003444   17.41  0.000769  (-0.027395 -0.004299 -0.000538)
 43:   1437.54   0.007675   38.79  0.001666  ( 0.022906  0.033783  0.000439)
 44:   1483.23   0.002481   12.54  0.000522  ( 0.016208  0.015997 -0.001866)
 45:   1489.20   0.004375   22.11  0.000917  (-0.014512 -0.026575 -0.000214)
 46:   1548.89   0.004546   22.98  0.000916  ( 0.002338  0.030172  0.000447)
 47:   1609.52   0.006867   34.70  0.001331  ( 0.013466  0.033676  0.003991)
 48:   1620.94   0.001882    9.51  0.000362  ( 0.006214 -0.017703 -0.003228)
 49:   1649.07   0.001031    5.21  0.000195  ( 0.012993 -0.004579 -0.002289)
 50:   1667.65   0.025295  127.83  0.004733  (-0.026952 -0.060406  0.018922)
 51:   3148.88   0.002417   12.21  0.000240  ( 0.009222  0.012429 -0.000121)
 52:   3152.34   0.000369    1.87  0.000037  (-0.000762  0.005997 -0.000071)
 53:   3160.66   0.002334   11.79  0.000230  (-0.014445 -0.004664  0.000035)
 54:   3161.98   0.000623    3.15  0.000061  (-0.001902 -0.007596 -0.000423)
 55:   3172.40   0.005611   28.36  0.000552  ( 0.015499  0.017657  0.000031)
 56:   3175.84   0.004850   24.51  0.000477  ( 0.011745 -0.018403  0.000020)
 57:   3183.73   0.003254   16.44  0.000319  (-0.014203  0.010825 -0.000091)
 58:   3536.01   0.002351   11.88  0.000207  (-0.006709 -0.011683  0.005096)
 59:   3637.35   0.002759   13.94  0.000237  (-0.015090  0.002685 -0.001322)

* The epsilon (eps) is given for a Dirac delta lineshape.
** The dipole moment derivative (T) already includes vibrational overlap.

The first frequency considered to be a vibration is 6
The total number of vibrations considered is 54


--------------------------
THERMOCHEMISTRY AT 298.15K
--------------------------

Temperature         ...   298.15 K
Pressure            ...     1.00 atm
Total Mass          ...   143.19 AMU
Quasi RRHO          ...     True
Cut-Off Frequency   ...     1.00 cm^-1

Throughout the following assumptions are being made:
  (1) The electronic state is orbitally nondegenerate
  (2) There are no thermally accessible electronically excited states
  (3) Hindered rotations indicated by low frequency modes are not
      treated as such but are treated as vibrations and this may
      cause some error
  (4) All equations used are the standard statistical mechanics
      equations for an ideal gas
  (5) All vibrations are strictly harmonic

freq.     126.31  E(vib)   ...       0.43 
freq.     174.89  E(vib)   ...       0.38 
freq.     253.99  E(vib)   ...       0.30 
freq.     300.86  E(vib)   ...       0.26 
freq.     368.75  E(vib)   ...       0.21 
freq.     425.45  E(vib)   ...       0.18 
freq.     465.27  E(vib)   ...       0.16 
freq.     475.24  E(vib)   ...       0.15 
freq.     488.81  E(vib)   ...       0.15 
freq.     524.40  E(vib)   ...       0.13 
freq.     568.77  E(vib)   ...       0.11 
freq.     588.69  E(vib)   ...       0.10 
freq.     623.61  E(vib)   ...       0.09 
freq.     659.34  E(vib)   ...       0.08 
freq.     724.37  E(vib)   ...       0.06 
freq.     728.42  E(vib)   ...       0.06 
freq.     775.10  E(vib)   ...       0.05 
freq.     797.75  E(vib)   ...       0.05 
freq.     809.05  E(vib)   ...       0.05 
freq.     848.52  E(vib)   ...       0.04 
freq.     869.22  E(vib)   ...       0.04 
freq.     896.74  E(vib)   ...       0.03 
freq.     925.83  E(vib)   ...       0.03 
freq.     938.23  E(vib)   ...       0.03 
freq.     960.72  E(vib)   ...       0.03 
freq.    1038.38  E(vib)   ...       0.02 
freq.    1052.70  E(vib)   ...       0.02 
freq.    1113.63  E(vib)   ...       0.01 
freq.    1148.76  E(vib)   ...       0.01 
freq.    1166.72  E(vib)   ...       0.01 
freq.    1189.66  E(vib)   ...       0.01 
freq.    1202.73  E(vib)   ...       0.01 
freq.    1246.45  E(vib)   ...       0.01 
freq.    1277.03  E(vib)   ...       0.01 
freq.    1323.94  E(vib)   ...       0.01 
freq.    1387.11  E(vib)   ...       0.00 
freq.    1397.28  E(vib)   ...       0.00 
freq.    1437.54  E(vib)   ...       0.00 
freq.    1483.23  E(vib)   ...       0.00 
freq.    1489.20  E(vib)   ...       0.00 
freq.    1548.89  E(vib)   ...       0.00 
freq.    1609.52  E(vib)   ...       0.00 
freq.    1620.94  E(vib)   ...       0.00 
freq.    1649.07  E(vib)   ...       0.00 
freq.    1667.65  E(vib)   ...       0.00 
freq.    3148.88  E(vib)   ...       0.00 
freq.    3152.34  E(vib)   ...       0.00 
freq.    3160.66  E(vib)   ...       0.00 
freq.    3161.98  E(vib)   ...       0.00 
freq.    3172.40  E(vib)   ...       0.00 
freq.    3175.84  E(vib)   ...       0.00 
freq.    3183.73  E(vib)   ...       0.00 
freq.    3536.01  E(vib)   ...       0.00 
freq.    3637.35  E(vib)   ...       0.00 

------------
INNER ENERGY
------------

The inner energy is: U= E(el) + E(ZPE) + E(vib) + E(rot) + E(trans)
    E(el)   - is the total energy from the electronic structure calculation
              = E(kin-el) + E(nuc-el) + E(el-el) + E(nuc-nuc)
    E(ZPE)  - the the zero temperature vibrational energy from the frequency calculation
    E(vib)  - the the finite temperature correction to E(ZPE) due to population
              of excited vibrational states
    E(rot)  - is the rotational thermal energy
    E(trans)- is the translational thermal energy

Summary of contributions to the inner energy U:
Electronic energy                ...   -441.16840289 Eh
Zero point energy                ...      0.16334001 Eh     102.50 kcal/mol
Thermal vibrational correction   ...      0.00537640 Eh       3.37 kcal/mol
Thermal rotational correction    ...      0.00141627 Eh       0.89 kcal/mol
Thermal translational correction ...      0.00141627 Eh       0.89 kcal/mol
-----------------------------------------------------------------------
Total thermal energy                   -440.99685393 Eh


Summary of corrections to the electronic energy:
(perhaps to be used in another calculation)
Total thermal correction                  0.00820894 Eh       5.15 kcal/mol
Non-thermal (ZPE) correction              0.16334001 Eh     102.50 kcal/mol
-----------------------------------------------------------------------
Total correction                          0.17154896 Eh     107.65 kcal/mol


--------
ENTHALPY
--------

The enthalpy is H = U + kB*T
                kB is Boltzmann's constant
Total thermal energy              ...   -440.99685393 Eh 
Thermal Enthalpy correction       ...      0.00094421 Eh       0.59 kcal/mol
-----------------------------------------------------------------------
Total Enthalpy                    ...   -440.99590972 Eh


Note: Only C1 symmetry has been detected, increase convergence thresholds 
      if your molecule has a higher symmetry. Symmetry factor of 1.0 is   
      used for the rotational entropy correction. 
 

Note: Rotational entropy computed according to Herzberg 
Infrared and Raman Spectra, Chapter V,1, Van Nostrand Reinhold, 1945 
Point Group:  C1, Symmetry Number:   1  
Rotational constants in cm-1:     0.064746     0.037601     0.023804 

Vibrational entropy computed according to the QRRHO of S. Grimme
Chem.Eur.J. 2012 18 9955 using a reference frequency of 100.0 cm-1


-------
ENTROPY
-------

The entropy contributions are T*S = T*(S(el)+S(vib)+S(rot)+S(trans))
     S(el)   - electronic entropy
     S(vib)  - vibrational entropy
     S(rot)  - rotational entropy
     S(trans)- translational entropy
The entropies will be listed as multiplied by the temperature to get
units of energy

Electronic entropy                ...      0.00000000 Eh      0.00 kcal/mol
Vibrational entropy               ...      0.00830802 Eh      5.21 kcal/mol
Rotational entropy                ...      0.01411649 Eh      8.86 kcal/mol
Translational entropy             ...      0.01937968 Eh     12.16 kcal/mol
-----------------------------------------------------------------------
Final entropy term                ...      0.04180418 Eh     26.23 kcal/mol

In case the symmetry of your molecule has not been determined correctly
or in case you have a reason to use a different symmetry number we print 
out the resulting rotational entropy values for sn=1,12:

 non-linear molecules -----------------------------------
|  sn= 1 | S(rot)=       0.01411649 Eh      8.86 kcal/mol|
|  sn= 2 | S(rot)=       0.01346203 Eh      8.45 kcal/mol|
|  sn= 3 | S(rot)=       0.01307920 Eh      8.21 kcal/mol|
|  sn= 4 | S(rot)=       0.01280758 Eh      8.04 kcal/mol|
|  sn= 5 | S(rot)=       0.01259689 Eh      7.90 kcal/mol|
|  sn= 6 | S(rot)=       0.01242474 Eh      7.80 kcal/mol|
|  sn= 7 | S(rot)=       0.01227920 Eh      7.71 kcal/mol|
|  sn= 8 | S(rot)=       0.01215312 Eh      7.63 kcal/mol|
|  sn= 9 | S(rot)=       0.01204191 Eh      7.56 kcal/mol|
|  sn=10 | S(rot)=       0.01194243 Eh      7.49 kcal/mol|
|  sn=11 | S(rot)=       0.01185244 Eh      7.44 kcal/mol|
|  sn=12 | S(rot)=       0.01177029 Eh      7.39 kcal/mol|
 linear molecules ---------------------------------------
|  Dinfh | S(rot)=       0.00885507 Eh      5.56 kcal/mol|
|  Cinfv | S(rot)=       0.00950953 Eh      5.97 kcal/mol|
 --------------------------------------------------------


-------------------
GIBBS FREE ENERGY
-------------------

The Gibbs free energy is G = H - T*S

Total enthalpy                    ...   -440.99590972 Eh 
Total entropy correction          ...     -0.04180418 Eh    -26.23 kcal/mol
-----------------------------------------------------------------------
Final Gibbs free energy         ...   -441.03771390 Eh

For completeness - the Gibbs free energy minus the electronic energy
G-E(el)                           ...      0.13068899 Eh     82.01 kcal/mol


Maximum memory used throughout the entire PROP-calculation: 86.9 MB

--------------------------------
SUGGESTED CITATIONS FOR THIS RUN
--------------------------------

Below you find a list of papers that are relevant to this ORCA run
We neither can nor want to force you to cite these papers, but we appreciate if you do
You receive ORCA, which is the product of decades of hard work by many enthusiastic individuals, for free
The only thing we kindly ask in return is that you cite our papers,
We deeply appreciate it, if you show your appreciation for ORCA by not just citing the generic ORCA reference.

Please note that relegating all ORCA citations to the supporting information does *not* help us.
SI sections are not indexed - citations you put there will not count into any citation statistics
But we need these citations in order to attract the funding resources that allow us to do what we are doing

Therefore, if you are a happy ORCA user, please consider citing a few of the papers listed below in the main body of your paper

In addition to the list printed below, the program has created the file censo.bibtex that contains the list in bibtex format
You can import this file easily into all common literature databanks and citation aid programs


List of essential papers. We consider these as the minimum necessary citations

  1. Neese,F.
     Software update: the ORCA program system, version 5.0
     WIRES Comput. Molec. Sci., 2022 12(1)e1606
     doi.org/10.1002/wcms.1606
  2. Grimme,S.; Hansen,A.; Ehlert,S.; Mewes,J.
     r2SCAN-3c: A 'Swiss army knife' composite electronic-structure method
     J. Chem. Phys., 2021 154 064103
     doi.org/10.1063/5.0040021

List of papers to cite with high priority. The work reported in these papers was absolutely
necessary for this run to complete.
Our perspective: the developers of density functionals and basis sets usually get cited in chemistry papers
Good! But without the algorithms to do something with them, the functionals or basis sets would not do anything.
Hence, in our opinion, the algorithm design and method developments papers are equally worthy of getting cited

  1. Neese,F.
     An improvement of the resolution of the identity approximation for the formation of the Coulomb matrix
     J. Comp. Chem., 2003 24(14)1740-1747
     doi.org/10.1002/jcc.10318
  2. Bykov,D.; Petrenko,T.; Izsak,R.; Kossmann,S.; Becker,U.; Valeev,E.; Neese,F.
     Efficient implementation of the analytic second derivatives of Hartree-Fock and hybrid DFT energies: a detailed analysis of different approximations
     Molec. Phys., 2015 113 1961-1977
     doi.org/10.1080/00268976.2015.1025114
  3. Neese,F.
     The SHARK Integral Generation and Digestion System
     J. Comp. Chem., 2022  1-16
     doi.org/10.1002/jcc.26942
  4. Lehtola,S.; Steigemann,C.; Oliveira,M.; Marques,M.
     Recent developments in Libxc - A comprehensive library of functionals for density functional theory
     Software X, 2018 7 
     doi.org/10.1016/j.softx.2017.11.002
  5. Caldeweyher,E.; Bannwarth,C.; Grimme,S.
     Extension of the D3 dispersion coefficient model
     J. Chem. Phys., 2017 147 034112-XXXX
     doi.org/10.1063/1.4993215
  6. Caldeweyher,E.; Ehlert,S.; Hansen,A.; Neugebauer,H.; Spicher,S.; Bannwarth,C.; Grimme,S.
     A generally applicable atomic-charge dependent London dispersion correction
     J. Chem. Phys., 2019 150 154122-XXXX
     doi.org/10.1063/1.5090222
  7. Caldeweyher,E.; Mewes,J.; Ehlert,S.; Grimme,S.
     Extension and evaluation of the D4 London-dispersion model for periodic systems
     Phys. Chem. Chem. Phys., 2020 22(16)8499-8512
     doi.org/10.1039/D0CP00502A

List of suggested additional citations. These are papers that are important in the 'surrounding' of 
of this run, or papers that preceded the highly important papers. If you like your results we are grateful for a citation.

  1. Neese,F.
     The ORCA program system
     WIRES Comput. Molec. Sci., 2012 2(1)73-78
     doi.org/10.1002/wcms.81
  2. Neese,F.
     Software update: the ORCA program system, version 4.0
     WIRES Comput. Molec. Sci., 2018 8(1)1-6
     doi.org/10.1002/wcms.1327
  3. Neese,F.; Wennmohs,F.; Becker,U.; Riplinger,C.
     The ORCA quantum chemistry program package
     J. Chem. Phys., 2020 152 Art. No. L224108
     doi.org/10.1063/5.0004608

List of optional additional citations

  1. Neese,F.
     Approximate second-order SCF convergence for spin unrestricted wavefunctions
     Chem. Phys. Lett., 2000 325(1-3)93-98
     doi.org/10.1016/s0009-2614(00)00662-x

Timings for individual modules:

Sum of individual times          ...     1526.151 sec (=  25.436 min)
Startup calculation              ...        1.785 sec (=   0.030 min)   0.1 %
SCF iterations                   ...       66.465 sec (=   1.108 min)   4.4 %
Property integrals               ...      884.743 sec (=  14.746 min)  58.0 %
SCF Response                     ...      336.546 sec (=   5.609 min)  22.1 %
Property calculations            ...      236.611 sec (=   3.944 min)  15.5 %
                             ****ORCA TERMINATED NORMALLY****
TOTAL RUN TIME: 0 days 0 hours 25 minutes 26 seconds 894 msec
