15
 energy: -15.772759244297 gnorm: 0.018654462643 xtb: 6.7.1 (edcfbbe)
C           -2.18962781072056        0.28322949952551        0.37376204121408
C           -0.99225902035239        0.21697819073395       -0.58379758945245
C            0.00055761863043       -0.82493266642915       -0.16832704187651
C            1.28409319846434       -0.61612487189513        0.13112287134115
C            1.98968214055354        0.71347246352249        0.08909380471414
H           -1.86225353122339        0.54374618808835        1.38462318890400
H           -2.69910492863383       -0.68422291046368        0.42791904281334
H           -2.91810935265453        1.03050430746864        0.04469782355995
H           -1.35914050172071       -0.01680571070886       -1.59305466731657
H           -0.51322243418144        1.19930550879618       -0.64604275559693
H           -0.38772278100384       -1.84072150644537       -0.09270537682770
H            1.88188974958154       -1.47403379658681        0.43174554900928
H            3.04113413545845        0.60731556942949        0.36422637131667
H            1.53939257082309        1.43349608276515        0.78200533511008
H            1.95422227340491        1.16187262908024       -0.90987354756598
15
 energy: -15.773375491876 gnorm: 0.005768597351 xtb: 6.7.1 (edcfbbe)
C           -2.18027372537106        0.27899395057497        0.37300746200398
C           -0.99022536683427        0.22261621513667       -0.58475675817878
C           -0.00003908099994       -0.81486398747096       -0.16096409441052
C            1.27642118313895       -0.60849581088507        0.13347150484926
C            1.98370173095173        0.71174204064866        0.08926193031611
H           -1.84985364839174        0.54190181809123        1.37719138353114
H           -2.68226510685995       -0.68718445390418        0.42144512679163
H           -2.90187338148145        1.02406284720619        0.04069006214451
H           -1.35780711874598       -0.02304864655541       -1.58818336399000
H           -0.51478357727385        1.20378783016114       -0.63590856979736
H           -0.39269905946076       -1.82346224464604       -0.09103911703064
H            1.88009310148520       -1.45851207671244        0.42700669659719
H            3.03076441876482        0.59618833230156        0.36333744838302
H            1.52786961646512        1.42213747036394        0.78130365995015
H            1.94050134103877        1.14721569257075       -0.91046832181312
15
 energy: -15.773420559860 gnorm: 0.001682051445 xtb: 6.7.1 (edcfbbe)
C           -2.17728452085698        0.27824554047303        0.37294622192749
C           -0.98845338284773        0.22524317462329       -0.58564343879367
C            0.00081451513993       -0.81433208109117       -0.16340844977272
C            1.27531589461697       -0.60953265538241        0.13137345239598
C            1.98119858881473        0.71129984372953        0.08844110637283
H           -1.84433542501329        0.53906879644265        1.37509282649379
H           -2.67497277104700       -0.68814449454363        0.41888474028844
H           -2.89919331395493        1.02231153926325        0.04376642804099
H           -1.35459561371830       -0.02232186261502       -1.58732593071803
H           -0.51429203814215        1.20555292979754       -0.63306170719153
H           -0.39953879176908       -1.81767385837549       -0.08952559551208
H            1.87966354441793       -1.45480639251509        0.43229319064908
H            3.02572539600096        0.59598383459455        0.36509986281861
H            1.52148273758724        1.41934383290187        0.77759921442386
H            1.93799650719730        1.14284082957810       -0.91113687207647
15
 energy: -15.773428259135 gnorm: 0.000907444696 xtb: 6.7.1 (edcfbbe)
C           -2.17559214993927        0.27740121349386        0.37282072488941
C           -0.98668298963088        0.22759452384092       -0.58666426549923
C            0.00002039230369       -0.81466565926887       -0.16101179456357
C            1.27416577604771       -0.61118838406169        0.13518806122424
C            1.97939556756068        0.71133338481343        0.08751595687459
H           -1.84110549808297        0.53612425040473        1.37480924226843
H           -2.67136590457630       -0.68963297641428        0.41680038522458
H           -2.89828258017731        1.02148344446846        0.04619918882870
H           -1.35063326642448       -0.01914050653122       -1.58866295126368
H           -0.51258671983134        1.20744683953063       -0.63135040846852
H           -0.40566694178028       -1.81580700213109       -0.09122680793615
H            1.88106841972368       -1.45490180768217        0.43483895923606
H            3.02313738017776        0.59782574995707        0.36568086537415
H            1.51747469858828        1.42008688143017        0.77377534028704
H            1.93618514246664        1.13911902503106       -0.91331744712947
15
 energy: -15.773430240270 gnorm: 0.000366307376 xtb: 6.7.1 (edcfbbe)
C           -2.17547149935393        0.27728850798334        0.37284552244606
C           -0.98602963485243        0.22794019137837       -0.58636443278983
C            0.00053014378626       -0.81553103169134       -0.16254250547983
C            1.27478131329052       -0.61218593809648        0.13427658271581
C            1.97889978414133        0.71132804260403        0.08706349284660
H           -1.84093768075974        0.53456130695978        1.37556027291645
H           -2.67180940065529       -0.68991963804821        0.41563295803653
H           -2.89843217587195        1.02206057344937        0.04732056903395
H           -1.35005325189172       -0.01681425473161       -1.58902434737758
H           -0.51155926679615        1.20787687353647       -0.63012131008681
H           -0.40686815018823       -1.81614265334103       -0.09048990932297
H            1.88136367607445       -1.45525094512863        0.43708619677048
H            3.02259634108012        0.59921229287080        0.36740168281061
H            1.51512674161751        1.42116168186622        0.77156979783660
H            1.93739438680485        1.13749396726991       -0.91481952100951
15
 energy: -15.773431028679 gnorm: 0.000176986322 xtb: 6.7.1 (edcfbbe)
C           -2.17559606553468        0.27710083639128        0.37277924271572
C           -0.98584905281615        0.22798375068352       -0.58578245147087
C            0.00047302681677       -0.81548670982343       -0.16202091475790
C            1.27472010456296       -0.61209640720657        0.13463922614887
C            1.97879780465907        0.71118548023147        0.08671227019322
H           -1.84173381465949        0.53345326834231        1.37599517712380
H           -2.67264927672917       -0.68986712956206        0.41462659079959
H           -2.89802938038707        1.02247482778784        0.04738670574179
H           -1.34960507507109       -0.01577963609402       -1.58895820659893
H           -0.51112916001901        1.20794081003711       -0.62874711048598
H           -0.40644964997082       -1.81636451695913       -0.09047067275402
H            1.88143000585528       -1.45530888730054        0.43673207553406
H            3.02228051815096        0.59972268090000        0.36853683994259
H            1.51420556830625        1.42193677351483        0.76974862841097
H            1.93866577326178        1.13618383593839       -0.91578235119632
15
 energy: -15.773432692016 gnorm: 0.000439473123 xtb: 6.7.1 (edcfbbe)
C           -2.17603527447632        0.27642125437685        0.37267980023989
C           -0.98528726922235        0.22858660085857       -0.58419369274606
C            0.00034343177216       -0.81533888387562       -0.16092570480978
C            1.27476120758412       -0.61210164151156        0.13482602617057
C            1.97858777834614        0.71089035410097        0.08564302102834
H           -1.84350860426498        0.52963174987040        1.37711011672571
H           -2.67459211458667       -0.68991782827730        0.41131570176987
H           -2.89695208463525        1.02362444446108        0.04826647548525
H           -1.34786893814209       -0.01288587785433       -1.58850437116169
H           -0.51009777111063        1.20847624235827       -0.62478586395923
H           -0.40636289323193       -1.81626429497250       -0.08945017959868
H            1.88186883036419       -1.45539865920802        0.43560151522088
H            3.02074538032576        0.60118885262405        0.37324427169082
H            1.51034880081142        1.42429745577109        0.76332909424958
H            1.94358084689203        1.13186920815905       -0.91876116095888
15
 energy: -15.773436111819 gnorm: 0.000953244275 xtb: 6.7.1 (edcfbbe)
C           -2.17793438589484        0.27481623068211        0.37264364556016
C           -0.98437624867661        0.23029820310716       -0.58038001985433
C            0.00016237598650       -0.81476656340117       -0.15839393555903
C            1.27530084654687       -0.61218561036570        0.13471310444714
C            1.97908969699666        0.71036568200534        0.08300819207698
H           -1.84832122830638        0.52059934065711        1.37993339670428
H           -2.67935535523617       -0.69039196575705        0.40339458988196
H           -2.89575593038580        1.02605946001609        0.05071049211564
H           -1.34380973637296       -0.00654098362499       -1.58713372738294
H           -0.50867735083831        1.21022680723548       -0.61571388261055
H           -0.40649658223473       -1.81566595201544       -0.08698383800389
H            1.88311318965261       -1.45589703084874        0.43265862859135
H            3.01750815825395        0.60427213664742        0.38590855532033
H            1.50122797901304        1.43028310189326        0.74714101626015
H            1.95785589792178        1.12160612065012       -0.92611116820069
15
 energy: -15.773441526913 gnorm: 0.001885849178 xtb: 6.7.1 (edcfbbe)
C           -2.18251329983744        0.27125035624875        0.37272133018732
C           -0.98321635219144        0.23423264875271       -0.57296441805996
C           -0.00007919524538       -0.81287691485561       -0.15371411335708
C            1.27668772732715       -0.61213122679438        0.13353610195505
C            1.98141644852859        0.70937258048018        0.07801350448568
H           -1.85868227760601        0.50313819225903        1.38531768464307
H           -2.68841148930738       -0.69214267754400        0.38822477593289
H           -2.89497487142738        1.02956523151311        0.05548622224621
H           -1.33634743439227        0.00533743453195       -1.58402068429129
H           -0.50743622290796        1.21453291676637       -0.59849003277843
H           -0.40755334415041       -1.81329747612772       -0.08123614813988
H            1.88554779422064       -1.45694276342891        0.42593889948422
H            3.01147542935959        0.60960870461121        0.41250736143317
H            1.48428923211181        1.44235813525439        0.71415330233772
H            1.98932918194351        1.10107383521392       -0.94007873673214
15
 energy: -15.773448296652 gnorm: 0.002013421033 xtb: 6.7.1 (edcfbbe)
C           -2.18695284276214        0.26844726597332        0.37275094170286
C           -0.98317033923961        0.23747638278920       -0.56746979678884
C           -0.00022135547477       -0.81067815944430       -0.15026671912753
C            1.27799120262277       -0.61173525735536        0.13205546672238
C            1.98463207484090        0.70859002994617        0.07440068811794
H           -1.86747724923976        0.49115212395653        1.38878245931309
H           -2.69442292669154       -0.69418242450249        0.37755930176033
H           -2.89660578027779        1.03064744643075        0.05865038497631
H           -1.33129245183369        0.01333168936131       -1.58128541608724
H           -0.50842070674186        1.21838009137092       -0.58633376943039
H           -0.40865416417721       -1.81059633201538       -0.07674438454503
H            1.88710979665703       -1.45766228706097        0.42071811003799
H            3.00737024488155        0.61272806625761        0.43213959174491
H            1.47457127110054        1.45078462365656        0.68933356603969
H            2.01507455276118        1.08639571751711       -0.94889537508991
15
 energy: -15.773463139296 gnorm: 0.001131277676 xtb: 6.7.1 (edcfbbe)
C           -2.19413301323336        0.26412077874286        0.37275051267146
C           -0.98428476956441        0.24262373102404       -0.56058881477686
C           -0.00037100574255       -0.80626221192298       -0.14600505231355
C            1.27997936296675       -0.61051590246959        0.12930270937507
C            1.99120420330443        0.70757302780389        0.07000010017006
H           -1.88066624327705        0.47732330267820        1.39245607626111
H           -2.70071843188437       -0.69863713441310        0.36503182407673
H           -2.90223276362943        1.02885667592583        0.06174598783603
H           -1.32545450351087        0.02302572874837       -1.57739437799796
H           -0.51253420103525        1.22490339904376       -0.57152701515584
H           -0.41097025439449       -1.80513233105075       -0.06997871855757
H            1.88855379365654       -1.45849786538778        0.41345988653178
H            3.00283584300383        0.61494824515493        0.45738158988896
H            1.46649659006236        1.46112013865417        0.65686007523970
H            2.05182671970349        1.06762939434916       -0.95809973390260
15
 energy: -15.773414296734 gnorm: 0.007841846009 xtb: 6.7.1 (edcfbbe)
C           -2.21383762710315        0.25059856547221        0.37291431643468
C           -0.98694179557884        0.25867222412531       -0.54043190397595
C           -0.00096268482661       -0.79304172983174       -0.13450598473866
C            1.28489027450061       -0.60690464007431        0.12261881927301
C            2.00964763123448        0.70431418316476        0.05663525497147
H           -1.91839800811607        0.43729823443518        1.40373284613250
H           -2.71657985106996       -0.71379564001988        0.32945334084412
H           -2.91906605518807        1.02143847151206        0.07021500684873
H           -1.30812322338043        0.05576633909395       -1.56721506922445
H           -0.52343947845121        1.24521035505299       -0.52555487372336
H           -0.41808592685413       -1.78893337703433       -0.05226157938351
H            1.89136278001839       -1.46084943335486        0.39469948485558
H            2.98859860451224        0.62146988570048        0.53393975960785
H            1.44018981330722        1.49353424191353        0.55864126410631
H            2.16027687342118        1.00830129672562       -0.98748563268182
15
 energy: -15.773485518989 gnorm: 0.001577104779 xtb: 6.7.1 (edcfbbe)
C           -2.20922015261723        0.25422796454325        0.37256077646389
C           -0.98770417452326        0.25466738024829       -0.54737527790074
C           -0.00076767402675       -0.79521504274210       -0.13864824877306
C            1.28349384786767       -0.60717042106049        0.12403909850708
C            2.00689961028841        0.70518509806052        0.06136854467920
H           -1.90834022473161        0.45424489913849        1.39850500596758
H           -2.70797024911451       -0.71193936470331        0.34371159752095
H           -2.91935145947593        1.01850472990253        0.06492270588677
H           -1.31493042480963        0.04467996163726       -1.57025421572215
H           -0.52385917404579        1.24069083409859       -0.54151621720781
H           -0.41676708379022       -1.79167098094426       -0.05765545287943
H            1.88906436742263       -1.45994626256546        0.40144853603243
H            2.99463692055740        0.61662171323718        0.50642269540782
H            1.45696748511452        1.48155156875223        0.59176062751909
H            2.12737971230993        1.02864689927826       -0.97389512615513
15
 energy: -15.773494028931 gnorm: 0.001172902367 xtb: 6.7.1 (edcfbbe)
C           -2.21163156697021        0.25194204845655        0.37226605966622
C           -0.98810257955326        0.25742453329550       -0.54452888382955
C           -0.00122809953751       -0.79291490016917       -0.13733405438089
C            1.28362296526126       -0.60647761057338        0.12346346584085
C            2.00945601938785        0.70420628947993        0.05959635466051
H           -1.91394660412992        0.45131956090881        1.39938542853023
H           -2.70760918540819       -0.71567154324963        0.34096486734387
H           -2.92346854217294        1.01452008089765        0.06397387676538
H           -1.31267643600085        0.05146964163464       -1.56921532836465
H           -0.52532427183539        1.24396776237080       -0.53394532991363
H           -0.41773203709120       -1.78913450409426       -0.05578307136118
H            1.88846328100087       -1.46035920654392        0.39920057338540
H            2.99189221890765        0.61777971557390        0.51589096051070
H            1.45586689041332        1.48581724026178        0.57768183753765
H            2.14194927415417        1.01918986863180       -0.97622170704441
15
 energy: -15.773443495387 gnorm: 0.009275119092 xtb: 6.7.1 (edcfbbe)
C           -2.23400982542854        0.23292904347042        0.37034963463879
C           -0.99130566149548        0.28074218732376       -0.51763841645738
C           -0.00460583626597       -0.77363615575524       -0.12478174817021
C            1.28558362702711       -0.60021419266900        0.11842648471643
C            2.03150019602718        0.69633004680359        0.04254572481676
H           -1.96481771851026        0.42239791802478        1.40805909225915
H           -2.70829305668103       -0.74552265697518        0.31327123431474
H           -2.95726051328417        0.98403378445072        0.05892098761429
H           -1.29100739464294        0.10921741875249       -1.55813744127545
H           -0.53766539037049        1.27164509825123       -0.46501523888784
H           -0.42459632907472       -1.76829868893253       -0.04118069987316
H            1.88540648486414       -1.46300392250980        0.37817275576854
H            2.96698883872602        0.62823965819813        0.60499215801376
H            1.43782986415444        1.52286484510276        0.44933868887469
H            2.27578404138039        0.93535459334484       -1.00192816700667
15
 energy: -15.773524849073 gnorm: 0.001599743341 xtb: 6.7.1 (edcfbbe)
C           -2.22338074716142        0.24185434396641        0.37104481774315
C           -0.98960852355733        0.27010822037730       -0.52960927878412
C           -0.00319409732485       -0.78249942597107       -0.13062926142660
C            1.28432818771590       -0.60289839103961        0.12131067160281
C            2.02092053611844        0.69967065106785        0.05023229832766
H           -1.94204520762385        0.43881135775749        1.40344030302381
H           -2.70592309182016       -0.73250293017200        0.32804211788412
H           -2.94254408773414        0.99615850419216        0.05905954472297
H           -1.30069597837568        0.08396096698558       -1.56300964061952
H           -0.53142114305728        1.25869818015922       -0.49531382771388
H           -0.42079962608074       -1.77828786422381       -0.04934021771304
H            1.88648827880968       -1.46151785728551        0.38812795405432
H            2.97799810502419        0.62357470926147        0.56222503778068
H            1.44695474126692        1.50419824728581        0.50897334243215
H            2.21245398022597        0.97375026451969       -0.98915881196805
15
 energy: -15.773533394112 gnorm: 0.000865592986 xtb: 6.7.1 (edcfbbe)
C           -2.22704663482137        0.23983727733983        0.37086084419658
C           -0.99041942087602        0.27296746545437       -0.52606437426196
C           -0.00338964654983       -0.77990383992478       -0.12856894037704
C            1.28518913092018       -0.60222117964188        0.11991910571654
C            2.02464410835523        0.69886052779833        0.04866801150262
H           -1.94979138524555        0.43692749210464        1.40417610686211
H           -2.70580184684971       -0.73615067958063        0.32512840592770
H           -2.94755476461100        0.99187628717147        0.05694174778695
H           -1.29808678575447        0.08936592979379       -1.56060128002716
H           -0.53419026901815        1.26212232373420       -0.48741664930094
H           -0.42190719090000       -1.77535669674477       -0.04675581945144
H            1.88679442550848       -1.46227225071661        0.38364377756339
H            2.97544822554349        0.62478197948402        0.57138597977538
H            1.44672823765130        1.50720630375073        0.49395506850709
H            2.22891514307308        0.96503803685827       -0.98987693507335
15
 energy: -15.773554591432 gnorm: 0.003049871172 xtb: 6.7.1 (edcfbbe)
C           -2.24207244742801        0.22985141399109        0.36976275611747
C           -0.99261305271449        0.28623961478306       -0.50863058026460
C           -0.00431331346155       -0.76909856941573       -0.11969900710082
C            1.28826903151786       -0.59957738278908        0.11392656378198
C            2.03854088456077        0.69454022287818        0.03919280693154
H           -1.98351426669045        0.42417336524272        1.40863947172227
H           -2.70637770658624       -0.75245737722826        0.31024084623393
H           -2.96785231381881        0.97394389918534        0.04900012633678
H           -1.28438233694374        0.12008458099377       -1.55077336973029
H           -0.54355767448142        1.27761263511261       -0.44604199055676
H           -0.42597145274822       -1.76323618814682       -0.03650277931031
H            1.88768565133180       -1.46482638756984        0.36593607113436
H            2.95835553568463        0.63370068752536        0.61993872121113
H            1.44061423033712        1.52354935348885        0.41756113129900
H            2.30672055786643        0.91857910882972       -0.99715571845924
15
 energy: -15.773565275963 gnorm: 0.001871402640 xtb: 6.7.1 (edcfbbe)
C           -2.24232978702521        0.22934734559930        0.36951077469229
C           -0.99234791072344        0.28672608516295       -0.50731945240697
C           -0.00430980624498       -0.76903104246441       -0.11937892971625
C            1.28818954170832       -0.59958030477869        0.11371530439061
C            2.03832725305501        0.69421097541274        0.03827078256579
H           -1.98491425699717        0.42318171419097        1.40879154986036
H           -2.70650511513748       -0.75293178152877        0.30942346132475
H           -2.96801892186947        0.97348839699828        0.04845061159752
H           -1.28317713831510        0.12297180243559       -1.55024675267297
H           -0.54332696407862        1.27793103057785       -0.44242396255015
H           -0.42577025148166       -1.76321206165488       -0.03655950073849
H            1.88778152160729       -1.46463693440059        0.36554468399256
H            2.95514578701688        0.63568533628104        0.62251967303454
H            1.44026425898876        1.52407072023717        0.41164442892282
H            2.31052311592253        0.91485769481242       -0.99654762294997
15
 energy: -15.773591698152 gnorm: 0.003602478788 xtb: 6.7.1 (edcfbbe)
C           -2.25503492584649        0.21916563124775        0.36753376904383
C           -0.99408518105903        0.29844214724337       -0.48973524292114
C           -0.00549421750442       -0.75978061270885       -0.11173877582124
C            1.28974498316507       -0.59629958359485        0.10877249836692
C            2.04951951757037        0.68995222752806        0.02737195490715
H           -2.01476094009515        0.40438796359931        1.41283111460157
H           -2.71012675846040       -0.76655214884909        0.29135005433563
H           -2.98331997514066        0.96026089311718        0.04451746501130
H           -1.26960794204517        0.15649464184364       -1.54091236987974
H           -0.55123387594303        1.29072626851231       -0.39884751171354
H           -0.42830467609182       -1.75318485883508       -0.02796735504641
H            1.88825274356265       -1.46460267072527        0.35198619637128
H            2.92846136677004        0.65065775531179        0.67063025909989
H            1.43638462099111        1.53965570569389        0.32751769335112
H            2.38913658655260        0.86375561749680       -0.99791470036021
15
 energy: -15.773619399802 gnorm: 0.001475285041 xtb: 6.7.1 (edcfbbe)
C           -2.25719955920908        0.21671751813742        0.36699171592998
C           -0.99538083588402        0.30011138561045       -0.48735955102450
C           -0.00613553229421       -0.75759877694549       -0.11058304510189
C            1.28963551328929       -0.59452894675312        0.10769068161694
C            2.05254113238251        0.68957451217629        0.02490501842797
H           -2.01829742445458        0.39359921120004        1.41392504864415
H           -2.71463399633975       -0.76735806771864        0.28306773871038
H           -2.98353439682829        0.96173560542743        0.04873619040319
H           -1.26892530719846        0.16146178282063       -1.53905205108882
H           -0.55422887140673        1.29232572200488       -0.39285145716763
H           -0.42887524931162       -1.75089635922426       -0.02465293425728
H            1.88794839193612       -1.46313795519254        0.35095413045566
H            2.91959004812232        0.65654162751293        0.68084180865495
H            1.43884422878000        1.54242952243304        0.30640121631932
H            2.40818318484217        0.85210219539191       -0.99361946117601
15
 energy: -15.773629303644 gnorm: 0.000451846895 xtb: 6.7.1 (edcfbbe)
C           -2.25739220191683        0.21642775003050        0.36845335303815
C           -0.99659342494840        0.30097911690567       -0.48938202264722
C           -0.00629912090788       -0.75646333317428       -0.11245775072086
C            1.28953418358467       -0.59379523842908        0.10785215780085
C            2.05396760191644        0.68999685810622        0.02556638673247
H           -2.01592393107452        0.38881471417160        1.41520665212544
H           -2.71466590722702       -0.76689617153659        0.28042999423401
H           -2.98397171497113        0.96270616929535        0.05438744556302
H           -1.27157660486782        0.16006012615851       -1.54005315442585
H           -0.55609285024782        1.29386532380182       -0.39626864221982
H           -0.42958939594417       -1.74963023569739       -0.02572081697764
H            1.88651622756772       -1.46297123524099        0.35334841903467
H            2.91832019718217        0.65796404792034        0.68517626406354
H            1.43867628196143        1.54330165318282        0.30045174634751
H            2.41462198631883        0.84871943138646       -0.99159498260186
15
 energy: -15.773641229061 gnorm: 0.001084653253 xtb: 6.7.1 (edcfbbe)
C           -2.25717534637300        0.21532214359563        0.37049283499835
C           -0.99868011429283        0.30195440056373       -0.49238297714412
C           -0.00663753248538       -0.75392894780495       -0.11393091904612
C            1.28875372694021       -0.59183258101426        0.10923409020260
C            2.05584178348672        0.69070509595503        0.02644358953141
H           -2.00988666436214        0.37900774852944        1.41694842995235
H           -2.71693259163649       -0.76597875176459        0.27586540044151
H           -2.98235465568351        0.96622404743989        0.06474097754273
H           -1.27740186411754        0.15705007669246       -1.54107940684471
H           -0.55989066708088        1.29598413906659       -0.40283816175480
H           -0.42979049247473       -1.74738733005917       -0.02867686675385
H            1.88411794398674       -1.46219315000736        0.35504215158297
H            2.91317426238858        0.66114475704943        0.69532733373075
H            1.43832095299161        1.54607638591924        0.28818388700603
H            2.42807258513833        0.84093094271985       -0.98797531409870
15
 energy: -15.773652554751 gnorm: 0.001156044809 xtb: 6.7.1 (edcfbbe)
C           -2.25646478079864        0.21487292763544        0.37257156469954
C           -1.00062815452567        0.30148784860348       -0.49457040402685
C           -0.00656312777057       -0.75273932480436       -0.11716990279722
C            1.28841257211184       -0.59041729323342        0.10769818121325
C            2.05685185808443        0.69131031307448        0.02714089534732
H           -2.00436099843142        0.36959900005368        1.41925351881075
H           -2.72113336101650       -0.76356128023854        0.27231991595004
H           -2.97923330852019        0.97143407514258        0.07502972257915
H           -1.28276894472250        0.15373615568234       -1.54184314956182
H           -0.56312830142696        1.29626870375273       -0.40861399677407
H           -0.42938256064465       -1.74625724173604       -0.03063799540841
H            1.88284479865655       -1.46088122983498        0.35541126626799
H            2.90528738205550        0.66568536028290        0.70775451422028
H            1.43667000945973        1.54908203808381        0.27444337181250
H            2.44312824391473        0.83345892441685       -0.98339245298607
15
 energy: -15.773668038185 gnorm: 0.000832576974 xtb: 6.7.1 (edcfbbe)
C           -2.25520826307201        0.21478158488613        0.37520960491924