      -----------------------------------------------------------      
     |                   =====================                   |     
     |                           x T B                           |     
     |                   =====================                   |     
     |                         S. Grimme                         |     
     |          Mulliken Center for Theoretical Chemistry        |     
     |                    University of Bonn                     |     
      -----------------------------------------------------------      

   * xtb version 6.7.1 (edcfbbe) compiled by 'albert@albert-system' on 2024-07-22

   xtb is free software: you can redistribute it and/or modify it under
   the terms of the GNU Lesser General Public License as published by
   the Free Software Foundation, either version 3 of the License, or
   (at your option) any later version.
   
   xtb is distributed in the hope that it will be useful,
   but WITHOUT ANY WARRANTY; without even the implied warranty of
   MERCHANTABILITY or FITNESS FOR A PARTICULAR PURPOSE.  See the
   GNU Lesser General Public License for more details.
   
   Cite this work as:
   * C. Bannwarth, E. Caldeweyher, S. Ehlert, A. Hansen, P. Pracht,
     J. Seibert, S. Spicher, S. Grimme, WIREs Comput. Mol. Sci., 2020, 11,
     e01493. DOI: 10.1002/wcms.1493
   
   for GFN2-xTB:
   * C. Bannwarth, S. Ehlert and S. Grimme., J. Chem. Theory Comput., 2019,
     15, 1652-1671. DOI: 10.1021/acs.jctc.8b01176
   for GFN1-xTB:
   * S. Grimme, C. Bannwarth, P. Shushkov, J. Chem. Theory Comput., 2017,
     13, 1989-2009. DOI: 10.1021/acs.jctc.7b00118
   for GFN0-xTB:
   * P. Pracht, E. Caldeweyher, S. Ehlert, S. Grimme, ChemRxiv, 2019, preprint.
     DOI: 10.26434/chemrxiv.8326202.v1
   for GFN-FF:
   * S. Spicher and S. Grimme, Angew. Chem. Int. Ed., 2020, 59, 15665-15673.
     DOI: 10.1002/anie.202004239
   
   for ALPB and GBSA implicit solvation:
   * S. Ehlert, M. Stahn, S. Spicher, S. Grimme, J. Chem. Theory Comput.,
     2021, 17, 4250-4261. DOI: 10.1021/acs.jctc.1c00471
   
   for ddCOSMO and CPCM-X implicit solvation:
   * M. Stahn, S. Ehlert, S. Grimme, J. Phys. Chem. A,
     2023, XX, XXXX-XXXX. DOI: 10.1021/acs.jpca.3c04382
   
   for DFT-D4:
   * E. Caldeweyher, C. Bannwarth and S. Grimme, J. Chem. Phys., 2017,
     147, 034112. DOI: 10.1063/1.4993215
   * E. Caldeweyher, S. Ehlert, A. Hansen, H. Neugebauer, S. Spicher,
     C. Bannwarth and S. Grimme, J. Chem. Phys., 2019, 150, 154122.
     DOI: 10.1063/1.5090222
   * E. Caldeweyher, J.-M. Mewes, S. Ehlert and S. Grimme, Phys. Chem. Chem. Phys.
     2020, 22, 8499-8512. DOI: 10.1039/D0CP00502A
   
   for sTDA-xTB:
   * S. Grimme and C. Bannwarth, J. Chem. Phys., 2016, 145, 054103.
     DOI: 10.1063/1.4959605
   
   in the mass-spec context:
   * V. Asgeirsson, C. Bauer and S. Grimme, Chem. Sci., 2017, 8, 4879.
     DOI: 10.1039/c7sc00601b
   * J. Koopman and S. Grimme, ACS Omega 2019, 4, 12, 15120-15133.
     DOI: 10.1021/acsomega.9b02011
   
   for metadynamics refer to:
   * S. Grimme, J. Chem. Theory Comput., 2019, 155, 2847-2862
     DOI: 10.1021/acs.jctc.9b00143
   
   for SPH calculations refer to:
   * S. Spicher and S. Grimme, J. Chem. Theory Comput., 2021, 17, 1701-1714
     DOI: 10.1021/acs.jctc.0c01306
   
   for ONIOM refer to:
   * C. Plett, A. Katbashev, S. Ehlert, S. Grimme, M. Bursch,
     Phys. Chem. Chem. Phys., 2023, 25, 17860-17868. DOI: 10.1039/D3CP02178E
   
   for DIPRO refer to:
   * J. Kohn, N. Gildemeister, S. Grimme, D. Fazzi, A. Hansen,
     J. Chem. Phys., 2023, just accepted.
   
   for PTB refer to:
   * S. Grimme, M. Mueller, A. Hansen, J. Chem. Phys., 2023, 158, 124111.
     DOI: 10.1063/5.0137838
   
   with help from (in alphabetical order)
   P. Atkinson, C. Bannwarth, F. Bohle, G. Brandenburg, E. Caldeweyher
   M. Checinski, S. Dohm, S. Ehlert, S. Ehrlich, I. Gerasimov, C. Hölzer
   A. Katbashev, J. Kohn, J. Koopman, C. Lavigne, S. Lehtola, F. März, M. Müller,
   F. Musil, H. Neugebauer, J. Pisarek, C. Plett, P. Pracht, F. Pultar,
   J. Seibert, P. Shushkov, S. Spicher, M. Stahn, M. Steiner, T. Strunk,
   J. Stückrath, T. Rose, and J. Unsleber
   
 * started run on 2025/04/15 at 19:56:17.858     
   ID    Z sym.   atoms
    1    6 C      1, 2, 4-9
    2    8 O      3
    3    1 H      10-23

           -------------------------------------------------
          |                Calculation Setup                |
           -------------------------------------------------

          program call               : /software/projects/pawsey0265/mwang1/xtb/bin/xtb xtb_rrho.coord --gfn2 --ohess vtight --chrg 0 --enso --norestart -I rrho-xcontrol-inp --parallel 1
          hostname                   : nid002803
          coordinate file            : xtb_rrho.coord
          omp threads                :                     1


           -------------------------------------------------
          |                 G F N 2 - x T B                 |
           -------------------------------------------------

        Reference                      10.1021/acs.jctc.8b01176
      * Hamiltonian:
        H0-scaling (s, p, d)           1.850000    2.230000    2.230000
        zeta-weighting                 0.500000
      * Dispersion:
        s8                             2.700000
        a1                             0.520000
        a2                             5.000000
        s9                             5.000000
      * Repulsion:
        kExp                           1.500000    1.000000
        rExp                           1.000000
      * Coulomb:
        alpha                          2.000000
        third order                    shell-resolved
        anisotropic                    true
        a3                             3.000000
        a5                             4.000000
        cn-shift                       1.200000
        cn-exp                         4.000000
        max-rad                        5.000000


          ...................................................
          :                      SETUP                      :
          :.................................................:
          :  # basis functions                  50          :
          :  # atomic orbitals                  50          :
          :  # shells                           32          :
          :  # electrons                        52          :
          :  max. iterations                   250          :
          :  Hamiltonian                  GFN2-xTB          :
          :  restarted?                      false          :
          :  GBSA solvation                  false          :
          :  PC potential                    false          :
          :  electronic temp.          300.0000000     K    :
          :  accuracy                    1.0000000          :
          :  -> integral cutoff          0.2500000E+02      :
          :  -> integral neglect         0.1000000E-07      :
          :  -> SCF convergence          0.1000000E-05 Eh   :
          :  -> wf. convergence          0.1000000E-03 e    :
          :  Broyden damping             0.4000000          :
          :  net charge                          0          :
          :  unpaired electrons                  0          :
          ...................................................

 iter      E             dE          RMSdq      gap      omega  full diag
   1    -28.6369811 -0.286370E+02  0.334E+00    4.57       0.0  T
   2    -28.7050914 -0.681102E-01  0.173E+00    3.60       1.0  T
   3    -28.7113149 -0.622355E-02  0.113E+00    4.07       1.0  T
   4    -28.7152283 -0.391338E-02  0.202E-01    3.77       1.0  T
   5    -28.7155623 -0.333956E-03  0.771E-02    3.84       1.0  T
   6    -28.7155840 -0.217179E-04  0.275E-02    3.84       1.0  T
   7    -28.7155844 -0.421859E-06  0.683E-03    3.83       3.1  T
   8    -28.7155847 -0.286211E-06  0.198E-03    3.84      10.5  T
   9    -28.7155847 -0.114347E-08  0.853E-04    3.84      24.5  T
  10    -28.7155847 -0.502834E-08  0.272E-04    3.83      76.8  T

   *** convergence criteria satisfied after 10 iterations ***

         #    Occupation            Energy/Eh            Energy/eV
      -------------------------------------------------------------
         1        2.0000           -0.7039815             -19.1563
       ...           ...                  ...                  ...
        20        2.0000           -0.4665867             -12.6965
        21        2.0000           -0.4461725             -12.1410
        22        2.0000           -0.4410929             -12.0027
        23        2.0000           -0.4312694             -11.7354
        24        2.0000           -0.4225487             -11.4981
        25        2.0000           -0.4192151             -11.4074
        26        2.0000           -0.3898714             -10.6089 (HOMO)
        27                         -0.2489378              -6.7739 (LUMO)
        28                          0.0400241               1.0891
        29                          0.0758741               2.0646
        30                          0.0853247               2.3218
        31                          0.0872328               2.3737
       ...                                ...                  ...
        50                          0.5991303              16.3032
      -------------------------------------------------------------
                  HL-Gap            0.1409336 Eh            3.8350 eV
             Fermi-level           -0.3194046 Eh           -8.6914 eV

 SCC (total)                   0 d,  0 h,  0 min,  0.023 sec
 SCC setup                      ...        0 min,  0.000 sec (  1.172%)
 Dispersion                     ...        0 min,  0.000 sec (  0.876%)
 classical contributions        ...        0 min,  0.000 sec (  0.226%)
 integral evaluation            ...        0 min,  0.002 sec (  9.187%)
 iterations                     ...        0 min,  0.015 sec ( 64.545%)
 molecular gradient             ...        0 min,  0.005 sec ( 23.205%)
 printout                       ...        0 min,  0.000 sec (  0.685%)

         :::::::::::::::::::::::::::::::::::::::::::::::::::::
         ::                     SUMMARY                     ::
         :::::::::::::::::::::::::::::::::::::::::::::::::::::
         :: total energy             -28.348251809859 Eh    ::
         :: gradient norm              0.028447946482 Eh/a0 ::
         :: HOMO-LUMO gap              3.834997952289 eV    ::
         ::.................................................::
         :: SCC energy               -28.715499175849 Eh    ::
         :: -> isotropic ES            0.028288243101 Eh    ::
         :: -> anisotropic ES          0.005223204372 Eh    ::
         :: -> anisotropic XC          0.013150234707 Eh    ::
         :: -> dispersion             -0.016747095732 Eh    ::
         :: repulsion energy           0.367247365991 Eh    ::
         :: add. restraining           0.000000000000 Eh    ::
         :: total charge               0.000000000000 e     ::
         :::::::::::::::::::::::::::::::::::::::::::::::::::::

      ----------------------------------------------------------- 
     |                   =====================                   |
     |                        A N C O P T                        |
     |                   =====================                   |
     |               Approximate Normal Coordinate               |
     |                Rational Function Optimizer                |
      ----------------------------------------------------------- 
      ----------------------------------------------------------- 
     |                   =====================                   |
     |                        A N C O P T                        |
     |                   =====================                   |
     |               Approximate Normal Coordinate               |
     |                Rational Function Optimizer                |
      ----------------------------------------------------------- 

          ...................................................
          :                      SETUP                      :
          :.................................................:
          :   optimization level         verytight          :
          :   max. optcycles                   460          :
          :   ANC micro-cycles                  20          :
          :   degrees of freedom                63          :
          :.................................................:
          :   RF solver                   davidson          :
          :   write xtbopt.log                true          :
          :   linear?                        false          :
          :   energy convergence         0.1000000E-06 Eh   :
          :   grad. convergence          0.2000000E-03 Eh/α :
          :   maxmium RF displ.          1.0000000          :
          :   Hlow (freq-cutoff)         0.1000000E-01      :
          :   Hmax (freq-cutoff)         5.0000000          :
          :   S6 in model hess.         20.0000000          :
          ...................................................

generating ANC from exact Hessian ...
Using Lindh-Hessian (1995)
 Shifting diagonal of input Hessian by   7.874513123325124E-003
 Lowest  eigenvalues of input Hessian
    0.000000    0.000000    0.000000    0.000000    0.000000    0.000000
    0.010000    0.011541    0.012735    0.016568    0.017360    0.022996
    0.024130    0.025968    0.030790    0.034205    0.036680    0.055020
 Highest eigenvalues
    1.195238    1.212695    1.247172    1.262495    1.378401    2.100021
 

........................................................................
.............................. CYCLE    1 ..............................
........................................................................

 iter      E             dE          RMSdq      gap      omega  full diag
   1    -28.7155847 -0.287156E+02  0.762E-05    3.83       0.0  T
   2    -28.7155847 -0.628511E-10  0.430E-05    3.83     484.7  T
   3    -28.7155847 -0.223856E-10  0.172E-05    3.83    1210.4  T
     SCC iter.                  ...        0 min,  0.002 sec
     gradient                   ...        0 min,  0.009 sec
 * total energy  :   -28.3482518 Eh     change       -0.2789733E-09 Eh
   gradient norm :     0.0284512 Eh/α   predicted     0.0000000E+00 (-100.00%)
   displ. norm   :     0.1478303 α      lambda       -0.1775411E-02
   maximum displ.:     0.0622465 α      in ANC's #7, #23, #10, ...

........................................................................
.............................. CYCLE    2 ..............................
........................................................................

 iter      E             dE          RMSdq      gap      omega  full diag
   1    -28.7281181 -0.287281E+02  0.114E-01    3.89       0.0  T
   2    -28.7281379 -0.198046E-04  0.647E-02    3.87       1.0  T
   3    -28.7281364  0.154886E-05  0.210E-02    3.88       1.0  T
   4    -28.7281393 -0.289474E-05  0.430E-03    3.87       4.9  T
   5    -28.7281395 -0.221993E-06  0.144E-03    3.88      14.5  T
   6    -28.7281395 -0.614136E-08  0.504E-04    3.87      41.3  T
   7    -28.7281395 -0.126500E-08  0.176E-04    3.87     118.5  T
     SCC iter.                  ...        0 min,  0.004 sec
     gradient                   ...        0 min,  0.009 sec
 * total energy  :   -28.3492645 Eh     change       -0.1012654E-02 Eh
   gradient norm :     0.0080881 Eh/α   predicted    -0.9071407E-03 ( -10.42%)
   displ. norm   :     0.0593259 α      lambda       -0.1839546E-03
   maximum displ.:     0.0267677 α      in ANC's #7, #6, #10, ...

........................................................................
.............................. CYCLE    3 ..............................
........................................................................

 iter      E             dE          RMSdq      gap      omega  full diag
   1    -28.7326234 -0.287326E+02  0.395E-02    3.89       0.0  T
   2    -28.7326268 -0.338201E-05  0.220E-02    3.89       1.0  T
   3    -28.7326268  0.141885E-07  0.775E-03    3.89       2.7  T
   4    -28.7326270 -0.178450E-06  0.122E-03    3.89      17.1  T
   5    -28.7326270 -0.155928E-07  0.494E-04    3.89      42.2  T
   6    -28.7326270 -0.663331E-09  0.206E-04    3.89     101.4  T
     SCC iter.                  ...        0 min,  0.004 sec
     gradient                   ...        0 min,  0.009 sec
 * total energy  :   -28.3493596 Eh     change       -0.9510798E-04 Eh
   gradient norm :     0.0020008 Eh/α   predicted    -0.9325657E-04 (  -1.95%)
   displ. norm   :     0.0328568 α      lambda       -0.2362477E-04
   maximum displ.:     0.0188803 α      in ANC's #1, #5, #8, ...

........................................................................
.............................. CYCLE    4 ..............................
........................................................................

 iter      E             dE          RMSdq      gap      omega  full diag
   1    -28.7327350 -0.287327E+02  0.124E-02    3.89       0.0  T
   2    -28.7327351 -0.997720E-07  0.743E-03    3.89       2.8  T
   3    -28.7327351  0.874406E-08  0.136E-03    3.89      15.4  T
   4    -28.7327352 -0.193142E-07  0.407E-04    3.89      51.2  T
   5    -28.7327352 -0.147261E-08  0.203E-04    3.89     102.7  T
     SCC iter.                  ...        0 min,  0.003 sec
     gradient                   ...        0 min,  0.009 sec
 * total energy  :   -28.3493750 Eh     change       -0.1537959E-04 Eh
   gradient norm :     0.0008668 Eh/α   predicted    -0.1182883E-04 ( -23.09%)
   displ. norm   :     0.0587466 α      lambda       -0.1341659E-04
   maximum displ.:     0.0342320 α      in ANC's #1, #3, #6, ...

........................................................................
.............................. CYCLE    5 ..............................
........................................................................

 iter      E             dE          RMSdq      gap      omega  full diag
   1    -28.7320881 -0.287321E+02  0.208E-02    3.88       0.0  T
   2    -28.7320882 -0.101174E-06  0.124E-02    3.88       1.7  T
   3    -28.7320881  0.788042E-07  0.244E-03    3.88       8.5  T
   4    -28.7320882 -0.109519E-06  0.464E-04    3.88      44.9  T
   5    -28.7320882 -0.751928E-09  0.218E-04    3.88      95.5  T
     SCC iter.                  ...        0 min,  0.003 sec
     gradient                   ...        0 min,  0.025 sec
 * total energy  :   -28.3493841 Eh     change       -0.9104044E-05 Eh
   gradient norm :     0.0013514 Eh/α   predicted    -0.6734794E-05 ( -26.02%)
   displ. norm   :     0.0212919 α      lambda       -0.3862757E-05
   maximum displ.:     0.0185990 α      in ANC's #1, #3, #11, ...

........................................................................
.............................. CYCLE    6 ..............................
........................................................................

 iter      E             dE          RMSdq      gap      omega  full diag
   1    -28.7321192 -0.287321E+02  0.915E-03    3.88       0.0  T
   2    -28.7321192 -0.187439E-07  0.540E-03    3.88       3.9  T
   3    -28.7321192  0.397271E-08  0.693E-04    3.88      30.1  T
   4    -28.7321192 -0.722598E-08  0.188E-04    3.88     110.9  T
     SCC iter.                  ...        0 min,  0.002 sec
     gradient                   ...        0 min,  0.009 sec
 * total energy  :   -28.3493884 Eh     change       -0.4349547E-05 Eh
   gradient norm :     0.0005150 Eh/α   predicted    -0.1938565E-05 ( -55.43%)
   displ. norm   :     0.0295098 α      lambda       -0.3440250E-05
   maximum displ.:     0.0253088 α      in ANC's #1, #3, #2, ...

........................................................................
.............................. CYCLE    7 ..............................
........................................................................

 iter      E             dE          RMSdq      gap      omega  full diag
   1    -28.7323037 -0.287323E+02  0.141E-02    3.88       0.0  T
   2    -28.7323037 -0.348245E-07  0.835E-03    3.88       2.5  T
   3    -28.7323037  0.113441E-07  0.106E-03    3.88      19.7  T
   4    -28.7323037 -0.191088E-07  0.284E-04    3.88      73.5  T
   5    -28.7323037 -0.517030E-09  0.142E-04    3.88     146.6  T
     SCC iter.                  ...        0 min,  0.003 sec
     gradient                   ...        0 min,  0.008 sec
 * total energy  :   -28.3493921 Eh     change       -0.3722887E-05 Eh
   gradient norm :     0.0005036 Eh/α   predicted    -0.1721162E-05 ( -53.77%)
   displ. norm   :     0.0340170 α      lambda       -0.2607587E-05
   maximum displ.:     0.0280626 α      in ANC's #1, #3, #2, ...

........................................................................
.............................. CYCLE    8 ..............................
........................................................................

 iter      E             dE          RMSdq      gap      omega  full diag
   1    -28.7323301 -0.287323E+02  0.170E-02    3.88       0.0  T
   2    -28.7323301 -0.345140E-07  0.100E-02    3.88       2.1  T
   3    -28.7323301 -0.345493E-08  0.725E-04    3.88      28.8  T
   4    -28.7323301 -0.596385E-08  0.326E-04    3.88      63.9  T
     SCC iter.                  ...        0 min,  0.004 sec
     gradient                   ...        0 min,  0.009 sec
 * total energy  :   -28.3493956 Eh     change       -0.3520943E-05 Eh
   gradient norm :     0.0006818 Eh/α   predicted    -0.1307608E-05 ( -62.86%)
   displ. norm   :     0.0492488 α      lambda       -0.3723209E-05
   maximum displ.:     0.0379142 α      in ANC's #1, #3, #2, ...

........................................................................
.............................. CYCLE    9 ..............................
........................................................................

 iter      E             dE          RMSdq      gap      omega  full diag
   1    -28.7323130 -0.287323E+02  0.257E-02    3.88       0.0  T
   2    -28.7323131 -0.620173E-07  0.151E-02    3.88       1.4  T
   3    -28.7323131 -0.157268E-07  0.894E-04    3.88      23.3  T
   4    -28.7323131 -0.575298E-08  0.457E-04    3.88      45.6  T
     SCC iter.                  ...        0 min,  0.003 sec
     gradient                   ...        0 min,  0.013 sec
 * total energy  :   -28.3494008 Eh     change       -0.5109123E-05 Eh
   gradient norm :     0.0005994 Eh/α   predicted    -0.1864260E-05 ( -63.51%)
   displ. norm   :     0.0800631 α      lambda       -0.5307440E-05
   maximum displ.:     0.0600268 α      in ANC's #1, #3, #2, ...

........................................................................
.............................. CYCLE   10 ..............................
........................................................................

 iter      E             dE          RMSdq      gap      omega  full diag
   1    -28.7322323 -0.287322E+02  0.424E-02    3.88       0.0  T
   2    -28.7322324 -0.183341E-06  0.249E-02    3.88       1.0  T
   3    -28.7322325 -0.392898E-07  0.157E-03    3.88      13.3  T
   4    -28.7322325 -0.202802E-07  0.755E-04    3.88      27.6  T
   5    -28.7322325 -0.112254E-08  0.295E-04    3.88      70.6  T
     SCC iter.                  ...        0 min,  0.003 sec
     gradient                   ...        0 min,  0.009 sec
 * total energy  :   -28.3494073 Eh     change       -0.6568126E-05 Eh
   gradient norm :     0.0005111 Eh/α   predicted    -0.2662080E-05 ( -59.47%)
   displ. norm   :     0.0835408 α      lambda       -0.3980763E-05
   maximum displ.:     0.0628324 α      in ANC's #1, #3, #2, ...

........................................................................
.............................. CYCLE   11 ..............................
........................................................................

 iter      E             dE          RMSdq      gap      omega  full diag
   1    -28.7321702 -0.287322E+02  0.434E-02    3.88       0.0  T
   2    -28.7321703 -0.181577E-06  0.255E-02    3.87       1.0  T
   3    -28.7321704 -0.457990E-07  0.153E-03    3.87      13.7  T
   4    -28.7321704 -0.169129E-07  0.769E-04    3.87      27.1  T
   5    -28.7321704 -0.129791E-08  0.274E-04    3.87      76.1  T
     SCC iter.                  ...        0 min,  0.004 sec
     gradient                   ...        0 min,  0.009 sec
 * total energy  :   -28.3494118 Eh     change       -0.4447388E-05 Eh
   gradient norm :     0.0005992 Eh/α   predicted    -0.1997040E-05 ( -55.10%)
   displ. norm   :     0.0569469 α      lambda       -0.1857237E-05
   maximum displ.:     0.0436079 α      in ANC's #1, #2, #3, ...

........................................................................
.............................. CYCLE   12 ..............................
........................................................................

 iter      E             dE          RMSdq      gap      omega  full diag
   1    -28.7322345 -0.287322E+02  0.289E-02    3.87       0.0  T
   2    -28.7322346 -0.921954E-07  0.170E-02    3.87       1.2  T
   3    -28.7322346 -0.177098E-07  0.113E-03    3.87      18.4  T
   4    -28.7322346 -0.108582E-07  0.524E-04    3.87      39.8  T
   5    -28.7322346 -0.561347E-09  0.216E-04    3.87      96.6  T
     SCC iter.                  ...        0 min,  0.006 sec
     gradient                   ...        0 min,  0.007 sec
 * total energy  :   -28.3494139 Eh     change       -0.2124921E-05 Eh
   gradient norm :     0.0004211 Eh/α   predicted    -0.9321915E-06 ( -56.13%)
   displ. norm   :     0.0413220 α      lambda       -0.9503296E-06
   maximum displ.:     0.0320986 α      in ANC's #1, #2, #3, ...

........................................................................
.............................. CYCLE   13 ..............................
........................................................................

 iter      E             dE          RMSdq      gap      omega  full diag
   1    -28.7322695 -0.287323E+02  0.207E-02    3.87       0.0  T
   2    -28.7322695 -0.448561E-07  0.121E-02    3.87       1.7  T
   3    -28.7322695 -0.949585E-08  0.771E-04    3.87      27.1  T
   4    -28.7322695 -0.476483E-08  0.373E-04    3.87      55.9  T
     SCC iter.                  ...        0 min,  0.003 sec
     gradient                   ...        0 min,  0.009 sec
 * total energy  :   -28.3494150 Eh     change       -0.1088734E-05 Eh
   gradient norm :     0.0002494 Eh/α   predicted    -0.4760134E-06 ( -56.28%)
   displ. norm   :     0.0251293 α      lambda       -0.3905364E-06
   maximum displ.:     0.0201265 α      in ANC's #1, #2, #3, ...

........................................................................
.............................. CYCLE   14 ..............................
........................................................................

 iter      E             dE          RMSdq      gap      omega  full diag
   1    -28.7323207 -0.287323E+02  0.121E-02    3.87       0.0  T
   2    -28.7323207 -0.156499E-07  0.710E-03    3.87       2.9  T
   3    -28.7323207 -0.113932E-08  0.594E-04    3.87      35.1  T
   4    -28.7323207 -0.432095E-08  0.243E-04    3.87      85.6  T
     SCC iter.                  ...        0 min,  0.003 sec
     gradient                   ...        0 min,  0.009 sec
 * total energy  :   -28.3494154 Eh     change       -0.4271181E-06 Eh
   gradient norm :     0.0000903 Eh/α   predicted    -0.1988724E-06 ( -53.44%)
   displ. norm   :     0.0128302 α      lambda       -0.1031214E-06
   maximum displ.:     0.0105401 α      in ANC's #1, #3, #2, ...

........................................................................
.............................. CYCLE   15 ..............................
........................................................................

 iter      E             dE          RMSdq      gap      omega  full diag
   1    -28.7323184 -0.287323E+02  0.630E-03    3.87       0.0  T
   2    -28.7323184 -0.488242E-08  0.370E-03    3.87       5.6  T
   3    -28.7323184 -0.571955E-09  0.276E-04    3.87      75.6  T
   4    -28.7323184 -0.860201E-09  0.126E-04    3.87     165.3  T
     SCC iter.                  ...        0 min,  0.003 sec
     gradient                   ...        0 min,  0.009 sec
 * total energy  :   -28.3494155 Eh     change       -0.1179032E-06 Eh
   gradient norm :     0.0000467 Eh/α   predicted    -0.5293529E-07 ( -55.10%)
   displ. norm   :     0.0044900 α      lambda       -0.2497837E-07
   maximum displ.:     0.0040683 α      in ANC's #1, #3, #2, ...

........................................................................
.............................. CYCLE   16 ..............................
........................................................................

 iter      E             dE          RMSdq      gap      omega  full diag
   1    -28.7323334 -0.287323E+02  0.195E-03    3.87       0.0  T
   2    -28.7323334 -0.482054E-09  0.115E-03    3.87      18.2  T
   3    -28.7323334  0.867111E-10  0.133E-04    3.87     157.1  T
   4    -28.7323334 -0.268535E-09  0.425E-05    3.87     490.3  T
     SCC iter.                  ...        0 min,  0.003 sec
     gradient                   ...        0 min,  0.009 sec
 * total energy  :   -28.3494156 Eh     change       -0.3349909E-07 Eh
   gradient norm :     0.0000418 Eh/α   predicted    -0.1292898E-07 ( -61.40%)
   displ. norm   :     0.0044900 α      lambda        0.0000000E+00
   maximum displ.:     0.0040683 α      in ANC's #1, #3, #2, ...

   *** GEOMETRY OPTIMIZATION CONVERGED AFTER 16 ITERATIONS ***

------------------------------------------------------------------------
 total energy gain   :        -0.0011638 Eh       -0.7303 kcal/mol
 total RMSD          :         0.1169343 a0        0.0619 Å
 total power (kW/mol):        -0.1909650 (step)   -9.7246 (real)
------------------------------------------------------------------------

 ANCopt (total)                0 d,  0 h,  0 min,  0.314 sec
 optimizer setup                ...        0 min,  0.000 sec (  0.146%)
 model hessian                  ...        0 min,  0.032 sec ( 10.142%)
 ANC generation                 ...        0 min,  0.001 sec (  0.218%)
 coordinate transformation      ...        0 min,  0.000 sec (  0.045%)
 single point calculation       ...        0 min,  0.275 sec ( 87.388%)
 optimization log               ...        0 min,  0.003 sec (  0.967%)
 hessian update                 ...        0 min,  0.000 sec (  0.044%)
 rational function              ...        0 min,  0.003 sec (  0.804%)

================
 final structure:
================
$coord
       -5.00418520362759       -0.83343814429424       -1.97099116725389      C
       -3.35206248406925        0.20990904453389        0.11103872939439      C
       -4.18192083760334        0.70077999672415        2.17395687356293      O
       -0.58233758532555        0.54235872821356       -0.56595488116905      C
        0.64337427824530       -2.04851274044855       -1.02137655071348      C
        3.43356515484247       -1.74058291809816       -1.68450860622629      C
        4.83115800301437       -0.32999653884694        0.40424229641261      C
        3.62076598608742        2.24765332493018        0.84993963034300      C
        0.83554545480699        1.94887617861705        1.52130122149801      C
       -6.94573502327682       -0.22764389824919       -1.68210630222119      H
       -4.34909777202839       -0.25660963148387       -3.82786447078549      H
       -4.96345158483623       -2.88857386975446       -1.86558301708721      H
       -0.47790471030074        1.63408685008291       -2.32349647668551      H
        0.46556179590604       -3.18359293495992        0.69376859157944      H
       -0.32444939373000       -3.03794162112274       -2.55053396629875      H
        4.28194444367917       -3.59993239453467       -1.97119826921502      H
        3.60386430019481       -0.68842523049960       -3.45328287702326      H
        4.75101812991582       -1.43350514722043        2.14662794398175      H
        6.81623830093656       -0.10079357368465       -0.11022004276966      H
        4.60156758164677        3.23269421285917        2.37393681685692      H
        3.79971237465185        3.39346186027062       -0.85929302271220      H
        0.64763571962891        0.89163931710189        3.28238763615127      H
       -0.03316986508336        3.79694528582349        1.81338785275928      H
$end
 
 Bond Distances (Angstroems)
 ---------------------------
C1-C2=1.5110         C1-H10=1.0871        C1-H11=1.0858        C1-H12=1.0892        C2-C1=1.5110         C2-O3=1.2050         
C2-C4=1.5190         O3-C2=1.2050         C4-C2=1.5190         C4-C5=1.5357         C4-C9=1.5287         C4-H13=1.0963        
C5-C4=1.5357         C5-C6=1.5264         C5-H14=1.0924        C5-H15=1.0914        C6-C5=1.5264         C6-C7=1.5251         
C6-H16=1.0921        C6-H17=1.0928        C7-C6=1.5251         C7-C8=1.5253         C7-H18=1.0922        C7-H19=1.0919        
C8-C7=1.5253         C8-C9=1.5243         C8-H20=1.0915        C8-H21=1.0930        C9-C4=1.5287         C9-C8=1.5243         
C9-H22=1.0915        C9-H23=1.0916        H10-C1=1.0871        H11-C1=1.0858        H12-C1=1.0892        H13-C4=1.0963        
H14-C5=1.0924        H15-C5=1.0914        H16-C6=1.0921        H17-C6=1.0928        H18-C7=1.0922        H19-C7=1.0919        
H20-C8=1.0915        H21-C8=1.0930        H22-C9=1.0915        H23-C9=1.0916        
 C  H  Rav=1.0913 sigma=0.0025  Rmin=1.0858  Rmax=1.0963    14
 C  C  Rav=1.5244 sigma=0.0067  Rmin=1.5110  Rmax=1.5357     8
 O  C  Rav=1.2050 sigma=0.0000  Rmin=1.2050  Rmax=1.2050     1
 
 selected bond angles (degree)
 --------------------
H10-C1-C2=109.67               H11-C1-C2=111.87               H11-C1-H10=110.25              H12-C1-C2=108.42               
H12-C1-H10=107.82              H12-C1-H11=108.71              O3-C2-C1=121.90                C4-C2-C1=115.38                
C4-C2-O3=122.71                C5-C4-C2=109.95                C9-C4-C2=111.07                C9-C4-C5=109.92                
H13-C4-C2=108.04               H13-C4-C5=108.42               H13-C4-C9=109.37               C6-C5-C4=110.45                
H14-C5-C4=108.91               H14-C5-C6=109.45               H15-C5-C4=110.27               H15-C5-C6=109.55               
H15-C5-H14=108.17              C7-C6-C5=110.78                H16-C6-C5=109.48               H16-C6-C7=110.02               
H17-C6-C5=109.33               H17-C6-C7=109.35               H17-C6-H16=107.83              C8-C7-C6=110.25                
H18-C7-C6=109.35               H18-C7-C8=109.35               H19-C7-C6=109.89               H19-C7-C8=110.07               
H19-C7-H18=107.89              C9-C8-C7=110.45                H20-C8-C7=109.98               H20-C8-C9=109.70               
H21-C8-C7=109.38               H21-C8-C9=109.52               H21-C8-H20=107.78              C8-C9-C4=110.90                
H22-C9-C4=108.82               H22-C9-C8=109.89               H23-C9-C4=109.38               H23-C9-C8=110.32               
H23-C9-H22=107.45              
 
 selected dihedral angles (degree)
 ---------------------------------
O3-C2-C1-H10= 26.84           O3-C2-C1-H11=149.49           O3-C2-C1-H12=269.36           C4-C2-C1-H10=205.69           
C4-C2-C1-H11=328.34           C4-C2-C1-H12= 88.20           C5-C4-C2-C1=293.78            C5-C4-C2-O3=112.62            
C9-C4-C2-C1=171.89            C9-C4-C2-O3=350.73            H13-C4-C2-C1= 51.93           H13-C4-C2-O3=230.77           
C6-C5-C4-C2=180.42            C6-C5-C4-C9=302.99            C6-C5-C4-H13= 62.50           H14-C5-C4-C2=300.65           
H14-C5-C4-C9= 63.22           H14-C5-C4-H13=182.73          H15-C5-C4-C2= 59.19           H15-C5-C4-C9=181.76           
H15-C5-C4-H13=301.27          C7-C6-C5-C4= 57.57            C7-C6-C5-H14=297.67           C7-C6-C5-H15=179.22           
H16-C6-C5-C4=179.07           H16-C6-C5-H14= 59.17          H16-C6-C5-H15=300.72          H17-C6-C5-C4=296.99           
H17-C6-C5-H14=177.09          H17-C6-C5-H15= 58.64          C8-C7-C6-C5=302.33            C8-C7-C6-H16=181.15           
C8-C7-C6-H17= 62.90           H18-C7-C6-C5= 62.58           H18-C7-C6-H16=301.40          H18-C7-C6-H17=183.15          
H19-C7-C6-C5=180.83           H19-C7-C6-H16= 59.65          H19-C7-C6-H17=301.40          C9-C8-C7-C6= 57.55            
C9-C8-C7-H18=297.30           C9-C8-C7-H19=178.94           H20-C8-C7-C6=178.77           H20-C8-C7-H18= 58.52          
H20-C8-C7-H19=300.16          H21-C8-C7-C6=296.94           H21-C8-C7-H18=176.69          H21-C8-C7-H19= 58.34          
C8-C9-C4-C2=179.25            C8-C9-C4-C5= 57.35            C8-C9-C4-H13=298.42           H22-C9-C4-C2= 58.26           
H22-C9-C4-C5=296.36           H22-C9-C4-H13=177.43          H23-C9-C4-C2=301.14           H23-C9-C4-C5=179.24           
H23-C9-C4-H13= 60.31          C4-C9-C8-C7=302.13            C4-C9-C8-H20=180.75           C4-C9-C8-H21= 62.65           
H22-C9-C8-C7= 62.49           H22-C9-C8-H20=301.11          H22-C9-C8-H21=183.01          H23-C9-C8-C7=180.79           
H23-C9-C8-H20= 59.41          H23-C9-C8-H21=301.31          
           -------------------------------------------------
          |                Final Singlepoint                |
           -------------------------------------------------

          ...................................................
          :                      SETUP                      :
          :.................................................:
          :  # basis functions                  50          :
          :  # atomic orbitals                  50          :
          :  # shells                           32          :
          :  # electrons                        52          :
          :  max. iterations                   250          :
          :  Hamiltonian                  GFN2-xTB          :
          :  restarted?                      false          :
          :  GBSA solvation                  false          :
          :  PC potential                    false          :
          :  electronic temp.          300.0000000     K    :
          :  accuracy                    1.0000000          :
          :  -> integral cutoff          0.2500000E+02      :
          :  -> integral neglect         0.1000000E-07      :
          :  -> SCF convergence          0.1000000E-05 Eh   :
          :  -> wf. convergence          0.1000000E-03 e    :
          :  Broyden damping             0.4000000          :
          :  net charge                          0          :
          :  unpaired electrons                  0          :
          ...................................................

 iter      E             dE          RMSdq      gap      omega  full diag
   1    -28.7323334 -0.287323E+02  0.219E-05    3.87       0.0  T
   2    -28.7323334 -0.114397E-11  0.143E-05    3.87    1461.0  T
   3    -28.7323334 -0.106581E-12  0.770E-06    3.87    2708.0  T

   *** convergence criteria satisfied after 3 iterations ***

         #    Occupation            Energy/Eh            Energy/eV
      -------------------------------------------------------------
         1        2.0000           -0.7066652             -19.2293
       ...           ...                  ...                  ...
        20        2.0000           -0.4667431             -12.7007
        21        2.0000           -0.4472155             -12.1694
        22        2.0000           -0.4417762             -12.0213
        23        2.0000           -0.4305761             -11.7166
        24        2.0000           -0.4245603             -11.5529
        25        2.0000           -0.4176794             -11.3656
        26        2.0000           -0.3885819             -10.5739 (HOMO)
        27                         -0.2462425              -6.7006 (LUMO)
        28                          0.0509703               1.3870
        29                          0.0856546               2.3308
        30                          0.0888792               2.4185
        31                          0.0937652               2.5515
       ...                                ...                  ...
        50                          0.6330066              17.2250
      -------------------------------------------------------------
                  HL-Gap            0.1423394 Eh            3.8733 eV
             Fermi-level           -0.3174122 Eh           -8.6372 eV

 SCC (total)                   0 d,  0 h,  0 min,  0.014 sec
 SCC setup                      ...        0 min,  0.000 sec (  1.043%)
 Dispersion                     ...        0 min,  0.000 sec (  0.670%)
 classical contributions        ...        0 min,  0.000 sec (  0.212%)
 integral evaluation            ...        0 min,  0.003 sec ( 22.271%)
 iterations                     ...        0 min,  0.002 sec ( 13.108%)
 molecular gradient             ...        0 min,  0.009 sec ( 61.723%)
 printout                       ...        0 min,  0.000 sec (  0.825%)

         :::::::::::::::::::::::::::::::::::::::::::::::::::::
         ::                     SUMMARY                     ::
         :::::::::::::::::::::::::::::::::::::::::::::::::::::
         :: total energy             -28.349415565507 Eh    ::
         :: gradient norm              0.000041802998 Eh/a0 ::
         :: HOMO-LUMO gap              3.873252719225 eV    ::
         ::.................................................::
         :: SCC energy               -28.732248055994 Eh    ::
         :: -> isotropic ES            0.027933794916 Eh    ::
         :: -> anisotropic ES          0.005014472904 Eh    ::
         :: -> anisotropic XC          0.012891631460 Eh    ::
         :: -> dispersion             -0.016851294938 Eh    ::
         :: repulsion energy           0.382832490487 Eh    ::
         :: add. restraining           0.000000000000 Eh    ::
         :: total charge              -0.000000000000 e     ::
         :::::::::::::::::::::::::::::::::::::::::::::::::::::

           ------------------------------------------------- 
          |                Numerical Hessian                |
           ------------------------------------------------- 
step length          :   0.00500
SCC accuracy         :   0.30000
Hessian scale factor :   1.00000
frozen atoms in %    :   0.00000    0
RMS gradient         :   0.00004
estimated CPU  time      0.04 min
estimated wall time      0.04 min

writing file <hessian>.

 projected vibrational frequencies (cm⁻¹)
eigval :       -0.00    -0.00    -0.00     0.00     0.00     0.00
eigval :       36.94    93.55   109.31   179.54   227.87   281.26
eigval :      312.74   371.67   427.26   438.31   519.59   556.61
eigval :      614.16   813.06   823.40   890.68   896.48   931.48
eigval :      946.75   952.13   980.42   998.37  1010.77  1067.39
eigval :     1093.26  1110.98  1133.55  1142.14  1166.60  1196.93
eigval :     1224.78  1246.30  1249.31  1266.28  1297.81  1333.39
eigval :     1339.94  1353.12  1355.37  1360.69  1368.06  1454.42
eigval :     1464.37  1482.07  1486.55  1490.82  1493.28  1504.86
eigval :     1767.64  2916.13  2960.64  2961.55  2971.31  2973.80
eigval :     2979.49  2981.62  2986.07  2988.35  2989.11  2998.47
eigval :     3015.78  3047.49  3054.55
           -------------------------------------------------
          |                Property Printout                |
           -------------------------------------------------

    * Orbital Energies and Occupations

         #    Occupation            Energy/Eh            Energy/eV
      -------------------------------------------------------------
         1        2.0000           -0.7066653             -19.2293
       ...           ...                  ...                  ...
        14        2.0000           -0.5032894             -13.6952
        15        2.0000           -0.4987484             -13.5716
        16        2.0000           -0.4892159             -13.3122
        17        2.0000           -0.4782242             -13.0131
        18        2.0000           -0.4709173             -12.8143
        19        2.0000           -0.4700850             -12.7917
        20        2.0000           -0.4667431             -12.7007
        21        2.0000           -0.4472155             -12.1694
        22        2.0000           -0.4417762             -12.0213
        23        2.0000           -0.4305761             -11.7166
        24        2.0000           -0.4245603             -11.5529
        25        2.0000           -0.4176794             -11.3656
        26        2.0000           -0.3885819             -10.5739 (HOMO)
        27                         -0.2462426              -6.7006 (LUMO)
        28                          0.0509703               1.3870
        29                          0.0856545               2.3308
        30                          0.0888792               2.4185
        31                          0.0937652               2.5515
        32                          0.1059779               2.8838
        33                          0.1091775               2.9709
        34                          0.1294888               3.5236
        35                          0.1526856               4.1548
        36                          0.1611154               4.3842
        37                          0.1751807               4.7669
       ...                                ...                  ...
        50                          0.6330065              17.2250
      -------------------------------------------------------------
                  HL-Gap            0.1423394 Eh            3.8733 eV
             Fermi-level           -0.3174122 Eh           -8.6372 eV

     #   Z          covCN         q      C6AA      α(0)
     1   6 C        3.753    -0.139    23.231     6.873
     2   6 C        2.814     0.237    23.053     7.867
     3   8 O        0.857    -0.358    20.855     6.123
     4   6 C        3.856    -0.042    21.283     6.561
     5   6 C        3.808    -0.053    21.523     6.604
     6   6 C        3.805    -0.054    21.547     6.608
     7   6 C        3.806    -0.057    21.591     6.615
     8   6 C        3.806    -0.056    21.580     6.613
     9   6 C        3.809    -0.055    21.564     6.610
    10   1 H        0.925     0.068     2.103     2.268
    11   1 H        0.925     0.053     2.288     2.365
    12   1 H        0.925     0.070     2.085     2.258
    13   1 H        0.924     0.045     2.385     2.415
    14   1 H        0.924     0.038     2.477     2.461
    15   1 H        0.924     0.031     2.576     2.510
    16   1 H        0.924     0.031     2.578     2.511
    17   1 H        0.924     0.032     2.553     2.499
    18   1 H        0.924     0.035     2.521     2.483
    19   1 H        0.924     0.029     2.607     2.525
    20   1 H        0.924     0.031     2.571     2.508
    21   1 H        0.924     0.030     2.587     2.515
    22   1 H        0.924     0.049     2.338     2.391
    23   1 H        0.924     0.037     2.486     2.466

 Mol. C6AA /au·bohr⁶  :       4063.050820
 Mol. C8AA /au·bohr⁸  :      88423.902743
 Mol. α(0) /au        :         94.648690


Wiberg/Mayer (AO) data.
largest (>0.10) Wiberg bond orders for each atom

 ---------------------------------------------------------------------------
     #   Z sym  total        # sym  WBO       # sym  WBO       # sym  WBO
 ---------------------------------------------------------------------------
     1   6 C    3.994 --     2 C    1.000    11 H    0.980    10 H    0.977
                            12 H    0.952
     2   6 C    3.914 --     3 O    1.870     1 C    1.000     4 C    0.973
     3   8 O    2.074 --     2 C    1.870
     4   6 C    3.995 --     9 C    0.997     2 C    0.973     5 C    0.971
                            13 H    0.950
     5   6 C    3.996 --     6 C    1.006    14 H    0.977    15 H    0.976
                             4 C    0.971
     6   6 C    3.998 --     7 C    1.009     5 C    1.006    17 H    0.977
                            16 H    0.976
     7   6 C    3.998 --     6 C    1.009     8 C    1.009    19 H    0.978
                            18 H    0.977
     8   6 C    3.998 --     7 C    1.009     9 C    1.009    21 H    0.977
                            20 H    0.977
     9   6 C    3.996 --     8 C    1.009     4 C    0.997    23 H    0.976
                            22 H    0.975
    10   1 H    0.995 --     1 C    0.977
    11   1 H    0.997 --     1 C    0.980
    12   1 H    0.995 --     1 C    0.952
    13   1 H    0.998 --     4 C    0.950
    14   1 H    0.999 --     5 C    0.977
    15   1 H    0.999 --     5 C    0.976
    16   1 H    0.998 --     6 C    0.976
    17   1 H    0.999 --     6 C    0.977
    18   1 H    0.999 --     7 C    0.977
    19   1 H    0.999 --     7 C    0.978
    20   1 H    0.999 --     8 C    0.977
    21   1 H    0.999 --     8 C    0.977
    22   1 H    0.998 --     9 C    0.975
    23   1 H    0.999 --     9 C    0.976
 ---------------------------------------------------------------------------

Topologies differ in total number of bonds
Writing topology from bond orders to xtbtopo.mol

molecular dipole:
                 x           y           z       tot (Debye)
 q only:        0.505      -0.290      -0.893
   full:        0.529      -0.360      -1.094       3.220
molecular quadrupole (traceless):
                xx          xy          yy          xz          yz          zz
 q only:       -0.852       2.143       1.473       6.302      -0.170      -0.622
  q+dip:       -2.102       2.607       2.104       7.335      -1.657      -0.003
   full:       -1.954       2.408       2.717       7.532      -1.433      -0.763

           -------------------------------------------------
          |                Geometry Summary                 |
           -------------------------------------------------

      molecular mass/u    :      126.1964626
   center of mass at/Å    :       -0.0074757       0.0363953      -0.0080454
  moments of inertia/u·Å² :        0.1634044E+03   0.4613068E+03   0.5664525E+03
rotational constants/cm⁻¹ :        0.1031651E+00   0.3654321E-01   0.2976001E-01

 * 21 selected distances

     #   Z          #   Z                                           value/Å
     2   6 C        3   8 O                                       1.2049972
     4   6 C        5   6 C                                       1.5357444 (max)
     5   6 C        6   6 C                                       1.5263558
     6   6 C        7   6 C                                       1.5250867
     7   6 C        8   6 C                                       1.5252770
     4   6 C        9   6 C                                       1.5287016
     8   6 C        9   6 C                                       1.5243105
     1   6 C       10   1 H                                       1.0870770
     1   6 C       11   1 H                                       1.0857615 (min)
     1   6 C       12   1 H                                       1.0891739
     4   6 C       13   1 H                                       1.0962695
     5   6 C       14   1 H                                       1.0924335
     5   6 C       15   1 H                                       1.0914369
     6   6 C       16   1 H                                       1.0920966
     6   6 C       17   1 H                                       1.0927991
     7   6 C       18   1 H                                       1.0922174
     7   6 C       19   1 H                                       1.0919210
     8   6 C       20   1 H                                       1.0915485
     8   6 C       21   1 H                                       1.0930265
     9   6 C       22   1 H                                       1.0915024
     9   6 C       23   1 H                                       1.0916121

 * 3 distinct bonds (by element types)

   Z      Z             #   av. dist./Å        max./Å        min./Å
   1 H    6 C          14     1.0913483     1.0962695     1.0857615
   6 C    6 C           6     1.5275793     1.5357444     1.5243105
   6 C    8 O           1     1.2049972     1.2049972     1.2049972

           -------------------------------------------------
          |               Frequency Printout                |
           -------------------------------------------------
 projected vibrational frequencies (cm⁻¹)
eigval :       -0.00    -0.00    -0.00     0.00     0.00     0.00
eigval :       36.94    93.55   109.31   179.54   227.87   281.26
eigval :      312.74   371.67   427.26   438.31   519.59   556.61
eigval :      614.16   813.06   823.40   890.68   896.48   931.48
eigval :      946.75   952.13   980.42   998.37  1010.77  1067.39
eigval :     1093.26  1110.98  1133.55  1142.14  1166.60  1196.93
eigval :     1224.78  1246.30  1249.31  1266.28  1297.81  1333.39
eigval :     1339.94  1353.12  1355.37  1360.69  1368.06  1454.42
eigval :     1464.37  1482.07  1486.55  1490.82  1493.28  1504.86
eigval :     1767.64  2916.13  2960.64  2961.55  2971.31  2973.80
eigval :     2979.49  2981.62  2986.07  2988.35  2989.11  2998.47
eigval :     3015.78  3047.49  3054.55
 reduced masses (amu)
   1: 11.03   2: 10.41   3: 10.95   4: 10.52   5: 12.11   6: 10.14   7: 11.25   8:  2.53
   9:  8.47  10:  9.74  11:  6.37  12:  8.72  13: 10.61  14:  7.19  15:  9.21  16:  9.30
  17:  6.79  18:  8.63  19:  9.89  20:  7.37  21:  4.83  22:  4.89  23:  9.14  24:  3.67
  25:  7.58  26:  7.25  27:  5.84  28:  7.05  29:  7.45  30:  1.59  31:  6.36  32:  5.54
  33:  6.86  34:  7.73  35:  8.06  36:  4.68  37:  5.25  38:  3.83  39:  3.38  40:  3.94
  41:  3.91  42:  4.46  43:  4.48  44:  4.93  45:  5.20  46:  5.55  47:  3.20  48:  1.63
  49:  1.68  50:  1.87  51:  1.94  52:  2.02  53:  1.89  54:  2.03  55: 13.41  56:  1.75
  57:  1.88  58:  1.87  59:  1.99  60:  1.81  61:  1.77  62:  1.58  63:  1.65  64:  1.67
  65:  1.60  66:  1.55  67:  1.78  68:  1.40  69:  1.97
 IR intensities (km·mol⁻¹)
   1:  1.24   2:  0.52   3:  0.27   4:  0.08   5:  0.57   6:  0.52   7:  3.74   8:  0.35
   9:  1.52  10:  2.89  11:  0.18  12:  0.81  13:  0.83  14:  0.39  15:  0.18  16:  1.84
  17:  2.95  18:  5.90  19:  8.93  20:  0.80  21:  0.07  22:  3.61  23:  2.02  24:  6.80
  25:  9.32  26:  5.74  27:  2.34  28: 10.75  29: 14.52  30:  0.74  31:  1.21  32:  1.14
  33: 40.95  34:  0.87  35: 80.81  36:  5.79  37: 26.10  38:  0.23  39:  1.36  40: 18.86
  41:  3.72  42:  0.74  43:  1.88  44:  6.36  45:  0.34  46:  4.46  47: 29.43  48:  7.46
  49:  8.53  50:  0.28  51:  1.01  52:  0.23  53:  1.54  54:  0.23  55:308.13  56: 23.28
  57: 13.11  58: 12.84  59: 13.71  60: 16.71  61: 10.17  62: 46.26  63: 83.17  64:151.89
  65: 73.77  66: 63.48  67:  8.35  68:  7.49  69: 20.78
 Raman intensities (Ä⁴*amu⁻¹)
   1:  0.00   2:  0.00   3:  0.00   4:  0.00   5:  0.00   6:  0.00   7:  0.00   8:  0.00
   9:  0.00  10:  0.00  11:  0.00  12:  0.00  13:  0.00  14:  0.00  15:  0.00  16:  0.00
  17:  0.00  18:  0.00  19:  0.00  20:  0.00  21:  0.00  22:  0.00  23:  0.00  24:  0.00
  25:  0.00  26:  0.00  27:  0.00  28:  0.00  29:  0.00  30:  0.00  31:  0.00  32:  0.00
  33:  0.00  34:  0.00  35:  0.00  36:  0.00  37:  0.00  38:  0.00  39:  0.00  40:  0.00
  41:  0.00  42:  0.00  43:  0.00  44:  0.00  45:  0.00  46:  0.00  47:  0.00  48:  0.00
  49:  0.00  50:  0.00  51:  0.00  52:  0.00  53:  0.00  54:  0.00  55:  0.00  56:  0.00
  57:  0.00  58:  0.00  59:  0.00  60:  0.00  61:  0.00  62:  0.00  63:  0.00  64:  0.00
  65:  0.00  66:  0.00  67:  0.00  68:  0.00  69:  0.00
 output can be read by thermo (or use thermo option).
 writing <g98.out> molden fake output.
 recommended (thermochemical) frequency scaling factor: 1.0
           -------------------------------------------------
          |             Thermodynamic Functions             |
           -------------------------------------------------

Molecule has no symmetry elements
It seems to be the C1 point group
c1  symmetry found (for desy threshold:  0.10E+00) used in thermo

          ...................................................
          :                      SETUP                      :
          :.................................................:
          :  # frequencies                          63      :
          :  # imaginary freq.                       0      :
          :  linear?                             false      :
          :  only rotor calc.                    false      :
          :  symmetry                               c1      :
          :  rotational number                       1      :
          :  scaling factor                  1.0000000      :
          :  rotor cutoff                    0.0000000 cm⁻¹ :
          :  imag. cutoff                 -100.0000000 cm⁻¹ :
          :.................................................:

    mode    ω/cm⁻¹     T·S(HO)/kcal·mol⁻¹    T·S(FR)/kcal·mol⁻¹   T·S(vib)
   ------------------------------------------------------------------------
       1     36.94    -1.61497 (100.00%)    -1.14587 (  0.00%)    -1.61497
       2     93.55    -1.06868 (100.00%)    -0.87082 (  0.00%)    -1.06868
       3    109.31    -0.97829 (100.00%)    -0.82473 (  0.00%)    -0.97829
       4    179.54    -0.69564 (100.00%)    -0.67777 (  0.00%)    -0.69564
       5    227.87    -0.56519 (100.00%)    -0.60717 (  0.00%)    -0.56519
       6    281.26    -0.45497 (100.00%)    -0.54482 (  0.00%)    -0.45497
   ------------------------------------------------------------------------

   temp. (K)  partition function   enthalpy   heat capacity  entropy
                                   cal/mol     cal/K/mol   cal/K/mol   J/K/mol
 298.15  VIB   424.                 4112.995     29.290     25.816
         ROT  0.499E+06              888.752      2.981     29.055
         INT  0.211E+09             5001.747     32.271     54.871
         TR   0.137E+28             1481.254      4.968     40.393
         TOT                        6483.0012    37.2388    95.2641   398.5848

       T/K    H(0)-H(T)+PV         H(T)/Eh          T*S/Eh         G(T)/Eh
   ------------------------------------------------------------------------
    298.15    0.103313E-01    0.214652E+00    0.452630E-01    0.169389E+00
   ------------------------------------------------------------------------

         :::::::::::::::::::::::::::::::::::::::::::::::::::::
         ::                  THERMODYNAMIC                  ::
         :::::::::::::::::::::::::::::::::::::::::::::::::::::
         :: total free energy         -28.180026216418 Eh   ::
         ::.................................................::
         :: total energy              -28.349415565507 Eh   ::
         :: zero point energy           0.204321056684 Eh   ::
         :: G(RRHO) w/o ZPVE           -0.034931707594 Eh   ::
         :: G(RRHO) contrib.            0.169389349089 Eh   ::
         :::::::::::::::::::::::::::::::::::::::::::::::::::::

optimized geometry written to: xtbopt.coord


           -------------------------------------------------
          | TOTAL ENERGY              -28.349415565507 Eh   |
          | TOTAL ENTHALPY            -28.134763188856 Eh   |
          | TOTAL FREE ENERGY         -28.180026216418 Eh   |
          | GRADIENT NORM               0.000041745197 Eh/α |
          | HOMO-LUMO GAP               3.873250914896 eV   |
           -------------------------------------------------

------------------------------------------------------------------------
 * finished run on 2025/04/15 at 19:56:19.987     
------------------------------------------------------------------------
 total:
 * wall-time:     0 d,  0 h,  0 min,  2.127 sec
 *  cpu-time:     0 d,  0 h,  0 min,  2.053 sec
 * ratio c/w:     0.965 speedup
 SCF:
 * wall-time:     0 d,  0 h,  0 min,  0.023 sec
 *  cpu-time:     0 d,  0 h,  0 min,  0.020 sec
 * ratio c/w:     0.893 speedup
 ANC optimizer:
 * wall-time:     0 d,  0 h,  0 min,  0.332 sec
 *  cpu-time:     0 d,  0 h,  0 min,  0.286 sec
 * ratio c/w:     0.860 speedup
 analytical hessian:
 * wall-time:     0 d,  0 h,  0 min,  1.732 sec
 *  cpu-time:     0 d,  0 h,  0 min,  1.730 sec
 * ratio c/w:     0.999 speedup

