      -----------------------------------------------------------      
     |                   =====================                   |     
     |                           x T B                           |     
     |                   =====================                   |     
     |                         S. Grimme                         |     
     |          Mulliken Center for Theoretical Chemistry        |     
     |                    University of Bonn                     |     
      -----------------------------------------------------------      

   * xtb version 6.7.1 (edcfbbe) compiled by 'albert@albert-system' on 2024-07-22

   xtb is free software: you can redistribute it and/or modify it under
   the terms of the GNU Lesser General Public License as published by
   the Free Software Foundation, either version 3 of the License, or
   (at your option) any later version.
   
   xtb is distributed in the hope that it will be useful,
   but WITHOUT ANY WARRANTY; without even the implied warranty of
   MERCHANTABILITY or FITNESS FOR A PARTICULAR PURPOSE.  See the
   GNU Lesser General Public License for more details.
   
   Cite this work as:
   * C. Bannwarth, E. Caldeweyher, S. Ehlert, A. Hansen, P. Pracht,
     J. Seibert, S. Spicher, S. Grimme, WIREs Comput. Mol. Sci., 2020, 11,
     e01493. DOI: 10.1002/wcms.1493
   
   for GFN2-xTB:
   * C. Bannwarth, S. Ehlert and S. Grimme., J. Chem. Theory Comput., 2019,
     15, 1652-1671. DOI: 10.1021/acs.jctc.8b01176
   for GFN1-xTB:
   * S. Grimme, C. Bannwarth, P. Shushkov, J. Chem. Theory Comput., 2017,
     13, 1989-2009. DOI: 10.1021/acs.jctc.7b00118
   for GFN0-xTB:
   * P. Pracht, E. Caldeweyher, S. Ehlert, S. Grimme, ChemRxiv, 2019, preprint.
     DOI: 10.26434/chemrxiv.8326202.v1
   for GFN-FF:
   * S. Spicher and S. Grimme, Angew. Chem. Int. Ed., 2020, 59, 15665-15673.
     DOI: 10.1002/anie.202004239
   
   for ALPB and GBSA implicit solvation:
   * S. Ehlert, M. Stahn, S. Spicher, S. Grimme, J. Chem. Theory Comput.,
     2021, 17, 4250-4261. DOI: 10.1021/acs.jctc.1c00471
   
   for ddCOSMO and CPCM-X implicit solvation:
   * M. Stahn, S. Ehlert, S. Grimme, J. Phys. Chem. A,
     2023, XX, XXXX-XXXX. DOI: 10.1021/acs.jpca.3c04382
   
   for DFT-D4:
   * E. Caldeweyher, C. Bannwarth and S. Grimme, J. Chem. Phys., 2017,
     147, 034112. DOI: 10.1063/1.4993215
   * E. Caldeweyher, S. Ehlert, A. Hansen, H. Neugebauer, S. Spicher,
     C. Bannwarth and S. Grimme, J. Chem. Phys., 2019, 150, 154122.
     DOI: 10.1063/1.5090222
   * E. Caldeweyher, J.-M. Mewes, S. Ehlert and S. Grimme, Phys. Chem. Chem. Phys.
     2020, 22, 8499-8512. DOI: 10.1039/D0CP00502A
   
   for sTDA-xTB:
   * S. Grimme and C. Bannwarth, J. Chem. Phys., 2016, 145, 054103.
     DOI: 10.1063/1.4959605
   
   in the mass-spec context:
   * V. Asgeirsson, C. Bauer and S. Grimme, Chem. Sci., 2017, 8, 4879.
     DOI: 10.1039/c7sc00601b
   * J. Koopman and S. Grimme, ACS Omega 2019, 4, 12, 15120-15133.
     DOI: 10.1021/acsomega.9b02011
   
   for metadynamics refer to:
   * S. Grimme, J. Chem. Theory Comput., 2019, 155, 2847-2862
     DOI: 10.1021/acs.jctc.9b00143
   
   for SPH calculations refer to:
   * S. Spicher and S. Grimme, J. Chem. Theory Comput., 2021, 17, 1701-1714
     DOI: 10.1021/acs.jctc.0c01306
   
   for ONIOM refer to:
   * C. Plett, A. Katbashev, S. Ehlert, S. Grimme, M. Bursch,
     Phys. Chem. Chem. Phys., 2023, 25, 17860-17868. DOI: 10.1039/D3CP02178E
   
   for DIPRO refer to:
   * J. Kohn, N. Gildemeister, S. Grimme, D. Fazzi, A. Hansen,
     J. Chem. Phys., 2023, just accepted.
   
   for PTB refer to:
   * S. Grimme, M. Mueller, A. Hansen, J. Chem. Phys., 2023, 158, 124111.
     DOI: 10.1063/5.0137838
   
   with help from (in alphabetical order)
   P. Atkinson, C. Bannwarth, F. Bohle, G. Brandenburg, E. Caldeweyher
   M. Checinski, S. Dohm, S. Ehlert, S. Ehrlich, I. Gerasimov, C. Hölzer
   A. Katbashev, J. Kohn, J. Koopman, C. Lavigne, S. Lehtola, F. März, M. Müller,
   F. Musil, H. Neugebauer, J. Pisarek, C. Plett, P. Pracht, F. Pultar,
   J. Seibert, P. Shushkov, S. Spicher, M. Stahn, M. Steiner, T. Strunk,
   J. Stückrath, T. Rose, and J. Unsleber
   
 * started run on 2025/04/15 at 20:00:32.984     
   ID    Z sym.   atoms
    1    6 C      1-4
    2    8 O      5
    3    1 H      6-13

           -------------------------------------------------
          |                Calculation Setup                |
           -------------------------------------------------

          program call               : /software/projects/pawsey0265/mwang1/xtb/bin/xtb xtb_rrho.coord --gfn2 --bhess vtight --chrg 0 --enso --norestart -I rrho-xcontrol-inp --parallel 1
          hostname                   : nid002793
          coordinate file            : xtb_rrho.coord
          omp threads                :                     1


           -------------------------------------------------
          |                 G F N 2 - x T B                 |
           -------------------------------------------------

        Reference                      10.1021/acs.jctc.8b01176
      * Hamiltonian:
        H0-scaling (s, p, d)           1.850000    2.230000    2.230000
        zeta-weighting                 0.500000
      * Dispersion:
        s8                             2.700000
        a1                             0.520000
        a2                             5.000000
        s9                             5.000000
      * Repulsion:
        kExp                           1.500000    1.000000
        rExp                           1.000000
      * Coulomb:
        alpha                          2.000000
        third order                    shell-resolved
        anisotropic                    true
        a3                             3.000000
        a5                             4.000000
        cn-shift                       1.200000
        cn-exp                         4.000000
        max-rad                        5.000000


          ...................................................
          :                      SETUP                      :
          :.................................................:
          :  # basis functions                  28          :
          :  # atomic orbitals                  28          :
          :  # shells                           18          :
          :  # electrons                        30          :
          :  max. iterations                   250          :
          :  Hamiltonian                  GFN2-xTB          :
          :  restarted?                      false          :
          :  GBSA solvation                  false          :
          :  PC potential                    false          :
          :  electronic temp.          300.0000000     K    :
          :  accuracy                    1.0000000          :
          :  -> integral cutoff          0.2500000E+02      :
          :  -> integral neglect         0.1000000E-07      :
          :  -> SCF convergence          0.1000000E-05 Eh   :
          :  -> wf. convergence          0.1000000E-03 e    :
          :  Broyden damping             0.4000000          :
          :  net charge                          0          :
          :  unpaired electrons                  0          :
          ...................................................

 iter      E             dE          RMSdq      gap      omega  full diag
   1    -16.8359353 -0.168359E+02  0.433E+00    4.38       0.0  T
   2    -16.8793245 -0.433892E-01  0.217E+00    3.42       1.0  T
   3    -16.8837339 -0.440931E-02  0.154E+00    3.81       1.0  T
   4    -16.8882504 -0.451652E-02  0.200E-01    3.54       1.0  T
   5    -16.8883732 -0.122801E-03  0.848E-02    3.59       1.0  T
   6    -16.8883945 -0.213641E-04  0.308E-02    3.59       1.0  T
   7    -16.8883950 -0.439646E-06  0.101E-02    3.59       2.7  T
   8    -16.8883953 -0.282899E-06  0.253E-03    3.59      11.0  T
   9    -16.8883953  0.351008E-08  0.110E-03    3.59      25.1  T
  10    -16.8883953 -0.805413E-08  0.354E-04    3.59      78.3  T
  11    -16.8883953 -0.115437E-08  0.470E-05    3.59     589.5  T

   *** convergence criteria satisfied after 11 iterations ***

         #    Occupation            Energy/Eh            Energy/eV
      -------------------------------------------------------------
         1        2.0000           -0.7167219             -19.5030
       ...           ...                  ...                  ...
         9        2.0000           -0.5075509             -13.8112
        10        2.0000           -0.4878088             -13.2740
        11        2.0000           -0.4756691             -12.9436
        12        2.0000           -0.4712874             -12.8244
        13        2.0000           -0.4557219             -12.4008
        14        2.0000           -0.4451914             -12.1143
        15        2.0000           -0.4014492             -10.9240 (HOMO)
        16                         -0.2696561              -7.3377 (LUMO)
        17                          0.0506164               1.3773
        18                          0.0778050               2.1172
        19                          0.1201645               3.2698
        20                          0.1288036               3.5049
       ...                                ...                  ...
        28                          0.5760681              15.6756
      -------------------------------------------------------------
                  HL-Gap            0.1317930 Eh            3.5863 eV
             Fermi-level           -0.3355527 Eh           -9.1309 eV

 SCC (total)                   0 d,  0 h,  0 min,  0.031 sec
 SCC setup                      ...        0 min,  0.000 sec (  0.586%)
 Dispersion                     ...        0 min,  0.000 sec (  0.242%)
 classical contributions        ...        0 min,  0.000 sec (  0.091%)
 integral evaluation            ...        0 min,  0.001 sec (  2.538%)
 iterations                     ...        0 min,  0.028 sec ( 90.390%)
 molecular gradient             ...        0 min,  0.002 sec (  5.754%)
 printout                       ...        0 min,  0.000 sec (  0.295%)

         :::::::::::::::::::::::::::::::::::::::::::::::::::::
         ::                     SUMMARY                     ::
         :::::::::::::::::::::::::::::::::::::::::::::::::::::
         :: total energy             -16.683140194178 Eh    ::
         :: gradient norm              0.027141010406 Eh/a0 ::
         :: HOMO-LUMO gap              3.586271216848 eV    ::
         ::.................................................::
         :: SCC energy               -16.888386760487 Eh    ::
         :: -> isotropic ES            0.022318852863 Eh    ::
         :: -> anisotropic ES          0.003327086529 Eh    ::
         :: -> anisotropic XC          0.008024170483 Eh    ::
         :: -> dispersion             -0.006530665324 Eh    ::
         :: repulsion energy           0.205246566309 Eh    ::
         :: add. restraining           0.000000000000 Eh    ::
         :: total charge               0.000000000000 e     ::
         :::::::::::::::::::::::::::::::::::::::::::::::::::::

metadynamics with 1 initial structures loaded
           -------------------------------------------------
          |           Optimal kpush determination           |
           -------------------------------------------------
      ----------------------------------------------------------- 
     |                   =====================                   |
     |                        A N C O P T                        |
     |                   =====================                   |
     |               Approximate Normal Coordinate               |
     |                Rational Function Optimizer                |
      ----------------------------------------------------------- 
target rmsd / Å         0.100000
unbiased initial rmsd   0.438819
 
iter. min.        max.        rmsd       kpush
      ----------------------------------------------------------- 
     |                   =====================                   |
     |                        A N C O P T                        |
     |                   =====================                   |
     |               Approximate Normal Coordinate               |
     |                Rational Function Optimizer                |
      ----------------------------------------------------------- 
 1    0.000000    0.590909    0.009860   -0.295455
      ----------------------------------------------------------- 
     |                   =====================                   |
     |                        A N C O P T                        |
     |                   =====================                   |
     |               Approximate Normal Coordinate               |
     |                Rational Function Optimizer                |
      ----------------------------------------------------------- 
 2    0.000000    0.295455    0.011944   -0.147727
      ----------------------------------------------------------- 
     |                   =====================                   |
     |                        A N C O P T                        |
     |                   =====================                   |
     |               Approximate Normal Coordinate               |
     |                Rational Function Optimizer                |
      ----------------------------------------------------------- 
 3    0.000000    0.147727    0.013608   -0.073864
      ----------------------------------------------------------- 
     |                   =====================                   |
     |                        A N C O P T                        |
     |                   =====================                   |
     |               Approximate Normal Coordinate               |
     |                Rational Function Optimizer                |
      ----------------------------------------------------------- 
 4    0.000000    0.073864    0.014909   -0.036932
      ----------------------------------------------------------- 
     |                   =====================                   |
     |                        A N C O P T                        |
     |                   =====================                   |
     |               Approximate Normal Coordinate               |
     |                Rational Function Optimizer                |
      ----------------------------------------------------------- 
 5    0.000000    0.036932    0.016022   -0.018466
      ----------------------------------------------------------- 
     |                   =====================                   |
     |                        A N C O P T                        |
     |                   =====================                   |
     |               Approximate Normal Coordinate               |
     |                Rational Function Optimizer                |
      ----------------------------------------------------------- 
 6    0.000000    0.018466    0.017027   -0.009233
      ----------------------------------------------------------- 
     |                   =====================                   |
     |                        A N C O P T                        |
     |                   =====================                   |
     |               Approximate Normal Coordinate               |
     |                Rational Function Optimizer                |
      ----------------------------------------------------------- 
 7    0.000000    0.009233    0.279432   -0.004616
      ----------------------------------------------------------- 
     |                   =====================                   |
     |                        A N C O P T                        |
     |                   =====================                   |
     |               Approximate Normal Coordinate               |
     |                Rational Function Optimizer                |
      ----------------------------------------------------------- 
 8    0.004616    0.009233    0.017392   -0.006925
      ----------------------------------------------------------- 
     |                   =====================                   |
     |                        A N C O P T                        |
     |                   =====================                   |
     |               Approximate Normal Coordinate               |
     |                Rational Function Optimizer                |
      ----------------------------------------------------------- 
 9    0.004616    0.006925    0.236664   -0.005771
      ----------------------------------------------------------- 
     |                   =====================                   |
     |                        A N C O P T                        |
     |                   =====================                   |
     |               Approximate Normal Coordinate               |
     |                Rational Function Optimizer                |
      ----------------------------------------------------------- 
10    0.005771    0.006925    0.017495   -0.006348
final kpush: -0.006348
           -------------------------------------------------
          |            Biased Numerical Hessian             |
           -------------------------------------------------
kpush                :  -0.00635
alpha                :   1.00000
step length          :   0.00500
SCC accuracy         :   0.30000
Hessian scale factor :   1.00000
frozen atoms in %    :   0.00000    0
RMS gradient         :   0.00005
estimated CPU  time      0.00 min
estimated wall time      0.00 min

writing file <hessian>.

 projected vibrational frequencies (cm⁻¹)
eigval :       -0.00    -0.00     0.00     0.00     0.00     0.00
eigval :       41.66   190.42   221.75   241.56   261.92   363.41
eigval :      661.88   847.81   881.94   948.98   970.69   990.06
eigval :     1107.74  1131.79  1174.36  1300.89  1311.54  1383.85
eigval :     1395.38  1409.41  1483.19  1487.60  1492.62  1499.45
eigval :     1789.52  2738.85  2953.90  3030.49  3034.11  3036.76
eigval :     3038.64  3044.99  3048.57
           -------------------------------------------------
          |                Property Printout                |
           -------------------------------------------------

    * Orbital Energies and Occupations

         #    Occupation            Energy/Eh            Energy/eV
      -------------------------------------------------------------
         1        2.0000           -0.7195098             -19.5789
       ...           ...                  ...                  ...
         3        2.0000           -0.6128095             -16.6754
         4        2.0000           -0.6039836             -16.4352
         5        2.0000           -0.5751920             -15.6518
         6        2.0000           -0.5619223             -15.2907
         7        2.0000           -0.5404627             -14.7067
         8        2.0000           -0.5244276             -14.2704
         9        2.0000           -0.5085231             -13.8376
        10        2.0000           -0.4891428             -13.3103
        11        2.0000           -0.4766460             -12.9702
        12        2.0000           -0.4718045             -12.8385
        13        2.0000           -0.4547464             -12.3743
        14        2.0000           -0.4463457             -12.1457
        15        2.0000           -0.4004699             -10.8973 (HOMO)
        16                         -0.2661516              -7.2424 (LUMO)
        17                          0.0666011               1.8123
        18                          0.0875908               2.3835
        19                          0.1224656               3.3325
        20                          0.1318807               3.5887
        21                          0.1554863               4.2310
        22                          0.1897648               5.1638
        23                          0.1937596               5.2725
        24                          0.2248151               6.1175
        25                          0.2345022               6.3811
        26                          0.2433688               6.6224
       ...                                ...                  ...
        28                          0.6156551              16.7528
      -------------------------------------------------------------
                  HL-Gap            0.1343183 Eh            3.6550 eV
             Fermi-level           -0.3333108 Eh           -9.0698 eV

     #   Z          covCN         q      C6AA      α(0)
     1   6 C        3.758    -0.102    22.506     6.764
     2   6 C        3.850    -0.029    21.048     6.525
     3   6 C        3.758    -0.102    22.508     6.764
     4   6 C        2.765     0.216    23.440     7.929
     5   8 O        0.856    -0.316    20.070     6.006
     6   1 H        0.925     0.047     2.357     2.401
     7   1 H        0.925     0.058     2.228     2.334
     8   1 H        0.925     0.037     2.483     2.464
     9   1 H        0.924     0.036     2.498     2.472
    10   1 H        0.925     0.047     2.359     2.402
    11   1 H        0.925     0.037     2.483     2.464
    12   1 H        0.925     0.058     2.226     2.333
    13   1 H        0.922     0.013     2.845     2.638

 Mol. C6AA /au·bohr⁶  :       1280.487184
 Mol. C8AA /au·bohr⁸  :      27177.259084
 Mol. α(0) /au        :         53.495921


Wiberg/Mayer (AO) data.
largest (>0.10) Wiberg bond orders for each atom

 ---------------------------------------------------------------------------
     #   Z sym  total        # sym  WBO       # sym  WBO       # sym  WBO
 ---------------------------------------------------------------------------
     1   6 C    3.993 --     8 H    0.987     2 C    0.986     7 H    0.985
                             6 H    0.983
     2   6 C    3.996 --     3 C    0.986     1 C    0.986     4 C    0.985
                             9 H    0.973
     3   6 C    3.993 --    11 H    0.987     2 C    0.986    12 H    0.985
                            10 H    0.983
     4   6 C    3.909 --     5 O    1.940     2 C    0.985    13 H    0.933
     5   8 O    2.101 --     4 C    1.940
     6   1 H    0.998 --     1 C    0.983
     7   1 H    0.997 --     1 C    0.985
     8   1 H    0.999 --     1 C    0.987
     9   1 H    0.999 --     2 C    0.973
    10   1 H    0.998 --     3 C    0.983
    11   1 H    0.999 --     3 C    0.987
    12   1 H    0.997 --     3 C    0.985
    13   1 H    1.000 --     4 C    0.933
 ---------------------------------------------------------------------------

Topologies differ in total number of bonds
Writing topology from bond orders to xtbtopo.mol

molecular dipole:
                 x           y           z       tot (Debye)
 q only:        0.805       0.005      -0.417
   full:        0.859       0.007      -0.635       2.715
molecular quadrupole (traceless):
                xx          xy          yy          xz          yz          zz
 q only:       -2.286      -0.017       1.388       2.241       0.002       0.899
  q+dip:       -2.667      -0.027       0.765       2.998      -0.001       1.902
   full:       -3.150      -0.025       2.015       3.097       0.012       1.135

           -------------------------------------------------
          |                Geometry Summary                 |
           -------------------------------------------------

      molecular mass/u    :       72.1058745
   center of mass at/Å    :       -0.0002843      -0.0010562      -0.0006880
  moments of inertia/u·Å² :        0.7285837E+02   0.1169329E+03   0.1518955E+03
rotational constants/cm⁻¹ :        0.2313754E+00   0.1441650E+00   0.1109818E+00

 * 10 selected distances

     #   Z          #   Z                                           value/Å
     1   6 C        2   6 C                                       1.5312773 (max)
     2   6 C        3   6 C                                       1.5310924
     4   6 C        5   8 O                                       1.1979127
     1   6 C        6   1 H                                       1.0872928
     1   6 C        7   1 H                                       1.0872128
     1   6 C        8   1 H                                       1.0879871
     2   6 C        9   1 H                                       1.0936110
     3   6 C       10   1 H                                       1.0872906
     3   6 C       11   1 H                                       1.0879769
     3   6 C       12   1 H                                       1.0872019 (min)

 * 3 distinct bonds (by element types)

   Z      Z             #   av. dist./Å        max./Å        min./Å
   1 H    6 C           7     1.0883676     1.0936110     1.0872019
   6 C    6 C           2     1.5311848     1.5312773     1.5310924
   6 C    8 O           1     1.1979127     1.1979127     1.1979127

           -------------------------------------------------
          |               Frequency Printout                |
           -------------------------------------------------
 projected vibrational frequencies (cm⁻¹)
eigval :       -0.00    -0.00     0.00     0.00     0.00     0.00
eigval :       41.66   190.42   221.75   241.56   261.92   363.41
eigval :      661.88   847.81   881.94   948.98   970.69   990.06
eigval :     1107.74  1131.79  1174.36  1300.89  1311.54  1383.85
eigval :     1395.38  1409.41  1483.19  1487.60  1492.62  1499.45
eigval :     1789.52  2738.85  2953.90  3030.49  3034.11  3036.76
eigval :     3038.64  3044.99  3048.57
 reduced masses (amu)
   1: 13.53   2:  9.79   3: 13.14   4:  9.76   5: 10.34   6:  9.56   7:  9.40   8:  3.27
   9:  6.65  10:  6.38  11:  6.21  12:  8.00  13:  9.71  14:  9.21  15:  6.12  16:  2.74
  17:  7.28  18:  4.51  19:  4.68  20:  8.09  21:  6.67  22:  4.12  23:  5.01  24:  2.79
  25:  2.98  26:  2.95  27:  1.56  28:  1.56  29:  1.55  30:  1.57  31: 13.43  32:  1.68
  33:  1.76  34:  1.96  35:  1.84  36:  1.67  37:  1.65  38:  1.53  39:  1.64
 IR intensities (km·mol⁻¹)
   1:  1.43   2:  0.98   3:  0.64   4:  1.07   5:  0.82   6:  0.48   7: 15.30   8:  0.11
   9:  3.96  10:  0.91  11:  1.48  12:  0.53  13: 10.99  14: 19.57  15:  0.11  16:  3.49
  17: 45.98  18:  0.00  19: 13.30  20:  0.00  21:  7.12  22:  1.11  23:  2.84  24: 24.31
  25:  3.40  26:  3.10  27:  3.08  28:  0.30  29:  5.84  30:  6.39  31:230.80  32:153.93
  33: 44.27  34: 23.70  35: 25.99  36: 20.03  37: 47.76  38:  6.66  39: 33.61
 Raman intensities (Ä⁴*amu⁻¹)
   1:  0.00   2:  0.00   3:  0.00   4:  0.00   5:  0.00   6:  0.00   7:  0.00   8:  0.00
   9:  0.00  10:  0.00  11:  0.00  12:  0.00  13:  0.00  14:  0.00  15:  0.00  16:  0.00
  17:  0.00  18:  0.00  19:  0.00  20:  0.00  21:  0.00  22:  0.00  23:  0.00  24:  0.00
  25:  0.00  26:  0.00  27:  0.00  28:  0.00  29:  0.00  30:  0.00  31:  0.00  32:  0.00
  33:  0.00  34:  0.00  35:  0.00  36:  0.00  37:  0.00  38:  0.00  39:  0.00
 output can be read by thermo (or use thermo option).
 writing <g98.out> molden fake output.
 recommended (thermochemical) frequency scaling factor: 1.0
           -------------------------------------------------
          |             Thermodynamic Functions             |
           -------------------------------------------------

Molecule has the following symmetry elements: (sigma) 
It seems to be the Cs point group
cs  symmetry found (for desy threshold:  0.10E+00) used in thermo

          ...................................................
          :                      SETUP                      :
          :.................................................:
          :  # frequencies                          33      :
          :  # imaginary freq.                       0      :
          :  linear?                             false      :
          :  only rotor calc.                    false      :
          :  symmetry                               cs      :
          :  rotational number                       1      :
          :  scaling factor                  1.0000000      :
          :  rotor cutoff                    0.0000000 cm⁻¹ :
          :  imag. cutoff                 -100.0000000 cm⁻¹ :
          :.................................................:

    mode    ω/cm⁻¹     T·S(HO)/kcal·mol⁻¹    T·S(FR)/kcal·mol⁻¹   T·S(vib)
   ------------------------------------------------------------------------
       1     41.66    -1.54404 (100.00%)    -1.10959 (  0.00%)    -1.54404
       2    190.42    -0.66301 (100.00%)    -0.66018 (  0.00%)    -0.66301
       3    221.75    -0.57984 (100.00%)    -0.61510 (  0.00%)    -0.57984
       4    241.56    -0.53410 (100.00%)    -0.58976 (  0.00%)    -0.53410
       5    261.92    -0.49162 (100.00%)    -0.56580 (  0.00%)    -0.49162
   ------------------------------------------------------------------------

   temp. (K)  partition function   enthalpy   heat capacity  entropy
                                   cal/mol     cal/K/mol   cal/K/mol   J/K/mol
 298.15  VIB   38.6                 2371.345     15.648     15.211
         ROT  0.869E+05              888.752      2.981     25.581
         INT  0.335E+07             3260.098     18.628     40.792
         TR   0.592E+27             1481.254      4.968     38.726
         TOT                        4741.3517    23.5965    79.5176   332.7017

       T/K    H(0)-H(T)+PV         H(T)/Eh          T*S/Eh         G(T)/Eh
   ------------------------------------------------------------------------
    298.15    0.755582E-02    0.118083E+00    0.377814E-01    0.803014E-01
   ------------------------------------------------------------------------

         :::::::::::::::::::::::::::::::::::::::::::::::::::::
         ::                  THERMODYNAMIC                  ::
         :::::::::::::::::::::::::::::::::::::::::::::::::::::
         :: total free energy         -16.609890683627 Eh   ::
         ::.................................................::
         :: total energy              -16.690192062961 Eh   ::
         :: zero point energy           0.110526944698 Eh   ::
         :: G(RRHO) w/o ZPVE           -0.030225565364 Eh   ::
         :: G(RRHO) contrib.            0.080301379334 Eh   ::
         :::::::::::::::::::::::::::::::::::::::::::::::::::::

optimized geometry written to: xtbopt.coord


           -------------------------------------------------
          | TOTAL ENERGY              -16.690192062961 Eh   |
          | TOTAL ENTHALPY            -16.572109293304 Eh   |
          | TOTAL FREE ENERGY         -16.609890683627 Eh   |
          | GRADIENT NORM               0.000049809420 Eh/α |
          | HOMO-LUMO GAP               3.654986690475 eV   |
           -------------------------------------------------

------------------------------------------------------------------------
 * finished run on 2025/04/15 at 20:00:34.325     
------------------------------------------------------------------------
 total:
 * wall-time:     0 d,  0 h,  0 min,  1.340 sec
 *  cpu-time:     0 d,  0 h,  0 min,  1.079 sec
 * ratio c/w:     0.805 speedup
 SCF:
 * wall-time:     0 d,  0 h,  0 min,  0.031 sec
 *  cpu-time:     0 d,  0 h,  0 min,  0.012 sec
 * ratio c/w:     0.376 speedup
 analytical hessian:
 * wall-time:     0 d,  0 h,  0 min,  0.242 sec
 *  cpu-time:     0 d,  0 h,  0 min,  0.241 sec
 * ratio c/w:     0.995 speedup

