 Entering Gaussian System
 *********************************************
 Gaussian 98:
 frequency output generated by the xtb code
 *********************************************
                         Standard orientation:
 --------------------------------------------------------------------
  Center     Atomic     Atomic              Coordinates (Angstroms)
  Number     Number      Type              X           Y           Z
 --------------------------------------------------------------------
    1          6             0       -2.091754   -1.193907   -0.224854
    2          6             0       -1.264754   -0.342516    0.759007
    3          1             0       -1.868083   -0.176078    1.656910
    4          6             0       -0.925129    1.036770    0.167103
    5          1             0       -1.209416    1.059645   -0.897342
    6          6             0        0.584439    1.289928    0.242454
    7          1             0        0.894446    1.361544    1.297325
    8          6             0        1.297005    0.099679   -0.402073
    9          1             0        0.902407   -0.043533   -1.418803
   10          6             0        0.995863   -1.155078    0.436897
   11          1             0        1.832921   -1.324067    1.134070
   12          8             0       -0.120566   -1.033357    1.260311
   13          8             0        0.888307   -2.248617   -0.447817
   14          8             0        2.675012    0.384223   -0.448087
   15          8             0        0.863598    2.489978   -0.430170
   16          8             0       -1.641114    2.011938    0.878280
   17          8             0       -1.533825   -1.298136   -1.505408
   18          1             0       -3.062433   -0.711465   -0.355265
   19          1             0       -2.246073   -2.186654    0.221592
   20          1             0        0.684877   -3.042410    0.063188
   21          1             0        3.127113   -0.332304   -0.906129
   22          1             0        1.817285    2.519209   -0.576364
   23          1             0       -1.317726    2.872972    0.583953
   24          1             0       -0.677011   -1.751083   -1.430126
 --------------------------------------------------------------------
     1 basis functions        1 primitive gaussians
     1 alpha electrons        1 beta electrons
 
 Harmonic frequencies (cm**-1), IR intensities (km*mol⁻¹),
 Raman scattering activities (A**4/amu), Raman depolarization ratios,
 reduced masses (AMU), force constants (mDyne/A) and normal coordinates:
                      1                      2                      3
                        a                      a                      a 
 Frequencies --    51.8115                94.5327               135.1021
 Red. masses --    13.5874                14.2087                12.7435
 Frc consts  --     0.0000                 0.0000                 0.0000
 IR Inten    --     3.1185                 0.2769                 7.0032
 Raman Activ --     0.0000                 0.0000                 0.0000
 Depolar     --     0.0000                 0.0000                 0.0000
 Atom AN      X      Y      Z        X      Y      Z        X      Y      Z
   1   6     0.11   0.05  -0.25    -0.08   0.04   0.03     0.28  -0.20   0.04
   2   6    -0.07   0.01  -0.06    -0.02   0.05  -0.04     0.09  -0.06   0.09
   3   1    -0.06  -0.03  -0.04     0.00   0.03  -0.01     0.00  -0.02   0.01
   4   6    -0.06   0.09   0.12     0.03   0.03  -0.07    -0.01  -0.09  -0.04
   5   1    -0.05   0.08   0.04     0.05  -0.01  -0.03     0.02  -0.07  -0.02
   6   6    -0.04   0.01  -0.03     0.03  -0.02   0.15    -0.01  -0.05   0.04
   7   1     0.02   0.01  -0.02    -0.02  -0.09   0.06    -0.01  -0.04   0.02
   8   6    -0.16  -0.05  -0.06    -0.09   0.03  -0.07    -0.04  -0.04  -0.02
   9   1    -0.10  -0.04   0.01    -0.09   0.02   0.00    -0.04  -0.01   0.00
  10   6    -0.05   0.04   0.11     0.01   0.04  -0.01     0.00  -0.02   0.03
  11   1    -0.02   0.07   0.05     0.00   0.05   0.01     0.03  -0.03  -0.03
  12   8    -0.12   0.05   0.05    -0.04   0.00  -0.07     0.18   0.17   0.25
  13   8     0.12  -0.13   0.32     0.16  -0.03   0.07    -0.36  -0.03   0.09
  14   8    -0.19  -0.11  -0.36    -0.11  -0.04  -0.42    -0.05  -0.05  -0.20
  15   8    -0.03  -0.03  -0.09     0.23   0.15   0.58     0.02  -0.00   0.17
  16   8     0.09   0.02   0.41    -0.10   0.08  -0.29    -0.17  -0.06  -0.27
  17   8     0.41   0.08  -0.17     0.00  -0.30   0.11     0.08   0.45  -0.12
  18   1     0.04   0.02  -0.12     0.00   0.05  -0.04     0.01  -0.17   0.10
  19   1     0.00   0.01  -0.09    -0.08   0.04   0.05     0.23  -0.11  -0.06
  20   1     0.04  -0.01   0.11     0.07  -0.01   0.03    -0.13   0.01   0.04
  21   1    -0.08  -0.05  -0.09    -0.07  -0.01  -0.14    -0.03  -0.01  -0.07
  22   1    -0.01  -0.03  -0.07     0.05  -0.00   0.13     0.00  -0.01   0.04
  23   1     0.02   0.01   0.12     0.02   0.01  -0.04    -0.04  -0.02  -0.08
  24   1     0.07  -0.03  -0.00    -0.01  -0.08   0.07     0.02   0.11  -0.12
                      4                      5                      6
                        a                      a                      a 
 Frequencies --   176.9564               218.7090               235.4278
 Red. masses --    13.7112                13.6676                12.8311
 Frc consts  --     0.0000                 0.0000                 0.0000
 IR Inten    --     1.2616                 0.8153                 3.5162
 Raman Activ --     0.0000                 0.0000                 0.0000
 Depolar     --     0.0000                 0.0000                 0.0000
 Atom AN      X      Y      Z        X      Y      Z        X      Y      Z
   1   6    -0.14   0.25   0.06     0.08   0.13   0.04     0.04   0.09  -0.01
   2   6     0.00  -0.03   0.15    -0.00   0.04   0.15     0.09   0.03   0.00
   3   1     0.04  -0.00   0.07     0.01   0.00   0.05     0.01   0.01  -0.01
   4   6     0.02  -0.09   0.05    -0.02   0.00   0.07     0.03   0.09   0.05
   5   1     0.04  -0.08   0.00     0.00  -0.04   0.02     0.03   0.03   0.01
   6   6     0.00  -0.02   0.06    -0.03  -0.01   0.02     0.05   0.16   0.10
   7   1     0.01   0.03   0.01     0.02  -0.00  -0.00     0.01   0.09   0.03
   8   6    -0.03  -0.04   0.08    -0.05   0.00  -0.05    -0.07   0.04   0.15
   9   1    -0.04  -0.02   0.03    -0.00   0.03  -0.02    -0.06   0.03   0.05
  10   6     0.07  -0.06   0.07    -0.10  -0.08  -0.16    -0.01  -0.01   0.04
  11   1     0.01   0.02   0.04    -0.01  -0.07  -0.08     0.00  -0.05  -0.01
  12   8    -0.05  -0.31  -0.05     0.02  -0.06  -0.01     0.02  -0.01   0.07
  13   8     0.43  -0.05   0.01    -0.28  -0.03  -0.29    -0.13   0.16  -0.16
  14   8    -0.04  -0.08  -0.10    -0.04  -0.09   0.10    -0.08   0.01  -0.05
  15   8    -0.11  -0.10  -0.13    -0.22   0.02   0.00     0.51  -0.11  -0.24
  16   8    -0.19  -0.03  -0.26    -0.01   0.16  -0.13    -0.45  -0.28   0.10
  17   8     0.03   0.53   0.13     0.63  -0.09   0.30     0.08  -0.13   0.03
  18   1    -0.01   0.13   0.02     0.07   0.10  -0.10     0.04   0.07  -0.03
  19   1    -0.10   0.05  -0.05    -0.08   0.06   0.02    -0.04   0.04   0.02
  20   1     0.16  -0.04  -0.01    -0.07  -0.02  -0.08    -0.03   0.01  -0.08
  21   1    -0.03  -0.03  -0.03    -0.01   0.00  -0.02    -0.05   0.02  -0.07
  22   1    -0.03  -0.02  -0.06    -0.05   0.06   0.02     0.12  -0.18  -0.12
  23   1    -0.07  -0.02  -0.12     0.02   0.02  -0.07    -0.28  -0.02   0.00
  24   1    -0.02   0.07   0.04     0.13  -0.06   0.17     0.02  -0.03   0.03
                      7                      8                      9
                        a                      a                      a 
 Frequencies --   241.7409               268.7731               292.2971
 Red. masses --    13.3536                10.6551                11.4967
 Frc consts  --     0.0000                 0.0000                 0.0000
 IR Inten    --     4.8970                16.0624                 9.3729
 Raman Activ --     0.0000                 0.0000                 0.0000
 Depolar     --     0.0000                 0.0000                 0.0000
 Atom AN      X      Y      Z        X      Y      Z        X      Y      Z
   1   6    -0.04   0.06   0.03    -0.14   0.33  -0.12    -0.02   0.04  -0.15
   2   6    -0.00   0.01   0.02     0.13  -0.04  -0.03     0.01  -0.11   0.03
   3   1     0.03  -0.00   0.03     0.04  -0.00  -0.01    -0.03  -0.05  -0.01
   4   6    -0.11   0.01  -0.05     0.11  -0.08  -0.02     0.13  -0.10   0.13
   5   1    -0.06  -0.00  -0.01     0.05  -0.01  -0.01     0.09  -0.04   0.02
   6   6    -0.12  -0.16  -0.08     0.09   0.01  -0.03     0.08  -0.03   0.24
   7   1    -0.04  -0.09  -0.02     0.05  -0.00  -0.01     0.03   0.06   0.06
   8   6    -0.05  -0.09  -0.12     0.15   0.01  -0.08     0.05  -0.00   0.27
   9   1     0.03  -0.04  -0.05     0.05   0.00  -0.03    -0.06  -0.02   0.11
  10   6     0.05  -0.12  -0.11     0.10  -0.00  -0.03     0.04  -0.06   0.21
  11   1     0.02  -0.01  -0.03     0.04   0.00  -0.02     0.00  -0.08   0.06
  12   8     0.06  -0.00  -0.10     0.17   0.08   0.02    -0.04  -0.15   0.17
  13   8    -0.03  -0.32   0.11    -0.24  -0.21   0.27    -0.16   0.21  -0.05
  14   8    -0.20   0.61   0.12     0.18   0.07  -0.04    -0.04   0.30  -0.21
  15   8     0.28  -0.23   0.03    -0.22   0.13   0.05    -0.17  -0.18  -0.09
  16   8     0.03   0.09   0.00    -0.13  -0.35   0.04     0.23   0.17  -0.17
  17   8     0.07   0.12   0.08    -0.06  -0.03  -0.07    -0.07  -0.15  -0.18
  18   1    -0.00   0.03   0.00     0.05   0.28  -0.07     0.03   0.08  -0.05
  19   1    -0.03   0.01  -0.01    -0.24   0.12  -0.05    -0.08   0.02  -0.05
  20   1    -0.03  -0.04   0.08    -0.17   0.02   0.14    -0.08   0.02  -0.07
  21   1     0.08   0.26  -0.00     0.05   0.05  -0.05    -0.03   0.19  -0.24
  22   1     0.08  -0.17   0.00    -0.05   0.15   0.08    -0.06  -0.06  -0.13
  23   1     0.06   0.01   0.03    -0.13  -0.05  -0.00     0.17   0.00  -0.04
  24   1    -0.01  -0.01   0.03    -0.05  -0.08   0.03    -0.01  -0.03  -0.04
                     10                     11                     12
                        a                      a                      a 
 Frequencies --   336.2685               356.4391               381.8054
 Red. masses --     2.6108                12.6653                 8.1674
 Frc consts  --     0.0000                 0.0000                 0.0000
 IR Inten    --    88.5315                 0.9066                87.0720
 Raman Activ --     0.0000                 0.0000                 0.0000
 Depolar     --     0.0000                 0.0000                 0.0000
 Atom AN      X      Y      Z        X      Y      Z        X      Y      Z
   1   6    -0.02   0.05  -0.03     0.22   0.07  -0.05     0.01  -0.16   0.08
   2   6     0.01  -0.05   0.03     0.22   0.05   0.02    -0.06   0.04  -0.04
   3   1     0.00  -0.02   0.01     0.05  -0.05   0.01    -0.00   0.03  -0.00
   4   6     0.02  -0.06   0.01     0.04   0.21   0.22     0.13   0.05   0.04
   5   1     0.01  -0.03   0.00     0.04   0.04   0.05     0.06   0.02   0.01
   6   6     0.01  -0.02   0.00     0.02   0.13   0.16     0.13   0.15   0.06
   7   1     0.01  -0.02   0.00     0.06   0.06   0.03     0.05   0.08   0.01
   8   6    -0.02   0.01  -0.02    -0.16  -0.00   0.06     0.06   0.08   0.06
   9   1    -0.01  -0.03  -0.01    -0.06   0.05   0.01    -0.01   0.04   0.02
  10   6     0.02   0.04   0.02     0.07  -0.17  -0.12    -0.05  -0.03  -0.01
  11   1     0.00  -0.01   0.01     0.05  -0.03  -0.06    -0.04  -0.01   0.03
  12   8     0.04  -0.04   0.03     0.21  -0.08  -0.02    -0.26  -0.35  -0.23
  13   8    -0.03   0.09  -0.02     0.06  -0.36   0.00    -0.00  -0.18   0.12
  14   8    -0.07   0.16  -0.18    -0.19  -0.07   0.13     0.04   0.16  -0.14
  15   8     0.00   0.02   0.11    -0.12   0.07  -0.05     0.03   0.15  -0.09
  16   8     0.02  -0.04  -0.06    -0.17   0.35  -0.05     0.08   0.01   0.04
  17   8     0.03  -0.02  -0.00    -0.19  -0.16  -0.25     0.04   0.01   0.10
  18   1     0.02   0.06  -0.02     0.06   0.03   0.03    -0.06  -0.17   0.03
  19   1    -0.06   0.02  -0.02     0.07   0.03   0.01     0.14  -0.06   0.05
  20   1    -0.19   0.05  -0.02     0.08  -0.07   0.05    -0.50   0.09   0.05
  21   1     0.10  -0.38   0.72    -0.04  -0.07   0.13     0.02   0.00   0.04
  22   1    -0.05  -0.18  -0.34    -0.03   0.05  -0.03     0.02   0.13   0.10
  23   1     0.11  -0.02   0.07    -0.08   0.07  -0.09    -0.23   0.02  -0.23
  24   1     0.01   0.00   0.01    -0.07  -0.09  -0.13     0.07   0.11   0.02
                     13                     14                     15
                        a                      a                      a 
 Frequencies --   391.9680               404.5077               421.0665
 Red. masses --     4.6666                12.5565                 3.6188
 Frc consts  --     0.0000                 0.0000                 0.0000
 IR Inten    --    32.4890                21.2212               160.5225
 Raman Activ --     0.0000                 0.0000                 0.0000
 Depolar     --     0.0000                 0.0000                 0.0000
 Atom AN      X      Y      Z        X      Y      Z        X      Y      Z
   1   6    -0.00   0.06  -0.05    -0.05  -0.02  -0.00     0.04   0.07   0.02
   2   6    -0.01  -0.00   0.03    -0.14   0.10  -0.05     0.10   0.01  -0.01
   3   1    -0.01  -0.01   0.00    -0.02  -0.03   0.01     0.03  -0.00   0.00
   4   6    -0.06  -0.01   0.01    -0.17   0.13   0.13    -0.07   0.05  -0.06
   5   1    -0.04  -0.00   0.01    -0.01   0.07   0.03    -0.03   0.01  -0.01
   6   6    -0.06  -0.14  -0.02    -0.03  -0.19   0.19    -0.10   0.01  -0.04
   7   1    -0.04  -0.05   0.00    -0.01  -0.04   0.05    -0.05   0.01  -0.00
   8   6     0.00  -0.10   0.00     0.24  -0.03   0.04    -0.06  -0.04   0.07
   9   1    -0.01  -0.06   0.01     0.06   0.03   0.01    -0.03  -0.03   0.03
  10   6     0.04  -0.01   0.08     0.13   0.00  -0.07     0.10  -0.04   0.07
  11   1     0.00  -0.03   0.03    -0.00  -0.03   0.02     0.03  -0.02   0.02
  12   8     0.05   0.13   0.11     0.06   0.31  -0.20     0.10  -0.06   0.03
  13   8     0.02   0.17  -0.09     0.12  -0.04  -0.03     0.16   0.06  -0.04
  14   8    -0.06   0.09  -0.14     0.35  -0.08  -0.13    -0.10  -0.06  -0.03
  15   8     0.00  -0.25  -0.04    -0.15  -0.36   0.06     0.04  -0.09  -0.15
  16   8     0.13   0.08   0.11    -0.28   0.21   0.07    -0.17   0.03  -0.07
  17   8    -0.01  -0.04  -0.05    -0.00  -0.02   0.02    -0.02  -0.02  -0.00
  18   1     0.02   0.06  -0.03    -0.03  -0.05  -0.01     0.03   0.06   0.01
  19   1    -0.05   0.02  -0.02     0.02  -0.01   0.01    -0.03   0.03   0.01
  20   1     0.11  -0.02  -0.07    -0.25   0.06  -0.02    -0.44   0.10  -0.07
  21   1     0.04  -0.13   0.26     0.04  -0.02  -0.07    -0.04  -0.05   0.03
  22   1     0.07   0.21   0.53    -0.06  -0.15  -0.15     0.08   0.20   0.45
  23   1    -0.36   0.02  -0.41    -0.09   0.05  -0.01     0.38   0.00   0.43
  24   1     0.00  -0.00  -0.00     0.04   0.08   0.02     0.03   0.07  -0.01
                     16                     17                     18
                        a                      a                      a 
 Frequencies --   442.6408               471.4255               498.4583
 Red. masses --     7.6103                 9.9467                12.4279
 Frc consts  --     0.0000                 0.0000                 0.0000
 IR Inten    --   210.7865                54.3404                17.3008
 Raman Activ --     0.0000                 0.0000                 0.0000
 Depolar     --     0.0000                 0.0000                 0.0000
 Atom AN      X      Y      Z        X      Y      Z        X      Y      Z
   1   6     0.01  -0.04   0.06    -0.13  -0.14  -0.09     0.02   0.02   0.04
   2   6    -0.05   0.17  -0.13    -0.16  -0.24   0.18    -0.01   0.11  -0.09
   3   1    -0.01   0.09  -0.04    -0.06  -0.14   0.06    -0.00   0.08  -0.03
   4   6     0.12   0.11  -0.05    -0.00  -0.12   0.33     0.30  -0.06   0.01
   5   1     0.10   0.08  -0.03     0.03  -0.08   0.08     0.20   0.02  -0.03
   6   6     0.13   0.03   0.13     0.09   0.04   0.10     0.17  -0.07   0.30
   7   1     0.04   0.05   0.03     0.10   0.02   0.00     0.11  -0.02   0.06
   8   6     0.14  -0.06   0.16     0.04   0.21  -0.19    -0.21   0.09  -0.09
   9   1    -0.00  -0.01   0.06     0.03   0.14  -0.07    -0.08   0.14  -0.03
  10   6    -0.05  -0.18   0.04    -0.05   0.26  -0.21    -0.12   0.16  -0.18
  11   1    -0.06  -0.12   0.04     0.01   0.14  -0.07    -0.02   0.11  -0.05
  12   8    -0.17   0.07  -0.09    -0.01  -0.11  -0.06    -0.00   0.30  -0.09
  13   8    -0.18  -0.18  -0.06    -0.15   0.05   0.17     0.14   0.01   0.01
  14   8     0.11   0.21  -0.23     0.16   0.00  -0.01    -0.31  -0.02   0.16
  15   8    -0.12  -0.04  -0.09     0.20  -0.11  -0.17    -0.13  -0.33  -0.05
  16   8    -0.15  -0.11  -0.02    -0.13   0.15  -0.10     0.16  -0.29  -0.08
  17   8     0.04   0.05   0.10     0.01  -0.00  -0.05    -0.01   0.01   0.04
  18   1    -0.04  -0.11   0.02    -0.02  -0.02  -0.04    -0.01  -0.03   0.01
  19   1     0.11  -0.01   0.06    -0.07  -0.05  -0.07     0.05   0.01   0.04
  20   1     0.45  -0.16  -0.00     0.17   0.03   0.16    -0.10   0.06   0.03
  21   1     0.07  -0.07   0.17     0.03  -0.06   0.08    -0.07   0.01   0.02
  22   1    -0.01   0.16   0.16     0.08   0.06   0.20    -0.03   0.01   0.03
  23   1     0.15   0.00   0.28     0.16  -0.01   0.06     0.01  -0.05   0.01
  24   1     0.00  -0.00   0.03    -0.03  -0.06  -0.00     0.02   0.04   0.01
                     19                     20                     21
                        a                      a                      a 
 Frequencies --   537.7743               572.2087               607.9765
 Red. masses --    10.5455                12.8588                 3.2982
 Frc consts  --     0.0000                 0.0000                 0.0000
 IR Inten    --    20.2486                20.4141               193.0122
 Raman Activ --     0.0000                 0.0000                 0.0000
 Depolar     --     0.0000                 0.0000                 0.0000
 Atom AN      X      Y      Z        X      Y      Z        X      Y      Z
   1   6     0.19   0.11   0.02    -0.22  -0.13  -0.09     0.13  -0.00   0.06
   2   6    -0.02   0.15   0.15    -0.24  -0.14   0.11    -0.05   0.07   0.11
   3   1    -0.06   0.03   0.01    -0.10  -0.05   0.01    -0.03   0.04   0.01
   4   6     0.16   0.08   0.22     0.04  -0.10   0.15    -0.04  -0.05  -0.05
   5   1     0.06  -0.00   0.06     0.03  -0.05   0.03    -0.02  -0.04  -0.01
   6   6     0.24  -0.20  -0.22     0.12   0.12  -0.02    -0.05   0.02   0.02
   7   1     0.24  -0.15  -0.10     0.08   0.06  -0.02    -0.06   0.03   0.02
   8   6     0.05  -0.24  -0.35     0.02  -0.05   0.03     0.05   0.06   0.06
   9   1     0.09  -0.16  -0.11     0.01  -0.00   0.01    -0.00   0.02   0.02
  10   6    -0.16   0.02   0.09    -0.14  -0.19  -0.02    -0.13   0.02  -0.05
  11   1    -0.05   0.03   0.04    -0.06  -0.09   0.00    -0.06  -0.01   0.01
  12   8    -0.23  -0.10   0.16     0.04   0.41   0.30    -0.12   0.07   0.05
  13   8     0.11   0.17  -0.03     0.27  -0.30  -0.23     0.13  -0.06  -0.10
  14   8     0.00   0.10   0.05    -0.02   0.07  -0.03     0.12   0.04  -0.05
  15   8    -0.06  -0.00   0.08     0.11   0.27  -0.07     0.01  -0.02  -0.01
  16   8    -0.26   0.01  -0.03     0.01  -0.02  -0.03     0.05  -0.06   0.01
  17   8    -0.05  -0.09  -0.11    -0.00   0.01  -0.02     0.06   0.12  -0.00
  18   1     0.03  -0.02   0.01    -0.04   0.00  -0.06     0.04   0.00   0.02
  19   1     0.11   0.04   0.04    -0.12  -0.05  -0.07     0.03   0.00   0.01
  20   1    -0.05   0.01  -0.08    -0.12  -0.07  -0.13    -0.15   0.04  -0.01
  21   1     0.12   0.12  -0.02     0.02   0.03  -0.00    -0.00  -0.01  -0.01
  22   1    -0.03   0.07  -0.04     0.03   0.07  -0.01     0.01  -0.02   0.03
  23   1    -0.04   0.02   0.08     0.03  -0.02  -0.03     0.01  -0.02   0.00
  24   1     0.00   0.00  -0.06     0.06   0.12   0.03    -0.39  -0.77  -0.20
                     22                     23                     24
                        a                      a                      a 
 Frequencies --   646.7791               763.6472               854.9421
 Red. masses --    10.4705                12.3045                 9.8753
 Frc consts  --     0.0000                 0.0000                 0.0000
 IR Inten    --    43.3727                27.1963                17.4326
 Raman Activ --     0.0000                 0.0000                 0.0000
 Depolar     --     0.0000                 0.0000                 0.0000
 Atom AN      X      Y      Z        X      Y      Z        X      Y      Z
   1   6    -0.31  -0.26  -0.05     0.17   0.18   0.03    -0.31   0.05  -0.13
   2   6     0.00  -0.14  -0.26    -0.17   0.10   0.26    -0.28   0.35   0.34
   3   1     0.04  -0.05  -0.04     0.01  -0.11   0.13     0.01   0.18   0.13
   4   6     0.11   0.11   0.09    -0.06  -0.23   0.24     0.03   0.11  -0.12
   5   1     0.09   0.09   0.01    -0.04  -0.17   0.07     0.01  -0.01  -0.03
   6   6     0.20  -0.03  -0.04    -0.03   0.01  -0.07     0.00   0.00   0.00
   7   1     0.17  -0.03  -0.04     0.01   0.04  -0.03    -0.03  -0.01   0.01
   8   6    -0.05  -0.22  -0.03     0.02  -0.15   0.17    -0.02   0.04  -0.03
   9   1    -0.04  -0.17   0.02    -0.03  -0.13   0.07    -0.02   0.02  -0.00
  10   6     0.26  -0.04   0.15     0.17  -0.04   0.05     0.30  -0.02  -0.04
  11   1     0.06  -0.04   0.04    -0.04  -0.08   0.10     0.14   0.00  -0.08
  12   8     0.18   0.06  -0.18    -0.02   0.25  -0.54     0.19  -0.18   0.18
  13   8    -0.09   0.20   0.04    -0.08   0.08   0.06    -0.03  -0.01  -0.03
  14   8    -0.23  -0.04   0.10    -0.15  -0.04   0.02    -0.03  -0.03   0.03
  15   8    -0.02   0.10   0.00     0.08   0.18  -0.03    -0.02  -0.03   0.01
  16   8    -0.11   0.13   0.02     0.07  -0.15  -0.07     0.05  -0.10  -0.02
  17   8     0.10   0.16   0.16    -0.02  -0.08  -0.10     0.08  -0.07  -0.22
  18   1    -0.08  -0.07  -0.01     0.01  -0.04   0.00    -0.21  -0.27  -0.09
  19   1    -0.08  -0.08  -0.04     0.12   0.05   0.04     0.18  -0.02  -0.01
  20   1    -0.03   0.03  -0.02     0.03   0.00   0.01    -0.00   0.02   0.04
  21   1     0.01   0.04   0.01    -0.02   0.01  -0.00    -0.02  -0.02   0.01
  22   1    -0.01   0.09  -0.03     0.02   0.01   0.02    -0.01   0.01  -0.01
  23   1    -0.04   0.03  -0.00     0.09  -0.07  -0.06    -0.06   0.03   0.07
  24   1    -0.15  -0.29   0.05     0.01   0.01  -0.04    -0.01  -0.06   0.07
                     25                     26                     27
                        a                      a                      a 
 Frequencies --   931.9265               972.9338              1001.9481
 Red. masses --     8.0185                10.2449                10.4001
 Frc consts  --     0.0000                 0.0000                 0.0000
 IR Inten    --    16.2357                49.3310                80.3835
 Raman Activ --     0.0000                 0.0000                 0.0000
 Depolar     --     0.0000                 0.0000                 0.0000
 Atom AN      X      Y      Z        X      Y      Z        X      Y      Z
   1   6    -0.03   0.32  -0.14     0.33   0.04   0.05    -0.15  -0.12   0.09
   2   6     0.03   0.03  -0.41    -0.44  -0.05  -0.07     0.23   0.07   0.08
   3   1    -0.10  -0.09  -0.17    -0.24  -0.08  -0.09     0.15   0.14   0.06
   4   6    -0.00  -0.18   0.31    -0.18   0.03  -0.14     0.04  -0.00   0.07
   5   1     0.00  -0.05   0.08     0.05   0.09  -0.06     0.05  -0.02   0.01
   6   6    -0.20   0.03  -0.02     0.09  -0.01   0.24    -0.26   0.17   0.27
   7   1     0.01  -0.00  -0.02     0.03   0.01   0.05    -0.06   0.06   0.06
   8   6    -0.06   0.13  -0.15     0.01  -0.01  -0.21    -0.12  -0.09  -0.36
   9   1     0.01   0.01  -0.05    -0.04   0.10  -0.05    -0.02   0.09  -0.11
  10   6     0.13  -0.03   0.13     0.42  -0.21  -0.08     0.03  -0.39  -0.01
  11   1     0.06   0.00  -0.00     0.12  -0.01  -0.02    -0.04  -0.03   0.08
  12   8    -0.01  -0.01   0.16    -0.11  -0.06   0.13    -0.15   0.09  -0.06
  13   8    -0.01  -0.07  -0.06    -0.03   0.08   0.03     0.01   0.22   0.20
  14   8     0.09  -0.01   0.01    -0.05  -0.04   0.04     0.16  -0.02  -0.00
  15   8     0.02   0.03  -0.02     0.04   0.10  -0.09    -0.01   0.08  -0.08
  16   8     0.01  -0.04  -0.04     0.05  -0.04  -0.00     0.05  -0.04  -0.02
  17   8    -0.03   0.00   0.16    -0.10   0.03   0.17     0.08  -0.00  -0.15
  18   1    -0.17  -0.22   0.06     0.15   0.13  -0.06    -0.01   0.02   0.01
  19   1     0.34   0.10   0.14    -0.09   0.04   0.04    -0.08  -0.04  -0.03
  20   1    -0.03  -0.05  -0.08     0.01   0.01  -0.00    -0.02  -0.10  -0.19
  21   1    -0.02  -0.03  -0.00     0.06   0.03   0.02     0.17   0.06   0.03
  22   1     0.02  -0.12   0.07     0.00   0.07  -0.04     0.02  -0.17   0.08
  23   1     0.11  -0.09  -0.12    -0.01  -0.00  -0.00     0.04  -0.03  -0.03
  24   1    -0.06  -0.07   0.18    -0.00   0.02  -0.13     0.01  -0.01  -0.03
                     28                     29                     30
                        a                      a                      a 
 Frequencies --  1008.0314              1033.9386              1043.3671
 Red. masses --     9.9329                 8.7201                 9.7326
 Frc consts  --     0.0000                 0.0000                 0.0000
 IR Inten    --    20.5613                18.2942               100.4072
 Raman Activ --     0.0000                 0.0000                 0.0000
 Depolar     --     0.0000                 0.0000                 0.0000
 Atom AN      X      Y      Z        X      Y      Z        X      Y      Z
   1   6     0.07  -0.21   0.04    -0.04   0.18   0.06     0.09   0.00  -0.10
   2   6    -0.05   0.09   0.08     0.03  -0.14   0.07    -0.17  -0.02   0.04
   3   1    -0.00   0.06   0.03     0.11  -0.12   0.10    -0.04  -0.15   0.03
   4   6     0.15   0.09   0.10    -0.31  -0.07  -0.28     0.01   0.21  -0.01
   5   1     0.07   0.01   0.02    -0.10  -0.01  -0.06     0.14   0.08  -0.04
   6   6    -0.11   0.06  -0.16     0.31  -0.01   0.23    -0.20   0.18   0.22
   7   1     0.09  -0.07  -0.06     0.06  -0.02   0.06    -0.03   0.08   0.05
   8   6    -0.07   0.36  -0.17     0.01   0.10  -0.23    -0.12  -0.34  -0.08
   9   1     0.02  -0.02  -0.04    -0.06   0.12  -0.05    -0.01  -0.25   0.00
  10   6     0.25   0.14   0.44    -0.13   0.08   0.36    -0.20   0.32   0.17
  11   1     0.04  -0.02   0.11    -0.03   0.04   0.10     0.02   0.12  -0.03
  12   8    -0.10   0.03  -0.12     0.09   0.00  -0.12     0.27  -0.10  -0.08
  13   8    -0.10  -0.27  -0.16    -0.03  -0.10  -0.01    -0.01  -0.11  -0.11
  14   8     0.04   0.01   0.05    -0.03   0.00   0.03     0.16  -0.02  -0.03
  15   8    -0.04  -0.13   0.07     0.05  -0.03  -0.04    -0.04   0.06  -0.04
  16   8     0.04  -0.05  -0.05    -0.03   0.06   0.08     0.13  -0.11  -0.09
  17   8    -0.02   0.03  -0.01     0.05  -0.04  -0.12    -0.07   0.01   0.11
  18   1     0.12   0.13  -0.06    -0.08  -0.06   0.14     0.02  -0.00  -0.04
  19   1    -0.19  -0.03  -0.03     0.14   0.00  -0.04     0.01   0.00  -0.02
  20   1    -0.01  -0.15  -0.17    -0.03  -0.18  -0.26    -0.00  -0.01  -0.01
  21   1    -0.20  -0.10  -0.03     0.04   0.03   0.01     0.28   0.13   0.03
  22   1     0.00  -0.12   0.06    -0.01   0.22  -0.11     0.01  -0.16   0.09
  23   1    -0.04   0.02   0.04     0.04  -0.02  -0.03    -0.06   0.03   0.06
  24   1     0.01   0.02  -0.10    -0.02  -0.06   0.12    -0.00   0.01   0.00
                     31                     32                     33
                        a                      a                      a 
 Frequencies --  1066.3575              1086.1309              1106.7881
 Red. masses --     9.3947                 9.0997                10.0903
 Frc consts  --     0.0000                 0.0000                 0.0000
 IR Inten    --   109.5477               113.3285               119.7435
 Raman Activ --     0.0000                 0.0000                 0.0000
 Depolar     --     0.0000                 0.0000                 0.0000
 Atom AN      X      Y      Z        X      Y      Z        X      Y      Z
   1   6    -0.06  -0.10   0.13     0.02  -0.15  -0.03     0.11  -0.06  -0.38
   2   6     0.12   0.18  -0.11    -0.09   0.36  -0.16     0.01   0.11   0.09
   3   1     0.05   0.34  -0.07     0.08   0.19   0.00    -0.02   0.08  -0.01
   4   6    -0.09  -0.33   0.01    -0.24  -0.09   0.14     0.25  -0.23  -0.09
   5   1    -0.04  -0.07   0.02    -0.04   0.04   0.03    -0.04  -0.14   0.01
   6   6     0.02   0.04   0.19     0.07  -0.20   0.02    -0.01   0.04  -0.00
   7   1    -0.03   0.06   0.05     0.16  -0.07  -0.04    -0.28   0.09   0.08
   8   6     0.14  -0.17  -0.05    -0.18   0.03   0.09     0.31   0.03  -0.13
   9   1    -0.03  -0.13   0.02    -0.01   0.08   0.00     0.04   0.15  -0.04
  10   6     0.20   0.35   0.04    -0.27  -0.08   0.08    -0.12  -0.04   0.07
  11   1     0.07   0.08  -0.03     0.03   0.03  -0.07    -0.05  -0.02   0.05
  12   8    -0.17  -0.01   0.09     0.34  -0.14  -0.04     0.14  -0.03  -0.07
  13   8    -0.04  -0.19  -0.23     0.02   0.07   0.11     0.00   0.03   0.09
  14   8    -0.13  -0.08  -0.00     0.16   0.08  -0.00    -0.24  -0.07  -0.01
  15   8     0.03   0.07  -0.05     0.06   0.10  -0.06    -0.02  -0.02   0.01
  16   8    -0.12   0.11   0.14    -0.01  -0.08   0.00    -0.12   0.17   0.12
  17   8     0.06   0.01  -0.14    -0.03   0.04   0.07    -0.16   0.03   0.32
  18   1     0.04   0.07  -0.01     0.06   0.02  -0.24     0.01  -0.07  -0.25
  19   1    -0.09  -0.00   0.04    -0.13   0.04   0.11     0.01   0.02  -0.01
  20   1     0.02   0.08   0.15     0.00  -0.06  -0.09    -0.00  -0.10  -0.14
  21   1     0.19   0.10   0.03    -0.09  -0.05  -0.02     0.08   0.06   0.01
  22   1     0.01   0.01  -0.01     0.01   0.09  -0.03    -0.00  -0.04   0.00
  23   1     0.16  -0.10  -0.14     0.17  -0.14  -0.18    -0.05   0.06   0.06
  24   1     0.03   0.03  -0.05     0.02   0.03  -0.21    -0.03   0.00  -0.07
                     34                     35                     36
                        a                      a                      a 
 Frequencies --  1114.4514              1130.5707              1146.3797
 Red. masses --    10.7224                11.9621                11.1886
 Frc consts  --     0.0000                 0.0000                 0.0000
 IR Inten    --    72.0391                42.9467                63.4070
 Raman Activ --     0.0000                 0.0000                 0.0000
 Depolar     --     0.0000                 0.0000                 0.0000
 Atom AN      X      Y      Z        X      Y      Z        X      Y      Z
   1   6     0.01  -0.14  -0.37     0.04   0.07   0.07     0.07   0.01  -0.21
   2   6     0.34   0.16   0.13    -0.17  -0.06  -0.04     0.10  -0.07   0.14
   3   1     0.01  -0.13   0.01    -0.04   0.09  -0.03     0.03   0.09   0.02
   4   6    -0.29   0.21   0.09     0.13  -0.27  -0.15     0.19  -0.15  -0.13
   5   1    -0.25  -0.10   0.06    -0.07  -0.12  -0.01     0.09  -0.04  -0.04
   6   6     0.17   0.18  -0.01     0.19   0.47  -0.23    -0.07  -0.40   0.09
   7   1     0.03   0.02   0.01     0.07   0.11  -0.05    -0.07  -0.14   0.03
   8   6    -0.11  -0.05  -0.01    -0.38  -0.07   0.06    -0.42  -0.09   0.11
   9   1    -0.09   0.01   0.02    -0.11  -0.05   0.03    -0.13   0.04   0.04
  10   6     0.14   0.01  -0.04     0.04  -0.10  -0.03     0.14   0.06   0.01
  11   1     0.02   0.01   0.00     0.06   0.06  -0.04     0.08   0.18  -0.02
  12   8    -0.24   0.06   0.04     0.06   0.02  -0.05    -0.15   0.09  -0.05
  13   8    -0.00  -0.02  -0.06    -0.00   0.04   0.03    -0.03  -0.05  -0.06
  14   8     0.06  -0.01   0.01     0.24   0.03   0.01     0.30   0.10   0.02
  15   8     0.01  -0.17   0.09    -0.06  -0.31   0.21     0.06   0.24  -0.15
  16   8     0.11  -0.19  -0.12    -0.11   0.16   0.13    -0.08   0.14   0.09
  17   8    -0.12   0.03   0.25     0.01  -0.00  -0.01    -0.08  -0.02   0.13
  18   1     0.00  -0.03  -0.11     0.00  -0.01  -0.05    -0.01  -0.03   0.01
  19   1    -0.02  -0.03  -0.08     0.01   0.03   0.05     0.05  -0.04  -0.12
  20   1     0.00   0.05   0.08    -0.01  -0.01  -0.03    -0.02  -0.01  -0.02
  21   1     0.11   0.05   0.02     0.12   0.04   0.01    -0.07  -0.06  -0.01
  22   1    -0.02   0.18  -0.09    -0.02   0.00   0.01     0.01   0.10  -0.05
  23   1     0.07  -0.07  -0.05     0.01   0.01  -0.01    -0.09   0.08   0.08
  24   1    -0.02   0.01   0.06     0.01   0.01  -0.07    -0.01   0.01   0.08
                     37                     38                     39
                        a                      a                      a 
 Frequencies --  1154.8942              1188.5056              1201.8812
 Red. masses --     4.4354                 2.8660                 4.0801
 Frc consts  --     0.0000                 0.0000                 0.0000
 IR Inten    --    10.1217                 5.0795                97.4323
 Raman Activ --     0.0000                 0.0000                 0.0000
 Depolar     --     0.0000                 0.0000                 0.0000
 Atom AN      X      Y      Z        X      Y      Z        X      Y      Z
   1   6    -0.09  -0.04   0.22     0.15  -0.08  -0.14    -0.03   0.06  -0.01
   2   6    -0.04   0.05  -0.12    -0.14   0.15   0.01     0.11  -0.14   0.07
   3   1    -0.11  -0.15  -0.07    -0.09   0.24  -0.07     0.09   0.00   0.05
   4   6     0.14   0.14   0.21    -0.02  -0.00   0.08    -0.12   0.02  -0.07
   5   1    -0.21  -0.08   0.11     0.01   0.12   0.02     0.12   0.10  -0.06
   6   6     0.05  -0.15  -0.16     0.02   0.03  -0.11    -0.02   0.05  -0.03
   7   1    -0.41   0.11   0.08     0.02   0.10  -0.04     0.27   0.09  -0.09
   8   6    -0.02  -0.12   0.08     0.06  -0.04   0.09     0.15  -0.12   0.21
   9   1    -0.17   0.32   0.03     0.00   0.10   0.01     0.19  -0.02  -0.01
  10   6     0.04   0.07   0.04    -0.02  -0.02  -0.06     0.10   0.07  -0.19
  11   1     0.12   0.27  -0.06     0.07   0.12  -0.07     0.15   0.46  -0.10
  12   8    -0.00  -0.01   0.00     0.07  -0.05  -0.04    -0.17   0.04   0.05
  13   8    -0.04  -0.04   0.02     0.00   0.02   0.09    -0.06  -0.03   0.10
  14   8     0.00  -0.03  -0.01    -0.04  -0.01  -0.02    -0.09   0.01  -0.03
  15   8     0.03  -0.01   0.02    -0.02  -0.03   0.05    -0.04   0.01   0.04
  16   8     0.04  -0.07  -0.11    -0.03  -0.04   0.00     0.01  -0.01   0.01
  17   8     0.09   0.02  -0.14    -0.06  -0.02  -0.00    -0.00  -0.00   0.05
  18   1     0.01   0.04   0.01     0.08   0.20   0.47    -0.04  -0.10  -0.20
  19   1    -0.06   0.05   0.15    -0.02  -0.17  -0.38     0.04   0.04   0.07
  20   1    -0.02  -0.14  -0.21    -0.03  -0.12  -0.18    -0.04  -0.26  -0.38
  21   1     0.19   0.09   0.03     0.04   0.02   0.01    -0.09  -0.04  -0.01
  22   1    -0.02   0.17  -0.09     0.00  -0.06   0.03     0.01  -0.15   0.08
  23   1    -0.07   0.05   0.07     0.10  -0.09  -0.11     0.03  -0.02  -0.03
  24   1     0.02  -0.01  -0.08    -0.07  -0.05   0.42     0.00  -0.01  -0.14
                     40                     41                     42
                        a                      a                      a 
 Frequencies --  1210.9687              1220.0938              1256.5533
 Red. masses --     2.9345                 3.3484                 4.1377
 Frc consts  --     0.0000                 0.0000                 0.0000
 IR Inten    --    33.2309                42.5421                67.9845
 Raman Activ --     0.0000                 0.0000                 0.0000
 Depolar     --     0.0000                 0.0000                 0.0000
 Atom AN      X      Y      Z        X      Y      Z        X      Y      Z
   1   6    -0.02  -0.08   0.03     0.05   0.12  -0.00    -0.06  -0.12  -0.02
   2   6     0.01   0.14  -0.03    -0.08  -0.27   0.08     0.07   0.27   0.11
   3   1    -0.18  -0.09  -0.11     0.16   0.22   0.09    -0.07  -0.59   0.09
   4   6     0.05  -0.03   0.01     0.12   0.13   0.10     0.13  -0.04  -0.19
   5   1    -0.03  -0.24   0.01     0.06   0.49   0.03     0.28   0.14  -0.11
   6   6    -0.03   0.17   0.19    -0.06   0.07  -0.07     0.03  -0.03  -0.09
   7   1    -0.22  -0.12   0.13    -0.35  -0.00   0.08    -0.11   0.04   0.01
   8   6     0.00  -0.08  -0.07    -0.01  -0.01  -0.07    -0.03   0.01   0.01
   9   1     0.32  -0.43  -0.08     0.02  -0.11  -0.01     0.01   0.06  -0.01
  10   6    -0.02   0.00  -0.12     0.03   0.01  -0.01    -0.00  -0.05   0.05
  11   1     0.04   0.09  -0.07    -0.06   0.00   0.07     0.08   0.03  -0.07
  12   8     0.03  -0.03  -0.00    -0.02   0.03   0.00    -0.07   0.01   0.02
  13   8    -0.00   0.02   0.08    -0.01  -0.01  -0.01     0.01   0.00  -0.03
  14   8     0.04   0.11   0.03     0.02   0.02   0.02     0.01   0.00  -0.00
  15   8     0.07  -0.07  -0.03     0.06  -0.11   0.04    -0.03   0.01   0.01
  16   8     0.01   0.01   0.02    -0.08  -0.07  -0.01    -0.17   0.03   0.19
  17   8     0.02   0.02  -0.06    -0.02  -0.03   0.06     0.02   0.03  -0.05
  18   1     0.02   0.06   0.08    -0.03  -0.09  -0.12     0.02   0.06   0.06
  19   1    -0.04   0.01   0.04     0.05  -0.02  -0.08    -0.03   0.03   0.12
  20   1    -0.02  -0.10  -0.15     0.00   0.00   0.00     0.00   0.04   0.06
  21   1    -0.37  -0.18  -0.06    -0.07  -0.03  -0.01     0.00   0.00   0.00
  22   1    -0.02   0.29  -0.16    -0.02   0.27  -0.15     0.00  -0.09   0.04
  23   1    -0.02   0.02   0.03     0.25  -0.20  -0.26     0.28  -0.22  -0.28
  24   1    -0.01  -0.00   0.09     0.01   0.00  -0.11    -0.00   0.00   0.07
                     43                     44                     45
                        a                      a                      a 
 Frequencies --  1266.2489              1279.0640              1289.8874
 Red. masses --     4.1442                 3.9038                 3.6469
 Frc consts  --     0.0000                 0.0000                 0.0000
 IR Inten    --    42.4260                50.5813                36.2664
 Raman Activ --     0.0000                 0.0000                 0.0000
 Depolar     --     0.0000                 0.0000                 0.0000
 Atom AN      X      Y      Z        X      Y      Z        X      Y      Z
   1   6     0.04   0.02  -0.02    -0.05   0.01   0.04     0.05   0.03   0.00
   2   6    -0.10   0.01  -0.13     0.13  -0.07   0.18    -0.12   0.02  -0.12
   3   1     0.29  -0.02   0.18    -0.42   0.08  -0.27     0.28  -0.11   0.20
   4   6    -0.03  -0.01   0.04     0.06   0.08  -0.11     0.15   0.04  -0.03
   5   1    -0.02  -0.08   0.01    -0.29   0.12   0.06    -0.46   0.03   0.13
   6   6     0.05   0.06   0.00     0.15  -0.04   0.06     0.29  -0.01   0.09
   7   1    -0.05   0.29   0.00     0.03   0.16   0.00    -0.15  -0.19   0.11
   8   6     0.02  -0.33  -0.10     0.00  -0.23  -0.10     0.02   0.11  -0.02
   9   1     0.25   0.33  -0.18    -0.14   0.11   0.01    -0.10  -0.28   0.08
  10   6    -0.03  -0.11   0.20     0.03   0.10  -0.04    -0.03  -0.04  -0.03
  11   1     0.08   0.20   0.01    -0.19  -0.04   0.22     0.15   0.02  -0.19
  12   8    -0.03   0.02   0.03     0.10  -0.03  -0.06    -0.09   0.02   0.05
  13   8    -0.01   0.01  -0.17    -0.02  -0.01  -0.01     0.01   0.01   0.03
  14   8     0.02   0.12   0.01     0.08   0.12   0.07     0.01   0.02   0.03
  15   8    -0.02  -0.01   0.05    -0.08   0.08  -0.01    -0.12   0.11  -0.10
  16   8     0.03  -0.00  -0.02    -0.05  -0.02   0.01    -0.04  -0.02  -0.03
  17   8    -0.00  -0.02   0.03     0.01   0.01  -0.03    -0.01  -0.02   0.04
  18   1     0.01   0.02   0.06    -0.03  -0.05  -0.07     0.00   0.00   0.02
  19   1     0.01  -0.03  -0.09    -0.01   0.03   0.07    -0.01  -0.04  -0.12
  20   1     0.03   0.19   0.27     0.00  -0.01  -0.01    -0.00  -0.02  -0.04
  21   1    -0.34  -0.16  -0.04    -0.31  -0.15  -0.04    -0.05  -0.03  -0.00
  22   1     0.00  -0.05   0.02     0.02  -0.27   0.14     0.02  -0.36   0.19
  23   1    -0.05   0.04   0.06     0.10  -0.08  -0.11     0.04  -0.03  -0.04
  24   1     0.00  -0.00  -0.04    -0.00   0.01   0.02     0.01   0.01  -0.05
                     46                     47                     48
                        a                      a                      a 
 Frequencies --  1301.8851              1315.5723              1323.1861
 Red. masses --     3.5830                 3.1428                 3.0315
 Frc consts  --     0.0000                 0.0000                 0.0000
 IR Inten    --    21.3223                 7.5101                22.8910
 Raman Activ --     0.0000                 0.0000                 0.0000
 Depolar     --     0.0000                 0.0000                 0.0000
 Atom AN      X      Y      Z        X      Y      Z        X      Y      Z
   1   6     0.03  -0.07  -0.06    -0.06   0.20   0.26    -0.01  -0.04  -0.07
   2   6     0.01   0.07  -0.06     0.11   0.07  -0.04     0.07  -0.14   0.15
   3   1     0.17  -0.03   0.11    -0.19  -0.07  -0.14    -0.12   0.12  -0.08
   4   6    -0.17  -0.14   0.08    -0.05   0.05   0.02    -0.01  -0.05  -0.00
   5   1     0.20   0.11  -0.04     0.15  -0.16  -0.05    -0.07   0.21   0.03
   6   6     0.12  -0.16  -0.06     0.03  -0.09  -0.02     0.00  -0.01   0.02
   7   1    -0.14   0.56  -0.01    -0.05   0.21  -0.01     0.01   0.09  -0.00
   8   6     0.03   0.05  -0.17     0.01   0.04  -0.05    -0.02  -0.07  -0.01
   9   1    -0.34  -0.28   0.13    -0.05  -0.07   0.02     0.15   0.09  -0.08
  10   6     0.01   0.07  -0.14    -0.06   0.00   0.07    -0.09   0.06   0.19
  11   1    -0.06  -0.13  -0.01     0.15  -0.10  -0.20     0.41  -0.38  -0.57
  12   8    -0.05  -0.02   0.08    -0.02   0.01  -0.04    -0.12   0.08  -0.13
  13   8     0.01   0.01   0.08     0.02   0.01   0.02     0.07   0.03   0.07
  14   8     0.07   0.06   0.09     0.01   0.01   0.01    -0.01   0.01  -0.02
  15   8     0.01  -0.01   0.08     0.01  -0.00   0.03     0.00  -0.00   0.01
  16   8     0.05   0.02  -0.05    -0.01   0.00   0.04     0.02  -0.00  -0.05
  17   8    -0.02   0.03  -0.03     0.01  -0.10   0.10    -0.00   0.03  -0.04
  18   1     0.04   0.05  -0.01    -0.09  -0.16  -0.16     0.01   0.01   0.00
  19   1     0.00   0.05   0.13    -0.02  -0.25  -0.61     0.02   0.09   0.22
  20   1    -0.01  -0.07  -0.10     0.01  -0.00   0.00     0.00  -0.00  -0.00
  21   1    -0.15  -0.07  -0.02    -0.01  -0.01   0.00    -0.02  -0.01   0.00
  22   1     0.00  -0.01   0.01     0.00   0.00   0.00    -0.00   0.01  -0.00
  23   1    -0.13   0.10   0.13     0.03  -0.02  -0.03    -0.04   0.03   0.04
  24   1    -0.01   0.01   0.10     0.05   0.02  -0.27    -0.01  -0.01   0.06
                     49                     50                     51
                        a                      a                      a 
 Frequencies --  1331.6782              1350.2156              1352.0924
 Red. masses --     5.6671                 5.3316                 4.5827
 Frc consts  --     0.0000                 0.0000                 0.0000
 IR Inten    --    61.3906                14.0427                26.4935
 Raman Activ --     0.0000                 0.0000                 0.0000
 Depolar     --     0.0000                 0.0000                 0.0000
 Atom AN      X      Y      Z        X      Y      Z        X      Y      Z
   1   6     0.04   0.01   0.01     0.10  -0.02  -0.01    -0.10   0.01  -0.08
   2   6    -0.12   0.02  -0.13    -0.09  -0.22   0.01    -0.02   0.11   0.02
   3   1     0.22  -0.10   0.15     0.05   0.17   0.01    -0.03  -0.15   0.02
   4   6     0.14   0.10  -0.06     0.13   0.40  -0.10     0.25  -0.11  -0.12
   5   1    -0.04  -0.21  -0.00    -0.04  -0.49  -0.02    -0.38   0.22   0.10
   6   6    -0.20   0.08   0.02    -0.10  -0.18   0.04    -0.34  -0.08   0.13
   7   1     0.16  -0.10  -0.05     0.10   0.28  -0.05     0.34   0.27  -0.12
   8   6     0.05  -0.28  -0.00     0.05   0.13  -0.04     0.10   0.07  -0.05
   9   1    -0.16   0.25   0.02    -0.07  -0.13   0.04    -0.08  -0.12   0.05
  10   6     0.10   0.35  -0.16    -0.06  -0.12   0.06    -0.04  -0.08   0.02
  11   1    -0.08  -0.45  -0.05     0.09   0.11  -0.08     0.03   0.13  -0.01
  12   8    -0.06  -0.04   0.11     0.00   0.04  -0.04     0.02  -0.00  -0.01
  13   8     0.03  -0.02   0.14     0.01   0.02  -0.03    -0.01   0.01  -0.02
  14   8     0.05   0.05   0.03    -0.00  -0.02   0.00    -0.00  -0.02   0.00
  15   8     0.03  -0.02   0.01     0.01  -0.01   0.03     0.09  -0.05   0.05
  16   8    -0.04  -0.00   0.06    -0.08  -0.03   0.13    -0.02   0.01  -0.03
  17   8    -0.01  -0.01   0.02    -0.05   0.05  -0.06     0.07  -0.05   0.08
  18   1     0.01   0.01   0.00     0.03  -0.03  -0.10    -0.03   0.07   0.24
  19   1    -0.01  -0.02  -0.07    -0.02   0.07   0.16     0.03  -0.01  -0.03
  20   1    -0.01  -0.15  -0.21    -0.00   0.05   0.06     0.01   0.03   0.04
  21   1    -0.13  -0.06  -0.02     0.04   0.01   0.01     0.02   0.01   0.00
  22   1    -0.01   0.10  -0.06    -0.00   0.04  -0.02    -0.01   0.24  -0.12
  23   1     0.08  -0.07  -0.08     0.20  -0.16  -0.19    -0.02   0.01   0.00
  24   1     0.00  -0.00  -0.03    -0.04  -0.01   0.21     0.06   0.02  -0.27
                     52                     53                     54
                        a                      a                      a 
 Frequencies --  1353.8233              1357.0872              1461.0738
 Red. masses --     3.6477                 4.4383                 1.7784
 Frc consts  --     0.0000                 0.0000                 0.0000
 IR Inten    --    61.8553                 8.4872                 2.2654
 Raman Activ --     0.0000                 0.0000                 0.0000
 Depolar     --     0.0000                 0.0000                 0.0000
 Atom AN      X      Y      Z        X      Y      Z        X      Y      Z
   1   6    -0.19   0.01  -0.26    -0.03   0.01  -0.04    -0.23  -0.09   0.09
   2   6    -0.01  -0.09   0.05    -0.03   0.01  -0.03    -0.02  -0.02  -0.01
   3   1    -0.03   0.15  -0.04     0.04  -0.01   0.03    -0.01   0.00  -0.00
   4   6    -0.11   0.15   0.02     0.04   0.05  -0.03     0.01   0.01  -0.01
   5   1     0.20  -0.21  -0.07    -0.12  -0.03   0.03    -0.03  -0.01   0.01
   6   6     0.11   0.02  -0.05     0.15  -0.22   0.03    -0.00  -0.00   0.01
   7   1    -0.12  -0.07   0.04    -0.06   0.35   0.00     0.01   0.00  -0.00
   8   6     0.03  -0.01  -0.03    -0.34   0.13   0.11    -0.00   0.00   0.00
   9   1    -0.12  -0.02   0.04     0.56  -0.04  -0.21     0.01   0.00  -0.00
  10   6    -0.00   0.01   0.01     0.14   0.15  -0.10    -0.00  -0.01   0.00
  11   1     0.03  -0.01  -0.04    -0.17  -0.23   0.15    -0.00   0.00   0.00
  12   8     0.01   0.00  -0.02     0.00  -0.02   0.05     0.01   0.00   0.00
  13   8    -0.00  -0.00   0.01    -0.01  -0.03   0.05     0.00   0.00  -0.00
  14   8     0.01   0.02   0.02    -0.03  -0.07  -0.09    -0.00  -0.00  -0.00
  15   8    -0.04   0.01  -0.01    -0.02   0.04   0.02     0.00   0.00  -0.00
  16   8    -0.01  -0.02   0.05    -0.03  -0.01   0.01    -0.00  -0.00   0.00
  17   8     0.13  -0.08   0.16     0.02  -0.02   0.03    -0.03  -0.01   0.01
  18   1    -0.04   0.18   0.49    -0.01   0.03   0.09     0.29   0.53  -0.31
  19   1     0.14   0.07   0.14     0.01   0.00  -0.00     0.67  -0.14  -0.07
  20   1     0.01  -0.01  -0.01    -0.00  -0.07  -0.10    -0.01   0.00   0.00
  21   1    -0.05  -0.02  -0.01     0.19   0.09   0.01     0.00   0.00   0.00
  22   1     0.00  -0.09   0.04     0.00  -0.06   0.04    -0.00   0.00  -0.00
  23   1     0.06  -0.05  -0.05     0.03  -0.02  -0.03     0.00  -0.00  -0.01
  24   1     0.11   0.05  -0.52     0.01  -0.00  -0.10    -0.01  -0.00   0.04
                     55                     56                     57
                        a                      a                      a 
 Frequencies --  2858.6165              2870.9380              2872.9268
 Red. masses --     1.6858                 1.7419                 1.7002
 Frc consts  --     0.0000                 0.0000                 0.0000
 IR Inten    --     3.2775                39.6782                30.0661
 Raman Activ --     0.0000                 0.0000                 0.0000
 Depolar     --     0.0000                 0.0000                 0.0000
 Atom AN      X      Y      Z        X      Y      Z        X      Y      Z
   1   6    -0.00   0.01  -0.00    -0.00   0.01  -0.00     0.00   0.01  -0.00
   2   6     0.00  -0.00   0.00     0.00  -0.00  -0.00     0.00  -0.00  -0.00
   3   1    -0.01   0.00   0.02    -0.01   0.00   0.01    -0.00   0.00   0.01
   4   6     0.07  -0.01   0.21     0.03  -0.00   0.11    -0.00   0.00  -0.01
   5   1    -0.23   0.02  -0.84    -0.11   0.01  -0.39     0.01  -0.00   0.05
   6   6    -0.03  -0.01  -0.10     0.07   0.02   0.21    -0.00  -0.00  -0.01
   7   1     0.12   0.03   0.41    -0.23  -0.06  -0.79     0.01   0.01   0.05
   8   6    -0.00  -0.00  -0.00    -0.02  -0.00  -0.06     0.02   0.01   0.06
   9   1    -0.00  -0.00  -0.01     0.09   0.03   0.24    -0.10  -0.04  -0.25
  10   6    -0.00   0.00  -0.00    -0.03   0.01  -0.02    -0.18   0.05  -0.15
  11   1     0.01  -0.00   0.01     0.11  -0.02   0.09     0.70  -0.15   0.58
  12   8    -0.00   0.00   0.00    -0.00   0.00  -0.00    -0.01   0.00   0.00
  13   8    -0.00   0.00  -0.00    -0.00  -0.00  -0.00    -0.01  -0.01  -0.01
  14   8    -0.00   0.00   0.00    -0.00  -0.00  -0.00     0.01  -0.00   0.00
  15   8    -0.00   0.01  -0.01    -0.00  -0.01   0.01     0.00   0.00  -0.00
  16   8    -0.00   0.01   0.01    -0.00   0.00   0.00     0.00  -0.00  -0.00
  17   8     0.00   0.00  -0.00     0.00   0.00  -0.00     0.00  -0.00  -0.00
  18   1     0.01  -0.00   0.00     0.01  -0.00   0.00     0.00   0.00  -0.00
  19   1    -0.00  -0.02   0.01    -0.00  -0.03   0.01    -0.00  -0.04   0.02
  20   1     0.00  -0.00   0.00     0.00   0.00  -0.00     0.00  -0.00  -0.00
  21   1     0.00  -0.00  -0.00    -0.00   0.00   0.00     0.00   0.00  -0.00
  22   1     0.00   0.00   0.00    -0.00  -0.00   0.00    -0.00   0.00   0.00
  23   1    -0.00   0.00  -0.00     0.00   0.00   0.00     0.00  -0.00  -0.00
  24   1    -0.00  -0.00  -0.00    -0.00   0.00   0.00    -0.00   0.00   0.00
                     58                     59                     60
                        a                      a                      a 
 Frequencies --  2883.5785              2893.1287              2958.5873
 Red. masses --     1.7264                 1.7768                 1.7602
 Frc consts  --     0.0000                 0.0000                 0.0000
 IR Inten    --    65.6084                91.0096                 8.9025
 Raman Activ --     0.0000                 0.0000                 0.0000
 Depolar     --     0.0000                 0.0000                 0.0000
 Atom AN      X      Y      Z        X      Y      Z        X      Y      Z
   1   6    -0.02  -0.24   0.09    -0.00  -0.01   0.01    -0.01   0.01  -0.01
   2   6     0.00  -0.01  -0.00     0.00  -0.00  -0.00     0.14  -0.04  -0.22
   3   1    -0.01   0.00   0.02    -0.01   0.00   0.01    -0.53   0.14   0.79
   4   6     0.00   0.00   0.01     0.01  -0.00   0.03     0.00   0.00  -0.01
   5   1    -0.01   0.00  -0.02    -0.03   0.00  -0.12     0.01  -0.00   0.02
   6   6     0.00  -0.00   0.00     0.02   0.01   0.07    -0.00  -0.00  -0.00
   7   1    -0.00  -0.00  -0.00    -0.07  -0.02  -0.24     0.00   0.00   0.01
   8   6    -0.00  -0.00  -0.01     0.08   0.03   0.23    -0.00  -0.00  -0.00
   9   1     0.01   0.01   0.04    -0.31  -0.12  -0.82     0.00   0.00   0.01
  10   6    -0.01   0.00  -0.01     0.05  -0.01   0.05    -0.00  -0.00   0.00
  11   1     0.04  -0.01   0.03    -0.18   0.04  -0.15    -0.01   0.00  -0.00
  12   8    -0.00   0.00   0.00     0.00  -0.00  -0.00     0.01  -0.00  -0.00
  13   8    -0.00  -0.00  -0.00     0.00   0.00   0.00     0.00   0.00   0.00
  14   8    -0.00  -0.00  -0.00     0.01   0.00   0.00    -0.00   0.00   0.00
  15   8    -0.00  -0.00  -0.00     0.00  -0.00   0.00    -0.00   0.00   0.00
  16   8    -0.00   0.00  -0.00    -0.00   0.00   0.00    -0.00  -0.00   0.00
  17   8    -0.00  -0.00   0.01     0.00   0.00   0.00    -0.00   0.00   0.00
  18   1    -0.04  -0.02   0.01    -0.00  -0.00   0.00     0.06  -0.03   0.01
  19   1     0.12   0.87  -0.38     0.01   0.04  -0.02    -0.00  -0.01   0.01
  20   1    -0.00   0.00   0.00    -0.00  -0.00   0.00    -0.00  -0.00   0.00
  21   1     0.00  -0.00   0.00     0.00   0.00  -0.00    -0.00  -0.00  -0.00
  22   1    -0.00   0.00  -0.00    -0.00   0.00   0.00     0.00  -0.00  -0.00
  23   1    -0.00  -0.00   0.00     0.00   0.00   0.00     0.00   0.00  -0.00
  24   1    -0.00   0.01   0.00    -0.00  -0.00  -0.00     0.00  -0.00   0.00
                     61                     62                     63
                        a                      a                      a 
 Frequencies --  2992.2468              3384.2425              3521.0146
 Red. masses --     1.7099                 1.8792                 1.8669
 Frc consts  --     0.0000                 0.0000                 0.0000
 IR Inten    --    21.1125               173.7150                11.9410
 Raman Activ --     0.0000                 0.0000                 0.0000
 Depolar     --     0.0000                 0.0000                 0.0000
 Atom AN      X      Y      Z        X      Y      Z        X      Y      Z
   1   6    -0.23   0.11  -0.03    -0.01   0.00   0.01    -0.00  -0.00   0.00
   2   6    -0.02   0.01   0.01     0.00  -0.00   0.00    -0.00  -0.00   0.00
   3   1     0.04  -0.01  -0.06    -0.00  -0.00  -0.00     0.00  -0.00  -0.00
   4   6    -0.00   0.00  -0.00     0.00   0.00   0.00     0.00  -0.00  -0.00
   5   1     0.00  -0.00   0.01    -0.00   0.00  -0.00     0.00  -0.00   0.00
   6   6    -0.00   0.00  -0.00     0.00  -0.00   0.00    -0.00  -0.00   0.00
   7   1     0.00   0.00   0.00    -0.00  -0.00  -0.00    -0.00  -0.00   0.00
   8   6     0.00   0.00   0.00    -0.00  -0.00   0.00     0.00   0.00  -0.00
   9   1    -0.00  -0.00  -0.00     0.00  -0.00  -0.00     0.00  -0.00   0.00
  10   6    -0.00   0.00   0.00     0.00  -0.00  -0.00     0.00   0.00   0.00
  11   1     0.00  -0.00   0.00     0.00   0.00   0.00     0.00  -0.00   0.00
  12   8    -0.00  -0.00  -0.00    -0.00   0.00   0.00     0.00   0.00  -0.00
  13   8    -0.00  -0.00  -0.00     0.00   0.01  -0.00     0.03   0.10  -0.07
  14   8     0.00  -0.00  -0.00    -0.00   0.00  -0.00    -0.00   0.00   0.00
  15   8     0.00  -0.00  -0.00     0.00   0.00  -0.00    -0.08  -0.00   0.01
  16   8     0.00   0.00  -0.00    -0.00   0.00  -0.00    -0.06  -0.17   0.06
  17   8    -0.00   0.00   0.01    -0.21   0.11  -0.02     0.00  -0.00   0.00
  18   1     0.85  -0.43   0.12     0.01  -0.01   0.00     0.00  -0.00   0.00
  19   1    -0.02   0.05  -0.02     0.00   0.00  -0.00    -0.00   0.00  -0.00
  20   1     0.00   0.00  -0.00    -0.01  -0.03   0.02    -0.10  -0.42   0.27
  21   1     0.00   0.00   0.00    -0.00  -0.00   0.00     0.01  -0.01  -0.01
  22   1    -0.00   0.00   0.00    -0.00  -0.00   0.00     0.32   0.01  -0.05
  23   1    -0.00  -0.00   0.00    -0.00  -0.00   0.00     0.25   0.69  -0.23
  24   1    -0.02   0.01  -0.00     0.85  -0.45   0.06    -0.02   0.01  -0.00
                     64                     65                     66
                        a                      a                      a 
 Frequencies --  3521.0919              3523.1960              3555.5454
 Red. masses --     1.8637                 1.8733                 1.8754
 Frc consts  --     0.0000                 0.0000                 0.0000
 IR Inten    --    47.6937                29.1235                19.3491
 Raman Activ --     0.0000                 0.0000                 0.0000
 Depolar     --     0.0000                 0.0000                 0.0000
 Atom AN      X      Y      Z        X      Y      Z        X      Y      Z
   1   6     0.00   0.00  -0.00     0.00   0.00   0.00    -0.00  -0.00   0.00
   2   6     0.00   0.00  -0.00    -0.00  -0.00   0.00    -0.00   0.00   0.00
   3   1    -0.00   0.00   0.00     0.00   0.00  -0.00     0.00  -0.00  -0.00
   4   6    -0.00   0.00   0.00     0.00  -0.00  -0.00    -0.00   0.00   0.00
   5   1     0.00  -0.00  -0.00    -0.00  -0.00  -0.00    -0.00  -0.00  -0.00
   6   6     0.00   0.00  -0.00     0.00   0.00  -0.00    -0.00   0.00   0.00
   7   1    -0.00   0.00  -0.00     0.00  -0.00   0.00    -0.00  -0.00  -0.00
   8   6    -0.00   0.00  -0.00    -0.00  -0.00  -0.00    -0.00   0.00   0.00
   9   1     0.00  -0.00   0.00     0.00   0.00   0.00     0.00  -0.00  -0.00
  10   6     0.00   0.01   0.00     0.00   0.00  -0.00    -0.00  -0.00  -0.00
  11   1     0.00  -0.00   0.00     0.00  -0.00   0.00     0.00  -0.00   0.00
  12   8     0.00  -0.00  -0.00     0.00  -0.00  -0.00     0.00   0.00  -0.00
  13   8     0.04   0.17  -0.11     0.00   0.01  -0.01    -0.00  -0.00   0.00
  14   8    -0.00   0.00   0.00     0.00  -0.00  -0.00    -0.11   0.18   0.11
  15   8     0.03   0.00  -0.01     0.22   0.01  -0.03     0.01  -0.00  -0.00
  16   8     0.04   0.11  -0.04    -0.03  -0.08   0.03     0.00   0.00  -0.00
  17   8     0.01  -0.00   0.00     0.00  -0.00  -0.00     0.00   0.00   0.00
  18   1    -0.00  -0.00  -0.00     0.00  -0.00   0.00     0.00  -0.00  -0.00
  19   1    -0.00  -0.00   0.00    -0.00   0.00  -0.00     0.00   0.00  -0.00
  20   1    -0.17  -0.68   0.43    -0.01  -0.04   0.03     0.00   0.01  -0.01
  21   1     0.00  -0.00  -0.00    -0.01   0.01   0.01     0.46  -0.72  -0.46
  22   1    -0.14  -0.01   0.02    -0.89  -0.04   0.14    -0.02  -0.00   0.00
  23   1    -0.16  -0.44   0.15     0.11   0.31  -0.10    -0.00  -0.00   0.00
  24   1    -0.03   0.02  -0.00    -0.00   0.00  -0.00    -0.00  -0.00  -0.00
