11
 energy: -727.903288172621 gnorm: 0.028747267023 xtb: 6.7.1 (edcfbbe)
C           -2.32912230153210       -0.83052603496803       -0.24472822140845
O           -0.93242565001318       -0.59377306466312       -0.11778805365219
C           -0.55672707174670        0.67332753739837       -0.03421945271516
O           -1.30515700437835        1.61361051351503       -0.05863147972598
C            0.94749294561986        0.84318603907364        0.09579484514245
Cl           1.82410410550831       -0.69613760320848        0.15817951897009
H           -2.70994973160085       -0.36305628926088       -1.15462051421164
H           -2.86177844846813       -0.41650122378456        0.61334357897179
H           -2.44894993998519       -1.90964203214621       -0.28787153882756
H            1.16285038481529        1.40018392852046        1.00914725524718
H            1.31324604898193        1.41202663402571       -0.76089289423717
11
 energy: -727.904949149191 gnorm: 0.012930214201 xtb: 6.7.1 (edcfbbe)
C           -2.35336952410993       -0.82566723385371       -0.24689152960260
O           -0.94342779859308       -0.61091658950228       -0.11966109908241
C           -0.55221621126937        0.65888030869672       -0.03373709607498
O           -1.29141007350354        1.61533842062123       -0.05804114474896
C            0.95443447935175        0.82242572130672        0.09621488891880
Cl           1.93996030427137       -0.67304723503902        0.17004468778664
H           -2.73057709822183       -0.35575596545265       -1.15882942434563
H           -2.88245556313396       -0.41038970082690        0.61464373392884
H           -2.47719666640326       -1.90668596344334       -0.29099919634978
H            1.14462193122294        1.40364469345217        1.00230230024857
H            1.29521962904959        1.41487252510149       -0.75733319423103
11
 energy: -727.905221008585 gnorm: 0.006243796214 xtb: 6.7.1 (edcfbbe)
C           -2.36077642561410       -0.82522520755201       -0.24747333500621
O           -0.93963651965034       -0.62730950193512       -0.11970220823866
C           -0.54508637944541        0.64517554674882       -0.03357734132144
O           -1.28020578968755        1.60572943925565       -0.05780698055986
C            0.95674006514680        0.82687539073257        0.09664828024893
Cl           1.95894019542830       -0.66525266897577        0.17233301927758
H           -2.73268491944716       -0.34967417201581       -1.15921626597192
H           -2.88469617035702       -0.40527186412959        0.61550313318815
H           -2.49652572987818       -1.90546712837331       -0.29314958594177
H            1.13818315261154        1.41117473127540        1.00279728011423
H            1.28933195547925        1.42194464233421       -0.75864310692975
11
 energy: -727.905290733138 gnorm: 0.001771086018 xtb: 6.7.1 (edcfbbe)
C           -2.36457392414017       -0.82454460993743       -0.24765128390203
O           -0.93593071370081       -0.63918371398056       -0.11931090878919
C           -0.54221467646129        0.63464118056308       -0.03382033103986
O           -1.27615292090883        1.59570948638840       -0.05833145415989
C            0.95519175738728        0.83112737848618        0.09655593628089
Cl           1.96791749289359       -0.65775465600101        0.17367306145343
H           -2.72857165640089       -0.34245799560187       -1.15878936362216
H           -2.88093831997386       -0.39949577330930        0.61698000843209
H           -2.50965476050023       -1.90344113514380       -0.29491341277521
H            1.13329571362663        1.41382782575045        1.00348926385433
H            1.28521545341312        1.42427139870457       -0.76016865812266
11
 energy: -727.905295343449 gnorm: 0.000449272958 xtb: 6.7.1 (edcfbbe)
C           -2.36436114314904       -0.82399448796396       -0.24747409511742
O           -0.93419662518618       -0.64153476933270       -0.11865020512692
C           -0.54262827866327        0.63202429408763       -0.03401342322755
O           -1.27784699222433        1.59209611277390       -0.05925572485896
C            0.95355696029109        0.83160107816880        0.09631740425811
Cl           1.96871783674399       -0.65600296203705        0.17406291820238
H           -2.72465942647043       -0.33882681820953       -1.15773216402995
H           -2.87739673038049       -0.39742811351338        0.61766141249096
H           -2.51196424102551       -1.90193536667262       -0.29583863071104
H            1.13103527264266        1.41327659111244        1.00361041822975
H            1.28332682365805        1.42342389543583       -0.76097505615366
11
 energy: -727.905295343449 gnorm: 0.000449272958 xtb: 6.7.1 (edcfbbe)
C           -2.36436114314904       -0.82399448796396       -0.24747409511742
O           -0.93419662518618       -0.64153476933270       -0.11865020512692
C           -0.54262827866327        0.63202429408763       -0.03401342322755
O           -1.27784699222433        1.59209611277390       -0.05925572485896
C            0.95355696029109        0.83160107816880        0.09631740425811
Cl           1.96871783674399       -0.65600296203705        0.17406291820238
H           -2.72465942647043       -0.33882681820953       -1.15773216402995
H           -2.87739673038049       -0.39742811351338        0.61766141249096
H           -2.51196424102551       -1.90193536667262       -0.29583863071104
H            1.13103527264266        1.41327659111244        1.00361041822975
H            1.28332682365805        1.42342389543583       -0.76097505615366
