24
 energy: -687.083390126396 gnorm: 0.001360279700 xtb: 6.7.1 (edcfbbe)
C           -2.57743234090356       -0.64794478798427       -0.29799422170352
C           -1.21058880234722       -0.26543165919561        0.23857822423479
H           -1.25365699877782       -0.20977024225808        1.33930701079951
C           -0.70707595575536        1.06496799505002       -0.31883701068786
H           -0.70237239195962        1.01218975655714       -1.42183968729479
C            0.71677682460749        1.30734064572569        0.16048715334684
H            0.70287073746449        1.41104862190775        1.25974319189091
C            1.60055614898829        0.12669540268812       -0.20173227318230
H            1.64715112360262        0.03577200702255       -1.30233623109268
C            0.99517860634658       -1.16220882208905        0.36050537639377
H            0.98380518941707       -1.12818394267967        1.46222512735711
O           -0.31779897373964       -1.32365025695178       -0.15674204912737
O            1.75487681386902       -2.28584733378670        0.01395419084727
O            2.88850653754927        0.38054622196898        0.34836501027030
O            1.16312352638863        2.52007356713074       -0.44327122938660
O           -1.58370180809054        2.08688678034400        0.13587551522772
O           -3.04134521147113       -1.86632876943053        0.26488604100992
H           -2.52062612538296       -0.70582362150318       -1.39795281008355
H           -3.29709183101410        0.12930252324847       -0.02974858988329
H            1.67427185362942       -2.40536584635568       -0.94231854694053
H            3.42638774125005       -0.40808811773427        0.20632669663736
H            2.06891802616341        2.67297239585505       -0.14853040668468
H           -1.16100714950527        2.92963916554346       -0.07304766745163
H           -2.35430546356630       -2.52582312524171        0.10839655109201
24
 energy: -687.083394031989 gnorm: 0.000531736652 xtb: 6.7.1 (edcfbbe)
C           -2.57780357560825       -0.64768158380611       -0.29733224319845
C           -1.21071619603573       -0.26539330492835        0.23787814955887
H           -1.25221069801713       -0.21037400875316        1.33850084792196
C           -0.70721464358594        1.06491928277643       -0.31939015481855
H           -0.70263677656509        1.01266874063003       -1.42224287264459
C            0.71628335867996        1.30726011241686        0.16021798711598
H            0.70256311322018        1.41144832864035        1.25924283992236
C            1.60056776224620        0.12685719453574       -0.20144953013977
H            1.64916471254199        0.03596959604305       -1.30179289231363
C            0.99513331936257       -1.16222515965287        0.35982544137294
H            0.98305222813444       -1.12964937489340        1.46137082975127
O           -0.31772426364613       -1.32377056802708       -0.15838479394478
O            1.75544946595681       -2.28546820590203        0.01244457896615
O            2.88820681405441        0.38071188135998        0.34988569222297
O            1.16300383799419        2.52013222934534       -0.44347126485261
O           -1.58390236041694        2.08708229458256        0.13497501565462
O           -3.04131160160111       -1.86607632274576        0.26641954468205
H           -2.52256321742309       -0.70658334708977       -1.39715538825959
H           -3.29729826841147        0.12928232186842       -0.02814259389596
H            1.67534514717659       -2.40335795847729       -0.94452492864331
H            3.42539689208990       -0.40947453717010        0.21065862288029
H            2.06929118433214        2.67206706776187       -0.14896442251901
H           -1.16091226828041        2.92972124995644       -0.07413792095918
H           -2.35374398684206       -2.52509674520253        0.10986873065596
24
 energy: -687.083394031989 gnorm: 0.000531736652 xtb: 6.7.1 (edcfbbe)
C           -2.57780357560825       -0.64768158380611       -0.29733224319845
C           -1.21071619603573       -0.26539330492835        0.23787814955887
H           -1.25221069801713       -0.21037400875316        1.33850084792196
C           -0.70721464358594        1.06491928277643       -0.31939015481855
H           -0.70263677656509        1.01266874063003       -1.42224287264459
C            0.71628335867996        1.30726011241686        0.16021798711598
H            0.70256311322018        1.41144832864035        1.25924283992236
C            1.60056776224620        0.12685719453574       -0.20144953013977
H            1.64916471254199        0.03596959604305       -1.30179289231363
C            0.99513331936257       -1.16222515965287        0.35982544137294
H            0.98305222813444       -1.12964937489340        1.46137082975127
O           -0.31772426364613       -1.32377056802708       -0.15838479394478
O            1.75544946595681       -2.28546820590203        0.01244457896615
O            2.88820681405441        0.38071188135998        0.34988569222297
O            1.16300383799419        2.52013222934534       -0.44347126485261
O           -1.58390236041694        2.08708229458256        0.13497501565462
O           -3.04131160160111       -1.86607632274576        0.26641954468205
H           -2.52256321742309       -0.70658334708977       -1.39715538825959
H           -3.29729826841147        0.12928232186842       -0.02814259389596
H            1.67534514717659       -2.40335795847729       -0.94452492864331
H            3.42539689208990       -0.40947453717010        0.21065862288029
H            2.06929118433214        2.67206706776187       -0.14896442251901
H           -1.16091226828041        2.92972124995644       -0.07413792095918
H           -2.35374398684206       -2.52509674520253        0.10986873065596
