15
 energy: -196.455297272340 gnorm: 0.001848066614 xtb: 6.7.1 (edcfbbe)
C           -1.59530542558158        0.88820976495314        0.31256517033056
C           -1.33489292790990       -0.50877138223409       -0.24357917921466
C            0.07692674367494       -0.99778941555306       -0.40546944903036
C            1.27235509721733       -0.45083255558494       -0.16221552894437
C            1.65986493054225        0.88306302671415        0.39909732182535
H           -2.67129944270754        1.08902911127429        0.31420401649543
H           -1.11567897371666        1.65988168871358       -0.29628628442196
H           -1.24146808141091        0.98842629967957        1.34247720238725
H           -1.87095425860677       -1.24453137911186        0.37383301885249
H           -1.80962306839435       -0.58706336624832       -1.23321605522681
H            0.11082577052611       -2.00445036982480       -0.82446802883170
H            2.12699440093600       -1.07690664107478       -0.41991825016489
H            2.12622903857103        1.50211810036173       -0.37867395941488
H            2.41612578886065        0.75104232016276        1.18297752264039
H            0.82959172456934        1.44564390675276        0.82176258330587
15
 energy: -196.455312092758 gnorm: 0.000513179791 xtb: 6.7.1 (edcfbbe)
C           -1.59279356296229        0.88850078985548        0.31311277687858
C           -1.33403016676411       -0.50818431578611       -0.24487267704491
C            0.07741517514053       -0.99930601920172       -0.40794975859498
C            1.27233510047192       -0.45303279765442       -0.16133665841175
C            1.65682391767948        0.88350535315243        0.39815288962744
H           -2.66856193946823        1.08990592002842        0.31782222779305
H           -1.11407801322428        1.66083425885983       -0.29544670610799
H           -1.23645585749921        0.98678691392763        1.34222490198161
H           -1.86743953328295       -1.24385228565747        0.37492393738110
H           -1.81286605734196       -0.58660949886313       -1.23232022235254
H            0.10900741865378       -2.00567773028149       -0.82811510034271
H            2.12942364279532       -1.07680000176677       -0.41715560557250
H            2.12856189435667        1.50037403938291       -0.37756153250552
H            2.40710905161722        0.75448591133992        1.18640826716673
H            0.82523995940561        1.44613847265886        0.81520327998924
15
 energy: -196.455318387662 gnorm: 0.000490192711 xtb: 6.7.1 (edcfbbe)
C           -1.59059089698522        0.88859634260377        0.31405325191485
C           -1.33337148953265       -0.50773219434957       -0.24557438337271
C            0.07803751291151       -0.99901140962455       -0.41220835717856
C            1.27257842649167       -0.45347258625245       -0.16300353518124
C            1.65441535311459        0.88372091664949        0.39778877410851
H           -2.66636394925908        1.08958751642076        0.32233290673943
H           -1.11397584000195        1.66168921694329       -0.29513525122754
H           -1.23104586746327        0.98564859964048        1.34217531643863
H           -1.86410548277074       -1.24340097090194        0.37667463884682
H           -1.81586103018943       -0.58669255352365       -1.23110048801231
H            0.10775846831395       -2.00603010862466       -0.83110245848531
H            2.13136557734089       -1.07699126265160       -0.41390043697726
H            2.13312588744404        1.49683478420216       -0.37644648514713
H            2.39769673729466        0.75585340722853        1.19285444188339
H            0.82002732763769        1.44846914019472        0.80568199389391
15
 energy: -196.455323614179 gnorm: 0.000612551590 xtb: 6.7.1 (edcfbbe)
C           -1.59017351709462        0.88843833547129        0.31490659756551
C           -1.33299394983308       -0.50756096992062       -0.24549927449855
C            0.07837825249792       -0.99898520245922       -0.41342933239846
C            1.27274914387144       -0.45410531144026       -0.16273605878189
C            1.65373790536930        0.88370237122559        0.39742288830668
H           -2.66609643329091        1.08837373063521        0.32662799595969
H           -1.11627317414902        1.66223642549240       -0.29551329186839
H           -1.22750781906185        0.98543666033686        1.34196737191881
H           -1.86163389867286       -1.24338564310116        0.37833859684278
H           -1.81782365685490       -0.58709315798956       -1.22977919811850
H            0.10741057474118       -2.00485504207506       -0.83507745195874
H            2.13216981886784       -1.07628645592099       -0.41452867811193
H            2.14153933899864        1.49249928589212       -0.37470616302228
H            2.38916593999835        0.75596480833182        1.20024754174967
H            0.81704201389427        1.45268879358620        0.79484832042564
15
 energy: -196.455336589852 gnorm: 0.001388296351 xtb: 6.7.1 (edcfbbe)
C           -1.59118125641071        0.88757040169130        0.31728590200869
C           -1.33277219033994       -0.50763210247837       -0.24446558920878
C            0.07877178129634       -0.99707847732282       -0.41783576609594
C            1.27311439060126       -0.45335279839110       -0.16546203521825
C            1.65423674635759        0.88363388038906        0.39635133072233
H           -2.66781428778289        1.08303182599950        0.33854898178899
H           -1.12619932816755        1.66331352518292       -0.29762945703509
H           -1.21977000010061        0.98650444292247        1.34111876677748
H           -1.85602904241248       -1.24435207452718        0.38289351607061
H           -1.82279236970562       -0.58906203836174       -1.22589260954774
H            0.10721872841459       -2.00155340648968       -0.84268983859413
H            2.13295267781137       -1.07447567256511       -0.41823232815654
H            2.17104974519846        1.48040760365971       -0.36723955076532
H            2.36595572599512        0.75409995148772        1.22124426971611
H            0.81294881668638        1.46601293407894        0.76509409604988
15
 energy: -196.455345913230 gnorm: 0.003531833317 xtb: 6.7.1 (edcfbbe)
C           -1.59444150739953        0.88582162705026        0.32102036323828
C           -1.33330333598610       -0.50837870120494       -0.24172555676932
C            0.07891537889255       -0.99293552580760       -0.42333147091223
C            1.27377807240745       -0.44971747920179       -0.17183667863383
C            1.65702850380964        0.88395323981923        0.39463175776784
H           -2.67247863933729        1.07230569775091        0.35760972719137
H           -1.14535835487307        1.66437727222884       -0.30257327463452
H           -1.20867144880181        0.99003592981324        1.33924584580494
H           -1.84837226263773       -1.24698486490463        0.39033984293975
H           -1.83031067367604       -0.59312826147127       -1.21934432643819
H            0.10774158709214       -1.99537584421629       -0.85298338921335
H            2.13283995478514       -1.07065829823272       -0.42779496482056
H            2.22404369143649        1.46021627262010       -0.35157448147017
H            2.32756056294175        0.74781804262352        1.25529052442575
H            0.81071809225299        1.48971783135149        0.71611545401825
15
 energy: -196.455358930628 gnorm: 0.001706294095 xtb: 6.7.1 (edcfbbe)
C           -1.59524658245994        0.88585052878955        0.32041052136939
C           -1.33360406812038       -0.50865867750199       -0.24132021998797
C            0.07863913764733       -0.99287309097953       -0.42198240282835
C            1.27365142075482       -0.44897189803492       -0.17228913233817
C            1.65796299410644        0.88383817784503        0.39506567745371
H           -2.67317181512062        1.07252397564740        0.35555827951197
H           -1.14542379815116        1.66377005710942       -0.30320684021136
H           -1.21068539628071        0.99100344057066        1.33885460808191
H           -1.84993520403295       -1.24712119538691        0.38976141936981
H           -1.82895725941432       -0.59333144683258       -1.21978799963386
H            0.10828635470617       -1.99568764834394       -0.85062446420512
H            2.13194267182707       -1.07042822724787       -0.42956023135793
H            2.22098244444588        1.46191110142080       -0.35048236456541
H            2.33122422690745        0.74714874576989        1.25161976466785
H            0.81402464120661        1.48809320609637        0.72107275127097
15
 energy: -196.455369818627 gnorm: 0.000481348828 xtb: 6.7.1 (edcfbbe)
C           -1.59784860594352        0.88476520138396        0.32175458761462
C           -1.33440255041439       -0.50983082542277       -0.23897078959884
C            0.07814922431468       -0.99044496271266       -0.42374333740959
C            1.27353971132641       -0.44493228042488       -0.17815913016781
C            1.66061104501852        0.88455102333417        0.39420445954046
H           -2.67619920600208        1.06713582440467        0.36333251665619
H           -1.15558918944986        1.66270050467254       -0.30700299913399
H           -1.20703101269263        0.99463707295616        1.33715102192228
H           -1.84850332537787       -1.24915075006350        0.39287321915788
H           -1.83102869146257       -0.59576146412369       -1.21670822287399
H            0.10950823277821       -1.99372983317730       -0.85112339730173
H            2.13031493021316       -1.06766823629864       -0.43787732747649
H            2.24678221128538        1.45368639215649       -0.33815552724020
H            2.31290454407707        0.74213702047277        1.26436750511130
H            0.81848235406402        1.49897195374163        0.70114656728707
15
 energy: -196.455373097810 gnorm: 0.000900718045 xtb: 6.7.1 (edcfbbe)
C           -1.59778210054969        0.88403150061867        0.32343891003848
C           -1.33450329039236       -0.51029934347404       -0.23804878109837
C            0.07819914284973       -0.98940032364670       -0.42617852524139
C            1.27354797832536       -0.44325374790271       -0.18162848465838
C            1.66059044409662        0.88532005487983        0.39294164449079
H           -2.67639557568012        1.06389761842894        0.37061996331809
H           -1.16065856097584        1.66253276790857       -0.30828822205364
H           -1.20168238286285        0.99525938564693        1.33670007935202
H           -1.84586584419597       -1.25026963569469        0.39540269652449
H           -1.83407068413265       -0.59683959561261       -1.21430015755005
H            0.10939289036956       -1.99256324314336       -0.85402141728143
H            2.13061946331318       -1.06574512841765       -0.44114106972924
H            2.26579741687139        1.44631272975565       -0.33105231942584
H            2.29535053234460        0.74014031653884        1.27654214816556
H            0.81714995530261        1.50794291115284        0.68210253943022
15
 energy: -196.455373097810 gnorm: 0.000900718045 xtb: 6.7.1 (edcfbbe)
C           -1.59778210054969        0.88403150061867        0.32343891003848
C           -1.33450329039236       -0.51029934347404       -0.23804878109837
C            0.07819914284973       -0.98940032364670       -0.42617852524139
C            1.27354797832536       -0.44325374790271       -0.18162848465838
C            1.66059044409662        0.88532005487983        0.39294164449079
H           -2.67639557568012        1.06389761842894        0.37061996331809
H           -1.16065856097584        1.66253276790857       -0.30828822205364
H           -1.20168238286285        0.99525938564693        1.33670007935202
H           -1.84586584419597       -1.25026963569469        0.39540269652449
H           -1.83407068413265       -0.59683959561261       -1.21430015755005
H            0.10939289036956       -1.99256324314336       -0.85402141728143
H            2.13061946331318       -1.06574512841765       -0.44114106972924
H            2.26579741687139        1.44631272975565       -0.33105231942584
H            2.29535053234460        0.74014031653884        1.27654214816556
H            0.81714995530261        1.50794291115284        0.68210253943022
