19
 energy: -26.288063898873 gnorm: 0.018882824090 xtb: 6.7.1 (edcfbbe)
C           -3.21183180620295       -0.00990457767272        0.84650489370161
C           -2.48662775694935        0.01152391296157       -0.50537526068810
C           -0.98833669027596        0.00919915392998       -0.34476619401967
C           -0.27590505322200       -1.18901172476100       -0.24071254620513
C            1.09707790397471       -1.20529954556980       -0.03497725983276
C            1.79012701975888       -0.00155759931926        0.07384123805323
C            1.10336507204278        1.20664895798354       -0.02899314917217
C           -0.27256067947187        1.20190933930919       -0.23572959287692
O            3.14378131152835       -0.06943943401906        0.27607567554551
H           -2.93609797762150       -0.90139528748838        1.41867186606384
H           -4.29849281676222       -0.00931175874485        0.71396943780811
H           -2.93807829044891        0.86485132621883        1.44488816319779
H           -2.79389097646916        0.89971547421415       -1.06958514877918
H           -2.79294677709836       -0.85913877801247       -1.09686764647343
H           -0.80762057330526       -2.13337173538011       -0.32596524104091
H            1.64511040534745       -2.13813390481915        0.03936593863672
H            1.64033167882134        2.14924121439858        0.04723436021822
H           -0.79780898045856        2.15021805961647       -0.31625464115081
H            3.49658168386956        0.82543186657635        0.33183956505018
19
 energy: -26.288828420999 gnorm: 0.006544901228 xtb: 6.7.1 (edcfbbe)
C           -3.19552159477395       -0.00942014815310        0.84216504947960
C           -2.48026045781301        0.01213960372777       -0.50913198344947
C           -0.98733200042963        0.00817010884832       -0.33105239973106
C           -0.28250910980612       -1.18754438977933       -0.23309149905465
C            1.08484950677311       -1.20274459352667       -0.03590872827557
C            1.78107880296650       -0.00347980250428        0.07085092779042
C            1.09474515343591        1.19949498945253       -0.02949089586949
C           -0.27571338212065        1.19669411390464       -0.22706358625807
O            3.13176927789999       -0.06277602961732        0.27136340277629
H           -2.92131999616861       -0.90023770041990        1.40631264816380
H           -4.27560586099682       -0.00852698031756        0.70099001207094
H           -2.92347677967194        0.86433690026407        1.43349635946420
H           -2.78490678354049        0.90506587799862       -1.06262037463760
H           -2.78478206014677       -0.86303928587322       -1.09028041587385
H           -0.81347833619388       -2.12664705393122       -0.31896652052941
H            1.63058873640161       -2.13102220869371        0.03845861967478
H            1.63064522125017        2.13802764066757        0.04721042563230
H           -0.79814138726449        2.14119761366972       -0.30777218615349
H            3.48554774725601        0.83248630370491        0.32769560281645
19
 energy: -26.288892043152 gnorm: 0.002282936300 xtb: 6.7.1 (edcfbbe)
C           -3.18964771755916       -0.00910877787429        0.84095712402982
C           -2.47784458074315        0.01263987046715       -0.51224369008821
C           -0.98615166975955        0.00775077927124       -0.33408507289479
C           -0.28548604748963       -1.18818612666277       -0.23309272251210
C            1.07972397984233       -1.20303823902308       -0.03346814147921
C            1.77773817737663       -0.00504119195136        0.07285391022444
C            1.09059568223578        1.19665727747750       -0.02660495175839
C           -0.27775775832082        1.19563346263424       -0.22669914867700
O            3.12684533247133       -0.05891302777261        0.26920191987472
H           -2.91200687030151       -0.89903856902506        1.40106905575358
H           -4.26863464971588       -0.00807211459398        0.70328497566583
H           -2.91406607341655        0.86353954818034        1.42873583675427
H           -2.78100607140528        0.90621469493011       -1.06230910696154
H           -2.78166267425514       -0.86265849207444       -1.09046664871733
H           -0.81752232611230       -2.12506651045738       -0.31529606803152
H            1.62525498458988       -2.12990937854634        0.04055934464112
H            1.62715173721390        2.13357644457200        0.04991032044643
H           -0.80035406323094        2.13859449069747       -0.30325151541508
H            3.48100730563704        0.83660081917307        0.32410903718109
19
 energy: -26.288899533150 gnorm: 0.000790790236 xtb: 6.7.1 (edcfbbe)
C           -3.18706745942385       -0.00901015821192        0.84083591277807
C           -2.47811901849485        0.01278618148910       -0.51456656096667
C           -0.98645551411557        0.00765718474647       -0.33534365866925
C           -0.28666095608698       -1.18878835239173       -0.23278259755353
C            1.07857562378156       -1.20366501404862       -0.03248014922608
C            1.77724589502109       -0.00572581812119        0.07282611974673
C            1.08934779620395        1.19608486528109       -0.02575123620379
C           -0.27902859008601        1.19594612070201       -0.22631616136063
O            3.12550059742801       -0.05758948717467        0.26878806883769
H           -2.90729554631823       -0.89899055217490        1.39963141614513
H           -4.26629491494694       -0.00785890691095        0.70596780256047
H           -2.90914998371567        0.86357941747371        1.42745666157818
H           -2.78121274896486        0.90651224969065       -1.06380291795376
H           -2.78241166007218       -0.86225302133400       -1.09235273224120
H           -0.81920357840574       -2.12520307973393       -0.31512906760486
H            1.62411303281601       -2.13057115312612        0.04325988593387
H            1.62648183781795        2.13263905797079        0.05276803777426
H           -0.80186768256768        2.13861678176785       -0.30280754174971
H            3.47967956718696        0.83800864352821        0.32296317621125
19
 energy: -26.288901495163 gnorm: 0.000688832362 xtb: 6.7.1 (edcfbbe)
C           -3.18415991143123       -0.00897989659451        0.84093194434496
C           -2.47885367881405        0.01284609787066       -0.51699327752613
C           -0.98682604229779        0.00758869145999       -0.33848986883687
C           -0.28748255224450       -1.18921505981523       -0.23390860969404
C            1.07773030251328       -1.20428724185848       -0.03130899841214
C            1.77662374352667       -0.00631607575836        0.07404697559089
C            1.08806582876158        1.19575539687855       -0.02466266682770
C           -0.28014423677860        1.19643761021224       -0.22742767031975
O            3.12417115643099       -0.05654697101664        0.26963266081112
H           -2.90165558572902       -0.89914200612149        1.39840789014565
H           -4.26406642955228       -0.00762214505138        0.71059296038418
H           -2.90309219453757        0.86364198311392        1.42635669521208
H           -2.78283870583453        0.90668372532363       -1.06543546759237
H           -2.78468636475326       -0.86181305586950       -1.09444109900654
H           -0.82072217841936       -2.12540067677140       -0.31593080484602
H            1.62310801709671       -2.13153616516667        0.04675415388911
H            1.62606325889072        2.13198955219075        0.05622889714419
H           -0.80344325482551        2.13896493417074       -0.30353070270490
H            3.47838552505473        0.83912626222501        0.32234144628043
19
 energy: -26.288902076204 gnorm: 0.000164006256 xtb: 6.7.1 (edcfbbe)
C           -3.18398870387814       -0.00901253103225        0.84115197266503
C           -2.47891695191590        0.01280462336854       -0.51661118004511
C           -0.98692569375332        0.00759587387686       -0.33853680513799
C           -0.28737288862906       -1.18898424951516       -0.23420889866146
C            1.07777433522867       -1.20408988197802       -0.03156710428013
C            1.77645382837942       -0.00613091522938        0.07406895546207
C            1.08811149743090        1.19589007854999       -0.02508260463353
C           -0.27998251526836        1.19633203509018       -0.22786804216282
O            3.12411423451356       -0.05688175730864        0.27072427266131
H           -2.90183836972098       -0.89916191540200        1.39883253178652
H           -4.26386405081387       -0.00762578270392        0.71074220164740
H           -2.90321383340651        0.86355552440404        1.42679380157667
H           -2.78310905430229        0.90662333014771       -1.06518702968084
H           -2.78481875974580       -0.86194767486993       -1.09407695661811
H           -0.82039853433393       -2.12527587172070       -0.31680819538010
H            1.62299301288188       -2.13134996455918        0.04627879043441
H            1.62599819272525        2.13214441587462        0.05561663874280
H           -0.80315471790102        2.13890662486626       -0.30454432981089
H            3.47831566956648        0.83878299756281        0.32344643947090
19
 energy: -26.288902271989 gnorm: 0.000075097983 xtb: 6.7.1 (edcfbbe)
C           -3.18337909039763       -0.00904704580557        0.84139649528943
C           -2.47902453546045        0.01281741572519       -0.51659765784724
C           -0.98704044227361        0.00760589822691       -0.33906859699473
C           -0.28746993219342       -1.18889777160013       -0.23480479523610
C            1.07760355654859       -1.20402599936463       -0.03176450660097
C            1.77613795292608       -0.00607714353820        0.07439399080103
C            1.08795782394162        1.19593994494919       -0.02534514906679
C           -0.28001344570420        1.19630639640423       -0.22853442000369
O            3.12376939849281       -0.05697338375737        0.27202605322165
H           -2.90102360284356       -0.89924918284470        1.39886935037609
H           -4.26332194473608       -0.00757467245569        0.71157320675216
H           -2.90225598147578        0.86343182997398        1.42698051074752
H           -2.78349014854104        0.90664095826996       -1.06503913549080
H           -2.78514180620574       -0.86196202075383       -1.09393011650465
H           -0.82043269510126       -2.12521553303445       -0.31750163392307
H            1.62266805372608       -2.13130032730994        0.04616977470365
H            1.62583881489499        2.13216315072056        0.05521889598118
H           -0.80314282648862        2.13887981088149       -0.30550175683588
H            3.47793754794819        0.83871263473485        0.32462394866734
19
 energy: -26.288902357175 gnorm: 0.000078884070 xtb: 6.7.1 (edcfbbe)
C           -3.18294863815419       -0.00908581634722        0.84159002598307
C           -2.47913428843451        0.01284613146828       -0.51670428633269
C           -0.98711412760867        0.00762653904525       -0.33945866587355
C           -0.28757534258199       -1.18888584408498       -0.23507026274361
C            1.07747712728418       -1.20402659487182       -0.03179207464830
C            1.77597816879140       -0.00607826236627        0.07451066008855
C            1.08787303948070        1.19596177362838       -0.02555215321517
C           -0.28006844468879        1.19632908251485       -0.22897953870159
O            3.12353040423711       -0.05698738721696        0.27284361889846
H           -2.90042581800245       -0.89935610136005        1.39887390648676
H           -4.26294943282268       -0.00751544103606        0.71227240683662
H           -2.90150178592188        0.86330731775766        1.42715028591228
H           -2.78377193588417        0.90668657988849       -1.06501716826478
H           -2.78542794650759       -0.86191288206380       -1.09397150530376
H           -0.82049158045178       -2.12520636794687       -0.31804248693051
H            1.62249470128045       -2.13132323772024        0.04621425248779
H            1.62574902620952        2.13218352898148        0.05506010739653
H           -0.80317518274822        2.13889903300475       -0.30619865626732
H            3.47765875358053        0.83871290814696        0.32543599222736
