
                                 *****************
                                 * O   R   C   A *
                                 *****************

                                            #,                                       
                                            ###                                      
                                            ####                                     
                                            #####                                    
                                            ######                                   
                                           ########,                                 
                                     ,,################,,,,,                         
                               ,,#################################,,                 
                          ,,##########################################,,             
                       ,#########################################, ''#####,          
                    ,#############################################,,   '####,        
                  ,##################################################,,,,####,       
                ,###########''''           ''''###############################       
              ,#####''   ,,,,##########,,,,          '''####'''          '####       
            ,##' ,,,,###########################,,,                        '##       
           ' ,,###''''                  '''############,,,                           
         ,,##''                                '''############,,,,        ,,,,,,###''
      ,#''                                            '''#######################'''  
     '                                                          ''''####''''         
             ,#######,   #######,   ,#######,      ##                                
            ,#'     '#,  ##    ##  ,#'     '#,    #''#        ,####,   ,####,        
            ##       ##  ##   ,#'  ##            #'  '#       #'       #'  '#        
            ##       ##  #######   ##           ,######,      #####,   #    #        
            '#,     ,#'  ##    ##  '#,     ,#' ,#      #,     #,   #   #,  ,#        
             '#######'   ##     ##  '#######'  #'      '#     '####' # '####'        



                #########################################################
                #                        -***-                          #
                #          Department of theory and spectroscopy        #
                #                                                       #
                #                      Frank Neese                      #
                #                                                       #
                #     Directorship, Architecture, Infrastructure        #
                #                    SHARK, DRIVERS                     #
                #        Core code/Algorithms in most modules           #
                #                                                       #
                #        Max Planck Institute fuer Kohlenforschung      #
                #                Kaiser Wilhelm Platz 1                 #
                #                 D-45470 Muelheim/Ruhr                 #
                #                      Germany                          #
                #                                                       #
                #                  All rights reserved                  #
                #                        -***-                          #
                #########################################################


                         Program Version 6.0.1  -  RELEASE   -


 With contributions from (in alphabetic order):
[Max-Planck-Institut fuer Kohlenforschung]                               
  Daniel Aravena         : Magnetic Suceptibility                        
  Michael Atanasov       : Ab Initio Ligand Field Theory (pilot matlab implementation)
  Alexander A. Auer      : GIAO ZORA, VPT2 properties, NMR spectrum      
  Ute Becker             : All parallelization in ORCA, NUMFREQ, NUMCALC 
  Giovanni Bistoni       : ED, misc. LED, open-shell LED, HFLD           
  Martin Brehm           : Molecular dynamics                            
  Dmytro Bykov           : pre 5.0 version of the SCF Hessian            
  Marcos Casanova-Páez   : Triplet and SCS-CIS(D). UHF-(DLPNO)-IP/EA/STEOM-CCSD. UHF-CVS-IP/STEOM-CCSD   
  Vijay G. Chilkuri      : MRCI spin determinant printing, contributions to CSF-ICE 
  Pauline Colinet        : FMM embedding                                 
  Dipayan Datta          : RHF DLPNO-CCSD density                        
  Achintya Kumar Dutta   : EOM-CC, STEOM-CC                              
  Nicolas Foglia         : Exact transition moments, OPA infrastructure, MCD improvements    
  Dmitry Ganyushin       : Spin-Orbit,Spin-Spin,Magnetic field MRCI      
  Miquel Garcia-Rates    : C-PCM and meta-GGA Hessian, CCSD/C-PCM, Gaussian charge scheme 
  Tiago L. C. Gouveia    : GS-ROHF, GS-ROCIS                             
  Yang Guo               : DLPNO-NEVPT2, F12-NEVPT2, CIM, IAO-localization        
  Andreas Hansen         : Spin unrestricted coupled pair/coupled cluster methods 
  Ingolf Harden          : AUTO-CI MPn and infrastructure                
  Benjamin Helmich-Paris : MC-RPA, TRAH-(SCF,CASSCF), AVAS, COSX integrals, SCF dyn. polar. 
  Lee Huntington         : MR-EOM, pCC                                   
  Robert Izsak           : Overlap fitted RIJCOSX, COSX-SCS-MP3, EOM     
  Riya Kayal             : Wick's Theorem for AUTO-CI, AUTO-CI UHF-CCSDT 
  Emily Kempfer          : AUTO-CI, RHF CISDT and CCSDT                  
  Christian Kollmar      : KDIIS, OOCD, Brueckner-CCSD(T), CCSD density, CASPT2, CASPT2-K, improved NEVPT2 
  Axel Koslowski         : Symmetry handling                             
  Simone Kossmann        : meta-GGA functionals, TD-DFT gradient, OOMP2, (MP2 Hessian; deprecated post 5.0) 
  Lucas Lang             : DCDCAS                                        
  Marvin Lechner         : AUTO-CI (C++ implementation), FIC-MRCC        
  Spencer Leger          : CASSCF response                               
  Dagmar Lenk            : GEPOL surface, SMD, ORCA-2-JSON               
  Dimitrios Liakos       : Extrapolation schemes; Compound Job, initial MDCI parallelization 
  Dimitrios Manganas     : Further ROCIS development; embedding schemes. LFT, Crystal Embedding 
  Dimitrios Pantazis     : SARC Basis sets                               
  Anastasios Papadopoulos: AUTO-CI, single reference methods and gradients 
  Taras Petrenko         : pre 6.0 DFT Hessian and TD-DFT gradient, (ASA, deprecated), ECA, 1-Electron XAS/XES, NRVS 
  Peter Pinski           : DLPNO-MP2, DLPNO-MP2 Gradient                 
  Christoph Reimann      : Effective Core Potentials                     
  Marius Retegan         : Local ZFS, SOC                                
  Christoph Riplinger    : Optimizer, TS searches, QM/MM, DLPNO-CCSD(T), (RO)-DLPNO pert. Triples 
  Michael Roemelt        : Original ROCIS implementation                 
  Masaaki Saitow         : Open-shell DLPNO-CCSD energy and density      
  Barbara Sandhoefer     : DKH picture change effects                    
  Kantharuban Sivalingam : CASSCF convergence/infrastructure, NEVPT2 and variants, FIC-MRCI 
  Bernardo de Souza      : ESD, SOC TD-DFT                               
  Georgi L. Stoychev     : AutoAux, RI-MP2 NMR, DLPNO-MP2 response, X2C  
  Van Anh Tran           : RI-MP2 g-tensors                              
  Willem Van den Heuvel  : Paramagnetic NMR                              
  Zikuan Wang            : NOTCH, Electric field optimization            
  Frank Wennmohs         : Technical directorship and infrastructure     
  Hang Xu                : AUTO-CI-Response properties                   
                                                                         
[FACCTs GmbH]                                                            
  Markus Bursch, Miquel Garcia-Rates, Christoph Riplinger, Bernardo de Souza, Georgi L. Stoychev 
                                                                 
  APM, Basis sets (HGBS, AHGBS, def-TZVP (Ac-Lr), def2-XVPD (La-Lu)), CI-OPT, improved COSX, DLPNO-Multilevel,           
  DOCKER, DRACO, updates on ESD, GOAT, IRC, LR-CPCM, MBIS, meta-GGA TD-DFT gradient, ML-optimized integration grids, 
  MM, NACMEs, nearIR, NEB, NEB-TS, NL-DFT gradient (VV10), 2- and 3-layer-ONIOM, interface openCOSMO-RS, QMMM,   
  Crystal-QMMM, SF, symmetry and pop. for TD-DFT, r2SCAN hybrids, SOLVATOR                                   
                                                                         
[Other institutions]                                                     
  V. Asgeirsson          : NEB                                           
  Christoph Bannwarth    : sTDA-DFT, sTD-DFT, PBEh-3c, B97-3c, D3        
  Sebastian Ehlert       : rSCAN, r2SCAN, r2SCAN-3c, D4, dhf basis sets  
  Marvin Friede          : D4 for Fr, Ra, Ac-Lr                          
  Lars Goerigk           : TD-DFT with DH, B97 family of functionals     
  Stefan Grimme          : VdW corrections, initial TS optimization, DFT functionals, gCP, sTDA/sTD-DF 
  Waldemar Hujo          : DFT-NL                                        
  H. Jonsson             : NEB                                           
  Holger Kruse           : gCP                                           
  Marcel Mueller         : wB97X-3c, vDZP basis set                      
  Hagen Neugebauer       : wr2SCAN                                       
  Tobias Risthaus        : range-separated hybrid DFT                    
  Lukas Wittmann         : regularized MP2, r2SCAN double-hybrids, wr2SCAN        
                                                                         
We gratefully acknowledge several colleagues who have allowed us to      
interface, adapt or use parts of their codes:                            
  Ed Valeev, F. Pavosevic, A. Kumar             : LibInt (2-el integral package), F12 methods 
  Garnet Chan, S. Sharma, J. Yang, R. Olivares  : DMRG                   
  Ulf Ekstrom                                   : XCFun DFT Library      
  Mihaly Kallay                                 : mrcc  (arbitrary order and MRCC methods)
  Frank Weinhold                                : gennbo (NPA and NBO analysis)           
  Simon Mueller                                 : openCOSMO-RS                            
  Christopher J. Cramer and Donald G. Truhlar   : smd solvation model                     
  S Lehtola, MJT Oliveira, MAL Marques          : LibXC Library                           
  Liviu Ungur et al                             : ANISO software                          


 Your calculation uses the libint2 library for the computation of 2-el integrals
 For citations please refer to: http://libint.valeyev.net

 Your ORCA version has been built with support for libXC version: 6.2.2
 For citations please refer to: https://libxc.gitlab.io

 This ORCA versions uses:
   CBLAS   interface :  Fast vector & matrix operations
   LAPACKE interface :  Fast linear algebra routines
   SCALAPACK package :  Parallel linear algebra routines
   Shared memory     :  Shared parallel matrices
   BLAS/LAPACK       :  OpenBLAS 0.3.27  USE64BITINT DYNAMIC_ARCH NO_AFFINITY Zen SINGLE_THREADED
        Core in use  :  Zen
   Copyright (c) 2011-2014, The OpenBLAS Project


Your calculation utilizes the geometrical counterpoise correction gCP
Please cite in your paper:
H.Kruse, S. Grimme J.Chem.Phys., 136, (2012), 154101 
   

Your calculation utilizes the atom-pairwise dispersion correction
based on EEQ partial charges (D4)


================================================================================

----- Orbital basis set information -----
Your calculation utilizes the basis: def2-SV(P)
   F. Weigend and R. Ahlrichs, Phys. Chem. Chem. Phys. 7, 3297 (2005).

----- AuxJ basis set information -----
Your calculation utilizes the auxiliary basis: def2/J
   F. Weigend, Phys. Chem. Chem. Phys. 8, 1057 (2006).

================================================================================
                                        WARNINGS
                       Please study these warnings very carefully!
================================================================================


================================================================================
                                       INPUT FILE
================================================================================
NAME = sp.inp
|  1> ! pbe def2-sv(p) def2/J RI DEFGRID1 loosescf d4 GCP(DFT/SV(P)) printgap
|  2> %output
|  3>     printlevel normal
|  4> end
|  5> * xyz 0 1
|  6> C -3.6975840254 0.1508739904 -0.2907395125
|  7> C -2.2608141007 0.1106879597 0.2203880014
|  8> H -2.2772581344 -0.0611548347 1.302518872
|  9> C -1.533627667 1.424661593 -0.0563105259
| 10> C -0.0867684455 1.3783657143 0.4262602827
| 11> C 0.6898613406 0.2351559017 -0.2506891726
| 12> H 0.6399359102 0.3872480294 -1.3348295856
| 13> C -0.0691490688 -1.0349585832 0.0900981965
| 14> O 0.3722318114 -1.9229023272 0.7751923819
| 15> C -1.484604722 -1.0406867287 -0.435493576
| 16> C 2.1652348346 0.1408704301 0.1722914163
| 17> C 2.8828810391 -0.8868148265 -0.7033945132
| 18> C 2.8889564843 1.482630745 0.0783540597
| 19> H -4.2500721106 0.9533701308 0.1926367858
| 20> H -3.7152979443 0.3205026164 -1.3654402014
| 21> H -4.2045449037 -0.7882303832 -0.0827263702
| 22> H -1.5523912073 1.6273121763 -1.1303981166
| 23> H -2.0553664804 2.2431057073 0.4445817177
| 24> H 0.3926396601 2.3308414386 0.2002630655
| 25> H -0.061238191 1.2336208481 1.5089635269
| 26> H -1.4779134024 -0.9011201601 -1.5182404799
| 27> H -1.9542131865 -1.9977138412 -0.2031083603
| 28> H 2.1964742236 -0.2084054642 1.209324052
| 29> H 2.8760496373 -0.5704725374 -1.7453916877
| 30> H 2.4011525405 -1.8573783884 -0.6289521114
| 31> H 3.9171011456 -0.9962386011 -0.3859362541
| 32> H 3.9529279715 1.3368673317 0.250307609
| 33> H 2.5263415987 2.1880483453 0.8210653177
| 34> H 2.7622003875 1.9175319828 -0.9115077911
| 35> *
| 36> 
| 37>                          ****END OF INPUT****
================================================================================

                       ****************************
                       * Single Point Calculation *
                       ****************************

---------------------------------
CARTESIAN COORDINATES (ANGSTROEM)
---------------------------------
  C     -3.697584    0.150874   -0.290740
  C     -2.260814    0.110688    0.220388
  H     -2.277258   -0.061155    1.302519
  C     -1.533628    1.424662   -0.056311
  C     -0.086768    1.378366    0.426260
  C      0.689861    0.235156   -0.250689
  H      0.639936    0.387248   -1.334830
  C     -0.069149   -1.034959    0.090098
  O      0.372232   -1.922902    0.775192
  C     -1.484605   -1.040687   -0.435494
  C      2.165235    0.140870    0.172291
  C      2.882881   -0.886815   -0.703395
  C      2.888956    1.482631    0.078354
  H     -4.250072    0.953370    0.192637
  H     -3.715298    0.320503   -1.365440
  H     -4.204545   -0.788230   -0.082726
  H     -1.552391    1.627312   -1.130398
  H     -2.055366    2.243106    0.444582
  H      0.392640    2.330841    0.200263
  H     -0.061238    1.233621    1.508964
  H     -1.477913   -0.901120   -1.518240
  H     -1.954213   -1.997714   -0.203108
  H      2.196474   -0.208405    1.209324
  H      2.876050   -0.570473   -1.745392
  H      2.401153   -1.857378   -0.628952
  H      3.917101   -0.996239   -0.385936
  H      3.952928    1.336867    0.250308
  H      2.526342    2.188048    0.821065
  H      2.762200    1.917532   -0.911508

----------------------------
CARTESIAN COORDINATES (A.U.)
----------------------------
  NO LB      ZA    FRAG     MASS         X           Y           Z
   0 C     6.0000    0    12.011   -6.987421    0.285111   -0.549418
   1 C     6.0000    0    12.011   -4.272319    0.209170    0.416473
   2 H     1.0000    0     1.008   -4.303394   -0.115566    2.461404
   3 C     6.0000    0    12.011   -2.898136    2.692220   -0.106411
   4 C     6.0000    0    12.011   -0.163969    2.604734    0.805515
   5 C     6.0000    0    12.011    1.303649    0.444380   -0.473734
   6 H     1.0000    0     1.008    1.209304    0.731793   -2.522462
   7 C     6.0000    0    12.011   -0.130673   -1.955788    0.170261
   8 O     8.0000    0    15.999    0.703416   -3.633759    1.464901
   9 C     6.0000    0    12.011   -2.805496   -1.966613   -0.822964
  10 C     6.0000    0    12.011    4.091701    0.266207    0.325584
  11 C     6.0000    0    12.011    5.447856   -1.675837   -1.329223
  12 C     6.0000    0    12.011    5.459337    2.801766    0.148068
  13 H     1.0000    0     1.008   -8.031472    1.801608    0.364031
  14 H     1.0000    0     1.008   -7.020896    0.605662   -2.580308
  15 H     1.0000    0     1.008   -7.945438   -1.489540   -0.156330
  16 H     1.0000    0     1.008   -2.933594    3.075174   -2.136143
  17 H     1.0000    0     1.008   -3.884080    4.238855    0.840138
  18 H     1.0000    0     1.008    0.741981    4.404652    0.378442
  19 H     1.0000    0     1.008   -0.115723    2.331206    2.851528
  20 H     1.0000    0     1.008   -2.792852   -1.702870   -2.869059
  21 H     1.0000    0     1.008   -3.692928   -3.775132   -0.383819
  22 H     1.0000    0     1.008    4.150735   -0.393829    2.285291
  23 H     1.0000    0     1.008    5.434946   -1.078037   -3.298312
  24 H     1.0000    0     1.008    4.537521   -3.509936   -1.188547
  25 H     1.0000    0     1.008    7.402248   -1.882618   -0.729314
  26 H     1.0000    0     1.008    7.469951    2.526313    0.473013
  27 H     1.0000    0     1.008    4.774094    4.134812    1.551589
  28 H     1.0000    0     1.008    5.219802    3.623610   -1.722500

--------------------------------
INTERNAL COORDINATES (ANGSTROEM)
--------------------------------
 C      0   0   0     0.000000000000     0.00000000     0.00000000
 C      1   0   0     1.525507806945     0.00000000     0.00000000
 H      2   1   0     1.095813658127   108.71542972     0.00000000
 C      2   1   3     1.527052354497   111.41522901   240.20184617
 C      4   2   1     1.525915954611   111.59977435   181.23115756
 C      5   4   2     1.538942190374   111.21889941    58.53562685
 H      6   5   4     1.095894611269   108.00352248    57.82276554
 C      6   5   4     1.518362156163   105.68820887   301.99290427
 O      8   6   5     1.205244878348   124.11061083   245.51100799
 C      8   6   5     1.509898747978   113.18274335    61.40382645
 C      6   5   4     1.537702596583   114.12607400   179.10365636
 C     11   6   5     1.529045096977   109.51141619   188.15786763
 C     11   6   5     1.527389274498   112.57184767   310.14146699
 H      1   2   3     1.087610125644   110.42374635    60.07586632
 H      1   2   3     1.088149449480   110.50881472   180.00379656
 H      1   2   3     1.087288289283   110.62723577   300.08972052
 H      4   2   1     1.093198738497   109.23019353   302.36179292
 H      4   2   1     1.092224884050   109.52424128    60.05318827
 H      5   4   2     1.090007742761   108.96270147   179.49859279
 H      5   4   2     1.092634058222   109.84945977   297.76558172
 H     10   8   6     1.091725450255   109.81619214    57.39096109
 H     10   8   6     1.091070984156   109.43126057   177.03275577
 H     11   6   5     1.094717423480   107.90992147    70.42294842
 H     12  11   6     1.088979900453   110.47536428    62.78249708
 H     12  11   6     1.086092834539   110.68247186   302.19804762
 H     12  11   6     1.087365870996   110.29402851   182.52277423
 H     13  11   6     1.087589224546   109.63822739   187.94624436
 H     13  11   6     1.086611043029   111.72378836    68.52469553
 H     13  11   6     1.088592062430   110.59166703   307.09385597

---------------------------
INTERNAL COORDINATES (A.U.)
---------------------------
 C      0   0   0     0.000000000000     0.00000000     0.00000000
 C      1   0   0     2.882791970286     0.00000000     0.00000000
 H      2   1   0     2.070787707670   108.71542972     0.00000000
 C      2   1   3     2.885710742159   111.41522901   240.20184617
 C      4   2   1     2.883563257596   111.59977435   181.23115756
 C      5   4   2     2.908179275744   111.21889941    58.53562685
 H      6   5   4     2.070940686939   108.00352248    57.82276554
 C      6   5   4     2.869288647259   105.68820887   301.99290427
 O      8   6   5     2.277582744389   124.11061083   245.51100799
 C      8   6   5     2.853295123630   113.18274335    61.40382645
 C      6   5   4     2.905836782962   114.12607400   179.10365636
 C     11   6   5     2.889476479702   109.51141619   188.15786763
 C     11   6   5     2.886347428689   112.57184767   310.14146699
 H      1   2   3     2.055285277947   110.42374635    60.07586632
 H      1   2   3     2.056304452294   110.50881472   180.00379656
 H      1   2   3     2.054677095364   110.62723577   300.08972052
 H      4   2   1     2.065846225708   109.23019353   302.36179292
 H      4   2   1     2.064005907509   109.52424128    60.05318827
 H      5   4   2     2.059816117671   108.96270147   179.49859279
 H      5   4   2     2.064779134635   109.84945977   297.76558172
 H     10   8   6     2.063062114413   109.81619214    57.39096109
 H     10   8   6     2.061825352722   109.43126057   177.03275577
 H     11   6   5     2.068716124409   107.90992147    70.42294842
 H     12  11   6     2.057873777200   110.47536428    62.78249708
 H     12  11   6     2.052418013293   110.68247186   302.19804762
 H     12  11   6     2.054823703556   110.29402851   182.52277423
 H     13  11   6     2.055245780596   109.63822739   187.94624436
 H     13  11   6     2.053397285419   111.72378836    68.52469553
 H     13  11   6     2.057140869553   110.59166703   307.09385597

---------------------
BASIS SET INFORMATION
---------------------
There are 3 groups of distinct atoms

 Group   1 Type C   : 7s4p1d contracted to 3s2p1d pattern {511/31/1}
 Group   2 Type H   : 4s contracted to 2s pattern {31}
 Group   3 Type O   : 7s4p1d contracted to 3s2p1d pattern {511/31/1}

Atom   0C    basis set group =>   1
Atom   1C    basis set group =>   1
Atom   2H    basis set group =>   2
Atom   3C    basis set group =>   1
Atom   4C    basis set group =>   1
Atom   5C    basis set group =>   1
Atom   6H    basis set group =>   2
Atom   7C    basis set group =>   1
Atom   8O    basis set group =>   3
Atom   9C    basis set group =>   1
Atom  10C    basis set group =>   1
Atom  11C    basis set group =>   1
Atom  12C    basis set group =>   1
Atom  13H    basis set group =>   2
Atom  14H    basis set group =>   2
Atom  15H    basis set group =>   2
Atom  16H    basis set group =>   2
Atom  17H    basis set group =>   2
Atom  18H    basis set group =>   2
Atom  19H    basis set group =>   2
Atom  20H    basis set group =>   2
Atom  21H    basis set group =>   2
Atom  22H    basis set group =>   2
Atom  23H    basis set group =>   2
Atom  24H    basis set group =>   2
Atom  25H    basis set group =>   2
Atom  26H    basis set group =>   2
Atom  27H    basis set group =>   2
Atom  28H    basis set group =>   2
---------------------------------
AUXILIARY/J BASIS SET INFORMATION
---------------------------------
There are 3 groups of distinct atoms

 Group   1 Type C   : 12s5p4d2f1g contracted to 6s4p3d1f1g pattern {711111/2111/211/2/1}
 Group   2 Type H   : 5s2p1d contracted to 3s1p1d pattern {311/2/1}
 Group   3 Type O   : 12s5p4d2f1g contracted to 6s4p3d1f1g pattern {711111/2111/211/2/1}

Atom   0C    basis set group =>   1
Atom   1C    basis set group =>   1
Atom   2H    basis set group =>   2
Atom   3C    basis set group =>   1
Atom   4C    basis set group =>   1
Atom   5C    basis set group =>   1
Atom   6H    basis set group =>   2
Atom   7C    basis set group =>   1
Atom   8O    basis set group =>   3
Atom   9C    basis set group =>   1
Atom  10C    basis set group =>   1
Atom  11C    basis set group =>   1
Atom  12C    basis set group =>   1
Atom  13H    basis set group =>   2
Atom  14H    basis set group =>   2
Atom  15H    basis set group =>   2
Atom  16H    basis set group =>   2
Atom  17H    basis set group =>   2
Atom  18H    basis set group =>   2
Atom  19H    basis set group =>   2
Atom  20H    basis set group =>   2
Atom  21H    basis set group =>   2
Atom  22H    basis set group =>   2
Atom  23H    basis set group =>   2
Atom  24H    basis set group =>   2
Atom  25H    basis set group =>   2
Atom  26H    basis set group =>   2
Atom  27H    basis set group =>   2
Atom  28H    basis set group =>   2
------------------------------------------------------------------------------
                             ORCA STARTUP CALCULATIONS
                           -- RI-GTO INTEGRALS CHOSEN --
------------------------------------------------------------------------------
------------------------------------------------------------------------------
                   ___                                                        
                  /   \      - P O W E R E D   B Y -                         
                 /     \                                                     
                 |  |  |   _    _      __       _____    __    __             
                 |  |  |  | |  | |    /  \     |  _  \  |  |  /  |          
                  \  \/   | |  | |   /    \    | | | |  |  | /  /          
                 / \  \   | |__| |  /  /\  \   | |_| |  |  |/  /          
                |  |  |   |  __  | /  /__\  \  |    /   |      \           
                |  |  |   | |  | | |   __   |  |    \   |  |\   \          
                \     /   | |  | | |  |  |  |  | |\  \  |  | \   \       
                 \___/    |_|  |_| |__|  |__|  |_| \__\ |__|  \__/        
                                                                              
                      - O R C A' S   B I G   F R I E N D -                    
                                      &                                       
                       - I N T E G R A L  F E E D E R -                       
                                                                              
 v1 FN, 2020, v2 2021, v3 2022-2024                                           
------------------------------------------------------------------------------


----------------------
SHARK INTEGRAL PACKAGE
----------------------

Number of atoms                             ...     29
Number of basis functions                   ...    190
Number of shells                            ...    102
Maximum angular momentum                    ...      2
Integral batch strategy                     ... SHARK/LIBINT Hybrid
RI-J (if used) integral strategy            ... SPLIT-RIJ (Revised 2003 algorithm where possible)
Printlevel                                  ...      1
Contraction scheme used                     ... SEGMENTED contraction
Prescreening option                         ... SCHWARTZ
   Thresh                                   ... 1.000e-09
   Tcut                                     ... 1.000e-10
   Tpresel                                  ... 1.000e-10 
Coulomb Range Separation                    ... NOT USED
Exchange Range Separation                   ... NOT USED
Multipole approximations                    ... NOT USED
Finite Nucleus Model                        ... NOT USED
CABS basis                                  ... NOT available
Auxiliary Coulomb fitting basis             ... AVAILABLE
   # of basis functions in Aux-J            ...    737
   # of shells in Aux-J                     ...    255
   Maximum angular momentum in Aux-J        ...      4
Auxiliary J/K fitting basis                 ... NOT available
Auxiliary Correlation fitting basis         ... NOT available
Auxiliary 'external' fitting basis          ... NOT available

Checking pre-screening integrals            ... done (  0.0 sec) Dimension = 102
Check shell pair data                       ... done (  0.0 sec)
Shell pair information
Shell pair cut-off parameter TPreSel        ...   1.0e-10
Total number of shell pairs                 ...      5253
Shell pairs after pre-screening             ...      4782
Total number of primitive shell pairs       ...     21107
Primitive shell pairs kept                  ...     12944
          la=0 lb=0:   2166 shell pairs
          la=1 lb=0:   1430 shell pairs
          la=1 lb=1:    247 shell pairs
          la=2 lb=0:    657 shell pairs
          la=2 lb=1:    225 shell pairs
          la=2 lb=2:     57 shell pairs

Calculating one electron integrals          ... done (  0.0 sec)
Calculating RI/J V-Matrix + Cholesky decomp.... done (  0.0 sec)
Calculating Nuclear repulsion               ... done (  0.0 sec) ENN=    665.587020819906 Eh

Diagonalization of the overlap matrix:
Smallest eigenvalue                        ... 8.669e-04
Time for diagonalization                   ...    0.005 sec
Threshold for overlap eigenvalues          ... 1.000e-07
Number of eigenvalues below threshold      ... 0
Time for construction of square roots      ...    0.005 sec
Total time needed                          ...    0.011 sec

-------------------
DFT GRID GENERATION
-------------------

General Integration Accuracy     IntAcc      ... 4.159
Radial Grid Type                 RadialGrid  ... OptM3 with GC (2021)
Angular Grid (max. ang.)         AngularGrid ... 3 (Lebedev-194)
Angular grid pruning method      GridPruning ... 4 (adaptive)
Weight generation scheme         WeightScheme... mBecke (2022)
Basis function cutoff            BFCut       ... 1.0000e-10
Integration weight cutoff        WCut        ... 1.0000e-14
Partially contracted basis set               ... off
Rotationally invariant grid construction     ... off
Angular grids for H and He will be reduced by one unit

Total number of grid points                  ...    60223
Total number of batches                      ...      952
Average number of points per batch           ...       63
Average number of grid points per atom       ...     2077
Initializing property integral containers    ... done (  0.0 sec)

SHARK setup successfully completed in   0.7 seconds

Maximum memory used throughout the entire STARTUP-calculation: 31.4 MB
-------------------------------------------------------------------------------
                                 ORCA GUESS
                   Start orbitals & Density for SCF / CASSCF
-------------------------------------------------------------------------------

------------
SCF SETTINGS
------------
Hamiltonian:
 Density Functional     Method          .... DFT(GTOs)
 Exchange Functional    Exchange        .... PBE
   PBE kappa parameter   XKappa         ....  0.804000
   PBE mue parameter    XMuePBE         ....  0.219520
 Correlation Functional Correlation     .... PBE
   PBE beta parameter  CBetaPBE         ....  0.066725
 LDA part of GGA corr.  LDAOpt          .... PW91-LDA
 Gradients option       PostSCFGGA      .... off
   NL short-range parameter             ....  6.400000
 RI-approximation to the Coulomb term is turned on
   Number of AuxJ basis functions       .... 737


General Settings:
 Integral files         IntName         .... sp
 Hartree-Fock type      HFTyp           .... RHF
 Total Charge           Charge          ....    0
 Multiplicity           Mult            ....    1
 Number of Electrons    NEL             ....   86
 Basis Dimension        Dim             ....  190
 Nuclear Repulsion      ENuc            ....    665.5870208199 Eh

Convergence Acceleration:
 AO-DIIS                CNVDIIS         .... on
   Start iteration      DIISMaxIt       ....    12
   Startup error        DIISStart       ....  0.200000
   # of expansion vecs  DIISMaxEq       ....     5
   Bias factor          DIISBfac        ....   1.050
   Max. coefficient     DIISMaxC        ....  10.000
 MO-DIIS                CNVKDIIS        .... off
 Trust-Rad. Augm. Hess. CNVTRAH         .... auto
   Auto Start mean grad. ratio tolernc. ....  1.125000
   Auto Start start iteration           ....    50
   Auto Start num. interpolation iter.  ....    10
   Max. Number of Micro iterations      ....    24
   Max. Number of Macro iterations      .... Maxiter - #DIIS iter
   Number of Davidson start vectors     ....     2
   Converg. threshold    (grad. norm)   ....   1.000e-04
   Grad. Scal. Fac. for Micro threshold ....   0.100
   Minimum threshold for Micro iter.    ....   1.000e-02
   NR start threshold (gradient norm)   ....   1.000e-04
   Initial trust radius                 ....   0.400
   Minimum AH scaling param. (alpha)    ....   1.000
   Maximum AH scaling param. (alpha)    .... 1000.000
   Quad. conv. algorithm                .... NR
   White noise on init. David. guess    .... on
   Maximum white noise                  ....   0.010
   Pseudo random numbers                .... off
   Inactive MOs                         .... canonical
   Orbital update algorithm             .... Taylor
   Preconditioner                       .... Diag
   Full preconditioner red. dimension   ....   250
 SOSCF                  CNVSOSCF        .... on
   Start iteration      SOSCFMaxIt      ....   150
   Startup grad/error   SOSCFStart      ....  0.003300
   Hessian update       SOSCFHessUp     .... L-BFGS
 Level Shifting         CNVShift        .... on
   Level shift para.    LevelShift      ....    0.2500
   Turn off err/grad.   ShiftErr        ....    0.0010
 Zerner damping         CNVZerner       .... off
 Static damping         CNVDamp         .... on
   Fraction old density DampFac         ....    0.7000
   Max. Damping (<1)    DampMax         ....    0.9800
   Min. Damping (>=0)   DampMin         ....    0.0000
   Turn off err/grad.   DampErr         ....    0.1000

SCF Procedure:
 Maximum # iterations   MaxIter         ....   125
 SCF integral mode      SCFMode         .... Direct
   Integral package                     .... SHARK and LIBINT hybrid scheme
 Reset frequency        DirectResetFreq ....    20
 Integral Threshold     Thresh          ....  1.000e-09 Eh
 Primitive CutOff       TCut            ....  1.000e-10 Eh

Convergence Tolerance:
 Convergence Check Mode ConvCheckMode   .... Total+1el-Energy
 Convergence forced     ConvForced      .... 0
 Energy Change          TolE            ....  1.000e-05 Eh
 1-El. energy change                    ....  1.000e-02 Eh
 Orbital Gradient       TolG            ....  1.000e-04
 Orbital Rotation angle TolX            ....  1.000e-04
 DIIS Error             TolErr          ....  5.000e-04

------------------------------
INITIAL GUESS: MODEL POTENTIAL
------------------------------
Loading Hartree-Fock densities                     ... done
Calculating cut-offs                               ... done
Initializing the effective Hamiltonian             ... done
Setting up the integral package (SHARK)            ... done
Starting the Coulomb interaction                   ... done (   0.2 sec)
Making the grid                                    ... done (   0.3 sec)
Mapping shells                                     ... done
Starting the XC term evaluation                    ... done (   0.2 sec)
  promolecular density results
     # of electrons  =     85.989632409
     EX              =    -64.663593090
     EC              =     -2.852262679
     EX+EC           =    -67.515855769
Transforming the Hamiltonian                       ... done (   0.0 sec)
Diagonalizing the Hamiltonian                      ... done (   0.0 sec)
Back transforming the eigenvectors                 ... done (   0.0 sec)
Now organizing SCF variables                       ... done
                      ------------------
                      INITIAL GUESS DONE (   0.8 sec)
                      ------------------
             **** ENERGY FILE WAS UPDATED (sp.en.tmp) ****
Finished Guess after   0.8 sec
Maximum memory used throughout the entire GUESS-calculation: 24.3 MB

-------------------------------------------------------------------------------------------
                                      ORCA LEAN-SCF
                              memory conserving SCF solver
-------------------------------------------------------------------------------------------

----------------------------------------D-I-I-S--------------------------------------------
Iteration    Energy (Eh)           Delta-E    RMSDP     MaxDP     DIISErr   Damp  Time(sec)
-------------------------------------------------------------------------------------------
               ***  Starting incremental Fock matrix formation  ***
    1    -465.8171116255903144     0.00e+00  4.55e-03  1.33e-01  2.11e-01  0.700   1.0
    2    -465.9754136958870276    -1.58e-01  3.07e-03  7.71e-02  7.74e-02  0.700   0.9
                               ***Turning on AO-DIIS***
    3    -466.0279200979102825    -5.25e-02  1.19e-03  1.48e-02  2.35e-02  0.700   0.8
    4    -466.0595349096558948    -3.16e-02  1.70e-03  2.34e-02  1.05e-02  0.000   0.9
    5    -466.1322587299964653    -7.27e-02  5.51e-04  1.05e-02  8.42e-03  0.000   0.8
                              *** Initializing SOSCF ***
---------------------------------------S-O-S-C-F--------------------------------------
Iteration    Energy (Eh)           Delta-E    RMSDP     MaxDP     MaxGrad    Time(sec)
--------------------------------------------------------------------------------------
    6    -466.1333027674795630    -1.04e-03  1.94e-04  2.36e-03  2.18e-03     0.9
               *** Restarting incremental Fock matrix formation ***
    7    -466.1333873454059358    -8.46e-05  1.66e-04  4.63e-03  4.52e-04     0.9
    8    -466.1333774058400650     9.94e-06  8.61e-05  3.45e-03  9.36e-04     0.8
                 **** Energy Check signals convergence ****

               *****************************************************
               *                     SUCCESS                       *
               *           SCF CONVERGED AFTER   8 CYCLES          *
               *****************************************************

             **** ENERGY FILE WAS UPDATED (sp.en.tmp) ****

----------------
TOTAL SCF ENERGY
----------------

Total Energy       :       -466.13337740584006 Eh          -12684.13405 eV

Components:
Nuclear Repulsion  :        665.58702081990623 Eh           18111.54361 eV
Electronic Energy  :      -1131.72039822574652 Eh          -30795.67766 eV
One Electron Energy:      -1950.56099049155227 Eh          -53077.46296 eV
Two Electron Energy:        818.84059226580587 Eh           22281.78530 eV

Virial components:
Potential Energy   :       -928.07421318502156 Eh          -25254.18324 eV
Kinetic Energy     :        461.94083577918150 Eh           12570.04919 eV
Virial Ratio       :          2.00907592769881

DFT components:
N(Alpha)           :       43.000019993134 electrons
N(Beta)            :       43.000019993134 electrons
N(Total)           :       86.000039986268 electrons
E(X)               :      -66.136839214073 Eh       
E(C)               :       -2.856914405925 Eh       
E(XC)              :      -68.993753619998 Eh       

---------------
SCF CONVERGENCE
---------------

  Last Energy change         ...   -9.9396e-06  Tolerance :   1.0000e-05
  Last MAX-Density change    ...    3.4508e-03  Tolerance :   1.0000e-03
  Last RMS-Density change    ...    8.6135e-05  Tolerance :   1.0000e-04
  Last DIIS Error            ...    2.1840e-03  Tolerance :   5.0000e-04
  Last Orbital Gradient      ...    9.3563e-04  Tolerance :   1.0000e-04
  Last Orbital Rotation      ...    1.0645e-03  Tolerance :   1.0000e-04


----------------
ORBITAL ENERGIES
----------------

  NO   OCC          E(Eh)            E(eV) 
   0   2.0000     -18.734862      -509.8015 
   1   2.0000      -9.967161      -271.2202 
   2   2.0000      -9.909007      -269.6378 
   3   2.0000      -9.898213      -269.3441 
   4   2.0000      -9.895884      -269.2807 
   5   2.0000      -9.892428      -269.1867 
   6   2.0000      -9.890784      -269.1419 
   7   2.0000      -9.888582      -269.0820 
   8   2.0000      -9.880841      -268.8714 
   9   2.0000      -9.871784      -268.6249 
  10   2.0000      -9.863882      -268.4099 
  11   2.0000      -0.938541       -25.5390 
  12   2.0000      -0.769408       -20.9367 
  13   2.0000      -0.728976       -19.8365 
  14   2.0000      -0.679070       -18.4784 
  15   2.0000      -0.655841       -17.8463 
  16   2.0000      -0.613438       -16.6925 
  17   2.0000      -0.606161       -16.4945 
  18   2.0000      -0.547819       -14.9069 
  19   2.0000      -0.521647       -14.1947 
  20   2.0000      -0.502907       -13.6848 
  21   2.0000      -0.475691       -12.9442 
  22   2.0000      -0.440816       -11.9952 
  23   2.0000      -0.418350       -11.3839 
  24   2.0000      -0.399879       -10.8813 
  25   2.0000      -0.395739       -10.7686 
  26   2.0000      -0.391521       -10.6538 
  27   2.0000      -0.381883       -10.3916 
  28   2.0000      -0.372272       -10.1300 
  29   2.0000      -0.353141        -9.6095 
  30   2.0000      -0.349942        -9.5224 
  31   2.0000      -0.349551        -9.5118 
  32   2.0000      -0.335867        -9.1394 
  33   2.0000      -0.332866        -9.0578 
  34   2.0000      -0.317432        -8.6378 
  35   2.0000      -0.308300        -8.3893 
  36   2.0000      -0.306538        -8.3413 
  37   2.0000      -0.295266        -8.0346 
  38   2.0000      -0.290999        -7.9185 
  39   2.0000      -0.282758        -7.6942 
  40   2.0000      -0.273551        -7.4437 
  41   2.0000      -0.267434        -7.2773 
  42   2.0000      -0.189313        -5.1515 
  43   0.0000      -0.047789        -1.3004 
  44   0.0000       0.034883         0.9492 
  45   0.0000       0.039514         1.0752 
  46   0.0000       0.045541         1.2392 
  47   0.0000       0.066481         1.8090 
  48   0.0000       0.078450         2.1347 
  49   0.0000       0.084214         2.2916 
  50   0.0000       0.089461         2.4344 
  51   0.0000       0.097085         2.6418 
  52   0.0000       0.104347         2.8394 
  53   0.0000       0.112681         3.0662 
*Only the first 10 virtual orbitals were printed.

                    ********************************
                    * MULLIKEN POPULATION ANALYSIS *
                    ********************************

-----------------------
MULLIKEN ATOMIC CHARGES
-----------------------
   0 C :   -0.194314
   1 C :   -0.236127
   2 H :    0.079009
   3 C :   -0.113079
   4 C :   -0.101293
   5 C :   -0.173747
   6 H :    0.069388
   7 C :    0.006269
   8 O :   -0.154893
   9 C :   -0.039795
  10 C :   -0.115082
  11 C :   -0.252732
  12 C :   -0.238755
  13 H :    0.101089
  14 H :    0.092233
  15 H :    0.102884
  16 H :    0.071236
  17 H :    0.086221
  18 H :    0.098179
  19 H :    0.082595
  20 H :    0.082270
  21 H :    0.082775
  22 H :    0.073809
  23 H :    0.083706
  24 H :    0.116188
  25 H :    0.097553
  26 H :    0.098609
  27 H :    0.107559
  28 H :    0.088244
Sum of atomic charges:    0.0000000

--------------------------------
MULLIKEN REDUCED ORBITAL CHARGES
--------------------------------
  0 C s       :     3.050774  s :     3.050774
      pz      :     1.051302  p :     3.114566
      px      :     1.011097
      py      :     1.052167
      dz2     :     0.009058  d :     0.028974
      dxz     :     0.004145
      dyz     :     0.002782
      dx2y2   :     0.004147
      dxy     :     0.008842

  1 C s       :     3.117128  s :     3.117128
      pz      :     1.044697  p :     3.074615
      px      :     1.022443
      py      :     1.007474
      dz2     :     0.012733  d :     0.044384
      dxz     :     0.005640
      dyz     :     0.005906
      dx2y2   :     0.009789
      dxy     :     0.010316

  2 H s       :     0.920991  s :     0.920991

  3 C s       :     3.011152  s :     3.011152
      pz      :     1.022586  p :     3.065590
      px      :     1.013128
      py      :     1.029877
      dz2     :     0.009805  d :     0.036337
      dxz     :     0.004912
      dyz     :     0.005480
      dx2y2   :     0.007007
      dxy     :     0.009132

  4 C s       :     3.002742  s :     3.002742
      pz      :     1.044485  p :     3.062007
      px      :     1.002123
      py      :     1.015399
      dz2     :     0.011843  d :     0.036544
      dxz     :     0.004819
      dyz     :     0.003332
      dx2y2   :     0.007680
      dxy     :     0.008870

  5 C s       :     3.076423  s :     3.076423
      pz      :     1.027144  p :     3.057530
      px      :     1.001559
      py      :     1.028827
      dz2     :     0.011956  d :     0.039793
      dxz     :     0.005691
      dyz     :     0.003997
      dx2y2   :     0.007878
      dxy     :     0.010271

  6 H s       :     0.930612  s :     0.930612

  7 C s       :     3.147993  s :     3.147993
      pz      :     0.838626  p :     2.752336
      px      :     0.977231
      py      :     0.936479
      dz2     :     0.014027  d :     0.093403
      dxz     :     0.015598
      dyz     :     0.015396
      dx2y2   :     0.027277
      dxy     :     0.021104

  8 O s       :     3.748899  s :     3.748899
      pz      :     1.307781  p :     4.388148
      px      :     1.650944
      py      :     1.429424
      dz2     :     0.003740  d :     0.017845
      dxz     :     0.002210
      dyz     :     0.004931
      dx2y2   :     0.003297
      dxy     :     0.003668

  9 C s       :     2.957508  s :     2.957508
      pz      :     1.026300  p :     3.049481
      px      :     1.011546
      py      :     1.011635
      dz2     :     0.010638  d :     0.032806
      dxz     :     0.003826
      dyz     :     0.003294
      dx2y2   :     0.008114
      dxy     :     0.006934

 10 C s       :     3.076074  s :     3.076074
      pz      :     1.042473  p :     2.996345
      px      :     0.961486
      py      :     0.992386
      dz2     :     0.010906  d :     0.042663
      dxz     :     0.005220
      dyz     :     0.007784
      dx2y2   :     0.009884
      dxy     :     0.008869

 11 C s       :     3.081985  s :     3.081985
      pz      :     1.034566  p :     3.141622
      px      :     1.051026
      py      :     1.056030
      dz2     :     0.010016  d :     0.029124
      dxz     :     0.002683
      dyz     :     0.003617
      dx2y2   :     0.007817
      dxy     :     0.004991

 12 C s       :     3.072080  s :     3.072080
      pz      :     1.051476  p :     3.137473
      px      :     1.048004
      py      :     1.037993
      dz2     :     0.005814  d :     0.029202
      dxz     :     0.001859
      dyz     :     0.009318
      dx2y2   :     0.008086
      dxy     :     0.004126

 13 H s       :     0.898911  s :     0.898911

 14 H s       :     0.907767  s :     0.907767

 15 H s       :     0.897116  s :     0.897116

 16 H s       :     0.928764  s :     0.928764

 17 H s       :     0.913779  s :     0.913779

 18 H s       :     0.901821  s :     0.901821

 19 H s       :     0.917405  s :     0.917405

 20 H s       :     0.917730  s :     0.917730

 21 H s       :     0.917225  s :     0.917225

 22 H s       :     0.926191  s :     0.926191

 23 H s       :     0.916294  s :     0.916294

 24 H s       :     0.883812  s :     0.883812

 25 H s       :     0.902447  s :     0.902447

 26 H s       :     0.901391  s :     0.901391

 27 H s       :     0.892441  s :     0.892441

 28 H s       :     0.911756  s :     0.911756


------------------------
MULLIKEN OVERLAP CHARGES
------------------------
B(  0-C ,  1-C ) :   0.8444 B(  0-C ,  2-H ) :  -0.0694 B(  0-C ,  3-C ) :  -0.1028 
B(  0-C ,  9-C ) :  -0.1040 B(  0-C , 13-H ) :   0.7303 B(  0-C , 14-H ) :   0.7377 
B(  0-C , 15-H ) :   0.7329 B(  1-C ,  2-H ) :   0.6928 B(  1-C ,  3-C ) :   0.8108 
B(  1-C ,  4-C ) :  -0.0915 B(  1-C ,  7-C ) :  -0.0632 B(  1-C ,  9-C ) :   0.7569 
B(  2-H ,  3-C ) :  -0.0634 B(  2-H ,  9-C ) :  -0.0873 B(  3-C ,  4-C ) :   0.8085 
B(  3-C ,  5-C ) :  -0.1165 B(  3-C ,  9-C ) :  -0.1413 B(  3-C , 16-H ) :   0.6793 
B(  3-C , 17-H ) :   0.6548 B(  4-C ,  5-C ) :   0.6963 B(  4-C ,  6-H ) :  -0.0631 
B(  4-C , 10-C ) :  -0.0612 B(  4-C , 18-H ) :   0.6704 B(  4-C , 19-H ) :   0.6631 
B(  5-C ,  6-H ) :   0.5585 B(  5-C ,  7-C ) :   0.1601 B(  5-C ,  8-O ) :  -0.2890 
B(  5-C ,  9-C ) :  -0.5113 B(  5-C , 10-C ) :   0.5247 B(  5-C , 11-C ) :  -0.1057 
B(  5-C , 12-C ) :  -0.1167 B(  5-C , 19-H ) :  -0.0543 B(  5-C , 22-H ) :  -0.0543 
B(  7-C ,  8-O ) :   1.4792 B(  7-C ,  9-C ) :   0.7129 B(  8-O ,  9-C ) :  -0.1723 
B(  9-C , 20-H ) :   0.5811 B(  9-C , 21-H ) :   0.5428 B( 10-C , 11-C ) :   0.8791 
B( 10-C , 12-C ) :   0.8446 B( 10-C , 22-H ) :   0.6725 B( 10-C , 23-H ) :  -0.0513 
B( 11-C , 12-C ) :  -0.1254 B( 11-C , 23-H ) :   0.7382 B( 11-C , 24-H ) :   0.7316 
B( 11-C , 25-H ) :   0.7313 B( 12-C , 22-H ) :  -0.0717 B( 12-C , 26-H ) :   0.7379 
B( 12-C , 27-H ) :   0.7209 B( 12-C , 28-H ) :   0.7252 B( 16-H , 17-H ) :  -0.0625 
B( 18-H , 19-H ) :  -0.0652 B( 23-H , 25-H ) :  -0.0522 B( 27-H , 28-H ) :  -0.0546 



                     *******************************
                     * LOEWDIN POPULATION ANALYSIS *
                     *******************************

----------------------
LOEWDIN ATOMIC CHARGES
----------------------
   0 C :   -0.326852
   1 C :   -0.144860
   2 H :    0.120741
   3 C :   -0.217290
   4 C :   -0.207676
   5 C :   -0.161666
   6 H :    0.125919
   7 C :    0.054851
   8 O :   -0.116744
   9 C :   -0.233665
  10 C :   -0.148028
  11 C :   -0.332157
  12 C :   -0.330361
  13 H :    0.120124
  14 H :    0.117743
  15 H :    0.120904
  16 H :    0.115545
  17 H :    0.120261
  18 H :    0.122962
  19 H :    0.121660
  20 H :    0.128799
  21 H :    0.126431
  22 H :    0.120591
  23 H :    0.111472
  24 H :    0.122592
  25 H :    0.117661
  26 H :    0.119791
  27 H :    0.116442
  28 H :    0.114811

-------------------------------
LOEWDIN REDUCED ORBITAL CHARGES
-------------------------------
  0 C s       :     2.947322  s :     2.947322
      pz      :     1.118959  p :     3.308646
      px      :     1.069119
      py      :     1.120568
      dz2     :     0.021816  d :     0.070884
      dxz     :     0.009851
      dyz     :     0.006927
      dx2y2   :     0.011892
      dxy     :     0.020397

  1 C s       :     2.875438  s :     2.875438
      pz      :     1.082127  p :     3.162503
      px      :     1.040546
      py      :     1.039830
      dz2     :     0.030070  d :     0.106919
      dxz     :     0.012960
      dyz     :     0.013430
      dx2y2   :     0.024389
      dxy     :     0.026069

  2 H s       :     0.879259  s :     0.879259

  3 C s       :     2.906580  s :     2.906580
      pz      :     1.098129  p :     3.221636
      px      :     1.055074
      py      :     1.068432
      dz2     :     0.023928  d :     0.089074
      dxz     :     0.011335
      dyz     :     0.012283
      dx2y2   :     0.018867
      dxy     :     0.022661

  4 C s       :     2.905722  s :     2.905722
      pz      :     1.097025  p :     3.213176
      px      :     1.052072
      py      :     1.064079
      dz2     :     0.027703  d :     0.088777
      dxz     :     0.011497
      dyz     :     0.008092
      dx2y2   :     0.019903
      dxy     :     0.021583

  5 C s       :     2.889890  s :     2.889890
      pz      :     1.071667  p :     3.171375
      px      :     1.041543
      py      :     1.058165
      dz2     :     0.029128  d :     0.100401
      dxz     :     0.012417
      dyz     :     0.010631
      dx2y2   :     0.021354
      dxy     :     0.026871

  6 H s       :     0.874081  s :     0.874081

  7 C s       :     2.880374  s :     2.880374
      pz      :     0.854913  p :     2.844651
      px      :     1.010577
      py      :     0.979162
      dz2     :     0.026345  d :     0.220124
      dxz     :     0.038207
      dyz     :     0.036793
      dx2y2   :     0.067228
      dxy     :     0.051552

  8 O s       :     3.543574  s :     3.543574
      pz      :     1.354786  p :     4.541498
      px      :     1.680699
      py      :     1.506013
      dz2     :     0.004585  d :     0.031673
      dxz     :     0.004348
      dyz     :     0.010150
      dx2y2   :     0.006069
      dxy     :     0.006520

  9 C s       :     2.920889  s :     2.920889
      pz      :     1.086485  p :     3.229091
      px      :     1.061184
      py      :     1.081421
      dz2     :     0.025874  d :     0.083686
      dxz     :     0.010609
      dyz     :     0.007840
      dx2y2   :     0.021085
      dxy     :     0.018278

 10 C s       :     2.873124  s :     2.873124
      pz      :     1.090325  p :     3.170521
      px      :     1.026489
      py      :     1.053707
      dz2     :     0.025752  d :     0.104384
      dxz     :     0.012365
      dyz     :     0.018293
      dx2y2   :     0.025147
      dxy     :     0.022827

 11 C s       :     2.946991  s :     2.946991
      pz      :     1.101567  p :     3.314430
      px      :     1.107583
      py      :     1.105280
      dz2     :     0.022836  d :     0.070736
      dxz     :     0.006926
      dyz     :     0.010108
      dx2y2   :     0.018198
      dxy     :     0.012668

 12 C s       :     2.945928  s :     2.945928
      pz      :     1.118955  p :     3.313117
      px      :     1.108823
      py      :     1.085340
      dz2     :     0.014996  d :     0.071315
      dxz     :     0.004351
      dyz     :     0.021266
      dx2y2   :     0.019474
      dxy     :     0.011228

 13 H s       :     0.879876  s :     0.879876

 14 H s       :     0.882257  s :     0.882257

 15 H s       :     0.879096  s :     0.879096

 16 H s       :     0.884455  s :     0.884455

 17 H s       :     0.879739  s :     0.879739

 18 H s       :     0.877038  s :     0.877038

 19 H s       :     0.878340  s :     0.878340

 20 H s       :     0.871201  s :     0.871201

 21 H s       :     0.873569  s :     0.873569

 22 H s       :     0.879409  s :     0.879409

 23 H s       :     0.888528  s :     0.888528

 24 H s       :     0.877408  s :     0.877408

 25 H s       :     0.882339  s :     0.882339

 26 H s       :     0.880209  s :     0.880209

 27 H s       :     0.883558  s :     0.883558

 28 H s       :     0.885189  s :     0.885189


---------------------------------
LOEWDIN BOND ORDERS (THRESH 0.050000)
---------------------------------
B(  0-C ,  1-C ) :   1.0941 B(  0-C ,  3-C ) :   0.0559 B(  0-C ,  9-C ) :   0.0556 
B(  0-C , 13-H ) :   0.9337 B(  0-C , 14-H ) :   0.9361 B(  0-C , 15-H ) :   0.9347 
B(  1-C ,  2-H ) :   0.8701 B(  1-C ,  3-C ) :   1.0603 B(  1-C ,  4-C ) :   0.0549 
B(  1-C ,  7-C ) :   0.0678 B(  1-C ,  9-C ) :   1.0329 B(  3-C ,  4-C ) :   1.0896 
B(  3-C ,  5-C ) :   0.0531 B(  3-C ,  9-C ) :   0.0508 B(  3-C , 16-H ) :   0.8982 
B(  3-C , 17-H ) :   0.8969 B(  4-C ,  5-C ) :   1.0276 B(  4-C ,  7-C ) :   0.0706 
B(  4-C , 18-H ) :   0.8908 B(  4-C , 19-H ) :   0.8984 B(  5-C ,  6-H ) :   0.8503 
B(  5-C ,  7-C ) :   1.0142 B(  5-C ,  8-O ) :   0.1039 B(  5-C ,  9-C ) :   0.0699 
B(  5-C , 10-C ) :   1.0191 B(  5-C , 11-C ) :   0.0561 B(  5-C , 12-C ) :   0.0510 
B(  7-C ,  8-O ) :   2.2700 B(  7-C ,  9-C ) :   1.0605 B(  7-C , 10-C ) :   0.0530 
B(  8-O ,  9-C ) :   0.1067 B(  9-C , 20-H ) :   0.8821 B(  9-C , 21-H ) :   0.8928 
B( 10-C , 11-C ) :   1.0890 B( 10-C , 12-C ) :   1.0935 B( 10-C , 22-H ) :   0.8680 
B( 11-C , 12-C ) :   0.0572 B( 11-C , 23-H ) :   0.9364 B( 11-C , 24-H ) :   0.9305 
B( 11-C , 25-H ) :   0.9346 B( 12-C , 26-H ) :   0.9318 B( 12-C , 27-H ) :   0.9341 
B( 12-C , 28-H ) :   0.9360 

------------------------------------------
LOEWDIN REDUCED ORBITAL POPULATIONS PER MO
-------------------------------------------
THRESHOLD FOR PRINTING IS 0.1%%
                      0         1         2         3         4         5   
                 -18.73486  -9.96716  -9.90901  -9.89821  -9.89588  -9.89243
                   2.00000   2.00000   2.00000   2.00000   2.00000   2.00000
                  --------  --------  --------  --------  --------  --------
 1 C  s               0.0       0.0      99.6       0.0       0.0       0.0
 3 C  s               0.0       0.0       0.0       0.0       0.0      99.6
 4 C  s               0.0       0.0       0.0       0.0      99.6       0.0
 5 C  s               0.0       0.0       0.0      99.6       0.0       0.0
 7 C  s               0.0      99.4       0.0       0.0       0.0       0.0
 8 O  s              99.9       0.0       0.0       0.0       0.0       0.0
 8 O  py              0.0       0.2       0.0       0.0       0.0       0.0

                      6         7         8         9        10        11   
                  -9.89078  -9.88858  -9.88084  -9.87178  -9.86388  -0.93854
                   2.00000   2.00000   2.00000   2.00000   2.00000   2.00000
                  --------  --------  --------  --------  --------  --------
 0 C  s               0.0       0.0      99.7       0.0       0.0       0.0
 4 C  s               0.0       0.0       0.0       0.0       0.0       0.1
 4 C  py              0.0       0.0       0.0       0.0       0.0       0.1
 5 C  s               0.0       0.0       0.0       0.0       0.0       1.2
 5 C  pz              0.0       0.0       0.0       0.0       0.0       0.2
 5 C  px              0.1       0.0       0.0       0.0       0.0       0.2
 5 C  py              0.0       0.0       0.0       0.0       0.0       1.4
 6 H  s               0.0       0.0       0.0       0.0       0.0       0.1
 7 C  s               0.0       0.0       0.0       0.0       0.0      19.6
 7 C  pz              0.0       0.0       0.0       0.0       0.0       4.3
 7 C  px              0.0       0.1       0.0       0.0       0.0       1.7
 7 C  py              0.0       0.0       0.0       0.0       0.0       6.9
 7 C  dxz             0.0       0.0       0.0       0.0       0.0       0.3
 7 C  dyz             0.0       0.0       0.0       0.0       0.0       1.0
 7 C  dx2y2           0.0       0.0       0.0       0.0       0.0       0.2
 7 C  dxy             0.0       0.0       0.0       0.0       0.0       0.3
 8 O  s               0.0       0.0       0.0       0.0       0.0      50.6
 8 O  pz              0.0       0.0       0.0       0.0       0.0       2.2
 8 O  px              0.0       0.0       0.0       0.0       0.0       0.9
 8 O  py              0.0       0.0       0.0       0.0       0.0       3.7
 8 O  dyz             0.0       0.0       0.0       0.0       0.0       0.1
 9 C  s               0.0      99.6       0.0       0.0       0.0       1.2
 9 C  pz              0.0       0.0       0.0       0.0       0.0       0.4
 9 C  px              0.0       0.0       0.0       0.0       0.0       1.4
10 C  s              99.6       0.0       0.0       0.0       0.0       0.2
10 C  px              0.0       0.0       0.0       0.0       0.0       0.2
11 C  s               0.0       0.0       0.0       0.0      99.7       0.0
12 C  s               0.0       0.0       0.0      99.7       0.0       0.0
20 H  s               0.0       0.1       0.0       0.0       0.0       0.1
21 H  s               0.0       0.1       0.0       0.0       0.0       0.3
22 H  s               0.1       0.0       0.0       0.0       0.0       0.1

                     12        13        14        15        16        17   
                  -0.76941  -0.72898  -0.67907  -0.65584  -0.61344  -0.60616
                   2.00000   2.00000   2.00000   2.00000   2.00000   2.00000
                  --------  --------  --------  --------  --------  --------
 0 C  s               3.2       4.5       8.5       4.3      16.1       3.2
 0 C  px              1.4       1.0       0.4       0.0       0.5       0.2
 0 C  py              0.0       0.0       0.1       0.3       0.0       0.0
 1 C  s              13.0       9.3       4.7       0.9       0.0       0.1
 1 C  pz              0.4       0.3       0.2       0.1       0.0       0.0
 1 C  px              0.7       0.1       2.4       2.0       7.6       1.5
 1 C  py              0.1       0.0       1.4       7.2       0.0       0.5
 1 C  dx2y2           0.0       0.0       0.0       0.0       0.1       0.0
 1 C  dxy             0.0       0.0       0.0       0.2       0.0       0.0
 2 H  s               2.2       1.6       0.9       0.2       0.0       0.0
 3 C  s              11.6       1.8       3.2      10.4       4.2       2.7
 3 C  pz              0.1       0.0       0.1       0.1       0.0       0.0
 3 C  px              0.3       1.2       4.2       0.0       0.0       0.1
 3 C  py              1.5       0.8       0.7       0.3       0.0       0.0
 4 C  s              10.7       1.2      13.6       2.6       0.0       0.2
 4 C  pz              0.5       0.1       0.1       0.0       0.0       0.0
 4 C  px              0.4       2.0       0.2       1.7       2.4       1.9
 4 C  py              0.9       0.4       0.0       1.3       1.1       0.1
 5 C  s               9.7       9.5       2.4       2.5       8.0       0.8
 5 C  pz              0.2       0.2       0.2       0.2       0.0       0.1
 5 C  px              0.5       2.4       4.2       0.8       0.0       0.0
 5 C  py              0.2       0.0       1.3       2.2       0.3       0.7
 6 H  s               1.9       1.8       0.4       0.8       1.9       0.1
 7 C  s               2.1       0.0       0.1       6.7       0.1       0.0
 7 C  pz              1.4       0.0       0.0       3.6       0.0       0.0
 7 C  px              0.9       2.7       0.5       4.1       4.1       0.0
 7 C  py              4.7       1.3       0.9       2.7       2.1       0.1
 7 C  dx2y2           0.0       0.0       0.0       0.1       0.0       0.0
 7 C  dxy             0.1       0.0       0.0       0.1       0.0       0.0
 8 O  s               2.2       0.1       0.0       2.9       0.1       0.0
 8 O  pz              0.0       0.0       0.0       0.2       0.0       0.0
 8 O  px              0.0       0.1       0.0       0.2       0.3       0.0
 8 O  py              0.1       0.0       0.0       0.2       0.1       0.0
 9 C  s               7.5       4.0       2.7      16.6       3.9       0.0
 9 C  pz              0.3       0.2       0.0       0.0       0.0       0.0
 9 C  px              0.0       0.6       1.1       2.0       0.0       0.0
 9 C  py              1.8       0.4       0.0       0.2       0.0       0.0
10 C  s               3.1      17.6       6.3       0.3       0.0       0.1
10 C  pz              0.1       0.5       0.2       0.0       0.1       1.4
10 C  px              0.6       0.1       2.8       0.9       4.9       0.5
10 C  py              0.1       0.1       0.0       0.1       2.2      11.2
10 C  dx2y2           0.0       0.0       0.0       0.0       0.1       0.0
10 C  dxy             0.0       0.0       0.0       0.0       0.0       0.2
11 C  s               0.6       6.6       6.6       0.4       0.0      23.9
11 C  pz              0.1       0.5       0.2       0.0       0.0       0.1
11 C  px              0.1       0.5       0.0       0.0       0.3       0.0
11 C  py              0.2       1.1       0.5       0.0       0.1       0.3
12 C  s               0.8       7.3       5.9       1.4      11.7      13.7
12 C  px              0.2       0.5       0.0       0.0       0.2       0.0
12 C  py              0.2       1.5       0.7       0.0       0.1       0.8
13 H  s               0.5       0.8       1.7       1.3       4.5       0.9
14 H  s               0.6       0.9       1.8       1.0       4.2       0.9
15 H  s               0.5       0.8       1.9       0.8       4.5       1.0
16 H  s               2.1       0.3       0.6       2.2       0.9       0.7
17 H  s               1.8       0.3       0.6       3.1       1.0       0.8
18 H  s               1.7       0.3       2.7       0.9       0.0       0.3
19 H  s               1.9       0.2       2.7       0.6       0.0       0.1
20 H  s               1.5       0.7       0.6       4.0       0.8       0.0
21 H  s               1.0       0.8       0.8       3.4       1.0       0.0
22 H  s               0.5       3.0       1.1       0.1       0.0       0.0
23 H  s               0.1       1.3       1.4       0.1       0.0       6.1
24 H  s               0.1       1.1       1.2       0.1       0.0       6.7
25 H  s               0.1       1.1       1.4       0.1       0.0       6.1
26 H  s               0.1       1.3       1.4       0.4       3.5       3.1
27 H  s               0.2       1.3       0.9       0.4       3.1       4.7
28 H  s               0.2       1.4       1.2       0.3       2.9       3.7

                     18        19        20        21        22        23   
                  -0.54782  -0.52165  -0.50291  -0.47569  -0.44082  -0.41835
                   2.00000   2.00000   2.00000   2.00000   2.00000   2.00000
                  --------  --------  --------  --------  --------  --------
 0 C  s               2.9       2.7       0.0       0.7       0.0       0.2
 0 C  pz              0.3       1.5       1.1       0.0       4.9       0.1
 0 C  px              1.5       3.1       0.2       2.4       1.0       2.3
 0 C  py              0.5       0.5       0.0       0.3       0.1       0.0
 1 C  s               2.6       7.7       2.5       0.9       0.0       0.0
 1 C  pz              0.3       3.7       4.5       1.3      13.0       0.1
 1 C  px              0.7       0.1       0.0       0.1       1.3       2.2
 1 C  py              3.9       2.7       0.0       0.8       0.0       0.1
 2 H  s               0.8       6.4       3.6       0.0       4.0       0.0
 3 C  s               3.1       3.4       2.1       0.1       0.2       0.0
 3 C  pz              0.4       2.9       1.7       2.6       4.2       2.7
 3 C  px              6.6       0.0       0.0       0.0       0.6       3.0
 3 C  py              0.8       2.8       3.4       0.2       5.6       2.8
 3 C  dx2y2           0.2       0.0       0.0       0.0       0.0       0.0
 4 C  s              13.5       1.3       0.0       0.0       0.1       0.0
 4 C  pz              1.3       2.4       0.2       6.0       0.0       7.5
 4 C  px              1.0       1.9       0.0       2.0       0.0       0.2
 4 C  py              2.2       0.0       2.0       0.3       3.1       1.7
 5 C  s               2.3       0.0       0.2       2.5       0.1       0.0
 5 C  pz              0.7       3.3       0.1      10.1       4.1       1.3
 5 C  px              0.9       2.7       6.6       0.9       3.2       1.3
 5 C  py              4.8       1.8       0.3       6.0       0.0       6.4
 5 C  dz2             0.0       0.0       0.0       0.1       0.0       0.0
 5 C  dxz             0.0       0.0       0.1       0.0       0.0       0.0
 6 H  s               1.0       0.9       0.1       8.5       1.8       0.7
 7 C  s               0.3       2.9       1.2       5.5       0.6       0.0
 7 C  pz              0.1       3.1       0.1       0.1       0.9       1.1
 7 C  px              2.9       0.1       0.1       0.9       2.6       9.6
 7 C  py              1.9       0.2       2.6       1.7       2.6       0.2
 8 O  s               0.1       0.5       0.1       3.8       1.2       0.5
 8 O  pz              0.0       0.7       0.0       0.5       1.8       1.5
 8 O  px              0.3       0.1       0.0       0.6       3.1       3.9
 8 O  py              0.3       0.1       0.4       3.0       0.0       1.1
 9 C  s               2.7       0.0       3.3       0.2       0.0       0.4
 9 C  pz              0.2       2.3       3.5       1.3       3.9       6.6
 9 C  px              0.2       5.6       0.7       6.3       2.0       2.6
 9 C  py              2.3       0.4       2.4       0.1       8.4       1.0
10 C  s               1.1       2.6       8.7       1.5       0.1       1.1
10 C  pz              0.1       1.3       2.0       6.6       4.0       0.0
10 C  px              1.7       0.8       0.8       1.4       0.4       4.6
10 C  py              0.0       0.0       0.1       0.9       0.5       0.9
11 C  s               4.1       0.5       2.7       0.1       0.1       0.0
11 C  pz              0.3       0.6       2.4       2.3       0.6       0.5
11 C  px              0.8       0.2       1.5       0.1       0.8       1.5
11 C  py              0.3       0.1       1.2       0.0       0.9       3.6
12 C  s               0.0       2.0       2.8       0.0       0.1       0.4
12 C  pz              0.0       0.2       0.4       1.5       1.2       0.1
12 C  px              0.0       1.0       2.0       0.3       0.9       0.0
12 C  py              0.1       1.0       3.6       0.9       0.1       7.2
13 H  s               0.8       1.9       0.0       1.3       1.2       0.3
14 H  s               1.2       2.5       0.5       0.2       1.5       0.2
15 H  s               1.9       0.9       0.0       0.4       0.2       0.4
16 H  s               1.3       4.0       2.7       0.5       0.5       0.5
17 H  s               1.2       1.8       1.6       0.5       4.3       3.2
18 H  s               6.9       0.4       0.1       0.5       0.5       0.4
19 H  s               5.4       2.1       0.2       2.0       0.1       2.6
20 H  s               1.0       0.6       3.6       1.1       1.8       3.6
21 H  s               2.2       0.1       2.9       0.4       1.9       0.9
22 H  s               0.4       1.9       4.9       4.2       1.2       0.2
23 H  s               1.4       0.5       2.3       1.0       0.2       0.0
24 H  s               1.2       0.2       1.2       0.1       0.3       2.3
25 H  s               1.9       0.3       1.8       0.0       0.7       0.3
26 H  s               0.0       1.3       2.2       0.1       0.6       0.1
27 H  s               0.0       0.5       1.3       0.0       0.3       2.5
28 H  s               0.0       1.2       2.3       0.9       0.2       0.7

                     24        25        26        27        28        29   
                  -0.39988  -0.39574  -0.39152  -0.38188  -0.37227  -0.35314
                   2.00000   2.00000   2.00000   2.00000   2.00000   2.00000
                  --------  --------  --------  --------  --------  --------
 0 C  pz              1.8       0.6       4.7       0.0       1.5      22.3
 0 C  px              0.3       2.1       0.1       5.9       3.0       2.6
 0 C  py             12.7       0.4       5.6       0.0       0.8       0.1
 0 C  dz2             0.0       0.0       0.0       0.0       0.0       0.3
 1 C  s               0.0       0.1       0.2       1.4       0.1       0.0
 1 C  pz              1.6       1.7       1.5       0.7       0.0       0.3
 1 C  px              0.5       0.3       1.5       2.1       5.7       0.2
 1 C  py              9.6       0.0       2.5       0.0       0.4       0.1
 1 C  dxz             0.0       0.0       0.0       0.0       0.0       0.2
 2 H  s               1.0       0.4       0.7       0.0       0.1       0.1
 3 C  s               0.3       0.0       0.3       0.8       0.0       0.0
 3 C  pz              1.8       8.8       0.1       0.4       0.0       3.6
 3 C  px              4.7       2.1       1.2       0.5       3.0       0.3
 3 C  py              4.9       0.3       0.1       0.1       1.5       0.0
 3 C  dxy             0.0       0.0       0.0       0.2       0.0       0.0
 4 C  s               0.1       0.1       0.0       0.7       0.0       0.0
 4 C  pz              6.6       1.2       1.9       0.2       0.0       0.7
 4 C  px              1.6       7.3       3.5       0.4       1.6       0.3
 4 C  py              0.9       0.3       0.2      12.4       4.3       0.1
 4 C  dxy             0.0       0.0       0.0       0.2       0.2       0.0
 5 C  s               0.1       0.0       0.1       1.0       1.4       0.7
 5 C  pz              0.2       4.4       1.0       2.9       1.2       4.8
 5 C  px              1.1       0.7       1.2       0.1       2.1       0.0
 5 C  py              1.2       1.2       1.7       0.9       0.9       0.1
 5 C  dz2             0.0       0.0       0.0       0.0       0.0       0.2
 5 C  dx2y2           0.0       0.0       0.0       0.1       0.0       0.0
 6 H  s               0.1       1.8       1.0       0.2       0.0       4.2
 7 C  s               0.0       1.3       0.1       1.9       0.0       0.1
 7 C  pz              0.2       3.2       3.5       3.4       1.6       0.1
 7 C  px              2.2       1.1       0.9       1.4       1.2       0.2
 7 C  py              0.9       0.5       0.8       1.6       0.4       1.2
 7 C  dxz             0.0       0.0       0.0       0.0       0.0       0.1
 7 C  dxy             0.0       0.0       0.0       0.1       0.1       0.0
 8 O  s               0.1       5.2       1.2       2.9       0.2       0.1
 8 O  pz              0.0       1.3       0.0      11.8       0.1       0.9
 8 O  px              1.0       5.6       0.2       0.1       0.3       1.0
 8 O  py              0.8       8.3       5.9       3.6       2.3       0.4
 8 O  dyz             0.0       0.0       0.0       0.1       0.0       0.0
 9 C  s               0.0       0.1       0.0       0.5       0.0       0.1
 9 C  pz              2.8       6.2       1.4       1.2       1.1       5.5
 9 C  px              4.3       0.0       3.3       0.7       2.9       0.7
 9 C  py              0.6       0.1       0.3       3.8       6.5       2.7
 9 C  dz2             0.0       0.1       0.0       0.0       0.0       0.2
 9 C  dxy             0.0       0.0       0.0       0.2       0.1       0.0
10 C  s               0.1       0.1       0.1       0.1       0.3       0.1
10 C  pz              2.5       0.5       8.7       0.3       0.0       0.1
10 C  px              0.2       2.7       0.1       4.4       1.5       0.0
10 C  py              2.2       0.8       0.0       0.4       0.8       0.8
10 C  dx2y2           0.0       0.0       0.0       0.0       0.2       0.0
11 C  s               0.0       0.4       0.1       0.2       0.0       0.0
11 C  pz              2.0       1.4       2.0       1.7       0.0       1.4
11 C  px              0.0       0.4       1.5       0.0      12.3       0.2
11 C  py              1.3       2.3       6.1       2.9       3.0       0.8
12 C  pz              1.9       0.6      10.9       0.1       0.3       3.8
12 C  px              2.5       4.2       0.0       1.1       5.3       4.4
12 C  py              0.5       2.1       0.5       2.6       5.0       0.0
13 H  s               1.3       0.3       2.6       1.1       0.0       3.8
14 H  s               1.5       0.2       1.5       0.0       0.9      11.5
15 H  s               5.6       0.9       1.6       0.7       1.0       2.0
16 H  s               1.9       4.0       0.0       0.0       0.1       1.7
17 H  s               0.1       0.0       0.0       1.6       1.5       0.4
18 H  s               0.1       1.6       1.0       8.1       1.3       0.4
19 H  s               3.4       0.8       0.8       0.0       0.1       0.5
20 H  s               1.4       3.6       0.6       0.2       0.4       4.1
21 H  s               1.8       0.1       0.1       4.9       4.2       2.2
22 H  s               1.1       0.0       2.6       0.0       0.2       0.0
23 H  s               1.2       0.6       1.3       0.6       0.1       1.1
24 H  s               0.4       0.6       1.9       1.3       4.4       0.4
25 H  s               0.2       0.3       1.9       0.0       4.8       0.0
26 H  s               1.5       1.7       0.1       0.4       2.9       3.1
27 H  s               0.4       2.1       3.3       1.2       3.6       0.2
28 H  s               0.3       0.0       3.1       0.2       0.4       1.9

                     30        31        32        33        34        35   
                  -0.34994  -0.34955  -0.33587  -0.33287  -0.31743  -0.30830
                   2.00000   2.00000   2.00000   2.00000   2.00000   2.00000
                  --------  --------  --------  --------  --------  --------
 0 C  pz              1.0       0.5       0.8       2.5       2.9       3.5
 0 C  px              2.0       0.0       0.2       3.3       1.2       0.0
 0 C  py              0.1      15.5       4.4       7.0       2.3       1.1
 0 C  dz2             0.0       0.0       0.0       0.1       0.1       0.1
 0 C  dxy             0.0       0.2       0.1       0.1       0.0       0.1
 1 C  pz              0.3       0.0       0.0       1.1       1.4       3.5
 1 C  px              0.7       0.0       0.0       4.0       0.5       0.0
 1 C  py              2.0       0.0       0.3       0.3       0.2       0.6
 1 C  dz2             0.0       0.0       0.0       0.0       0.0       0.1
 1 C  dxy             0.3       0.1       0.1       0.1       0.0       0.0
 2 H  s               0.0       0.0       0.0       0.6       1.2       2.3
 3 C  s               0.4       0.1       0.0       0.1       0.0       0.0
 3 C  pz              0.0       2.5       1.1       6.7       0.4       2.4
 3 C  px              3.8       0.7       0.6       0.8       3.0       0.2
 3 C  py              9.9       0.8       0.0       0.2       0.0       0.4
 3 C  dz2             0.0       0.0       0.0       0.1       0.0       0.1
 3 C  dxz             0.0       0.0       0.0       0.0       0.0       0.1
 4 C  s               0.2       0.3       0.0       0.2       0.1       0.1
 4 C  pz              0.6       0.9       0.0       4.2       1.4      11.4
 4 C  px              3.3       0.0       0.1       0.9       1.3       1.7
 4 C  py              6.7       0.0       0.8       3.5       0.0       0.0
 4 C  dz2             0.0       0.0       0.0       0.2       0.0       0.4
 4 C  dx2y2           0.2       0.0       0.0       0.0       0.0       0.0
 5 C  s               0.0       0.0       0.1       0.0       0.1       0.0
 5 C  pz              0.0       0.6       0.1       1.0       1.9       6.4
 5 C  px              0.1       0.0       0.0       0.1       1.8       0.1
 5 C  py              2.1       0.0       0.9       0.1       2.4       2.9
 5 C  dz2             0.0       0.0       0.0       0.0       0.2       0.2
 5 C  dyz             0.0       0.0       0.0       0.2       0.0       0.0
 5 C  dxy             0.2       0.1       0.0       0.0       0.1       0.0
 6 H  s               0.0       0.6       0.0       0.5       2.8       3.6
 7 C  s               0.7       0.1       0.0       0.1       0.4       0.0
 7 C  pz              1.1       0.5       0.5       4.7       6.9       0.0
 7 C  px              2.6       0.0       0.1       1.7       3.1       0.3
 7 C  py              8.1       0.1       0.4       1.5       1.0       0.0
 7 C  dz2             0.0       0.0       0.0       0.2       0.3       0.0
 7 C  dyz             0.0       0.0       0.0       0.1       0.2       0.0
 8 O  s               4.3       0.0       0.0       0.3       0.5       0.0
 8 O  pz             18.6       0.2       1.3       2.3       4.3       0.1
 8 O  px              0.9       0.2       0.0       0.1      10.3       0.0
 8 O  py              4.5       0.0       0.3      12.2       6.6       0.0
 8 O  dyz             0.1       0.0       0.0       0.0       0.0       0.0
 9 C  s               0.1       0.2       0.1       0.4       0.0       0.0
 9 C  pz              3.0       1.3       0.2       0.8       1.2       3.0
 9 C  px              1.3       0.5       0.5       2.7       0.2       1.7
 9 C  py              3.0       1.8       0.0       1.0       4.1       0.0
 9 C  dz2             0.0       0.0       0.0       0.2       0.1       0.1
 9 C  dx2y2           0.1       0.0       0.0       0.1       0.0       0.0
[...]
12 C  py              0.2       0.8       0.5       0.0       0.5       0.0
12 C  dz2             0.4       2.0       0.5       0.1       0.4       0.0
12 C  dxz             0.0       0.0       0.0       0.1       0.0       0.0
12 C  dyz             0.0       0.1       0.0       0.0       0.3       0.1
12 C  dx2y2           0.3       0.1       2.1       0.1       3.2       0.0
12 C  dxy             0.2       4.4       1.1       0.0       0.5       0.1
15 H  s               0.2       0.0       0.0       0.0       0.0       0.0
16 H  s               0.1       0.0       0.0       0.0       0.0       0.0
17 H  s               0.1       0.1       0.0       0.0       0.0       0.1
18 H  s               0.2       0.1       0.1       0.1       0.0       0.0
20 H  s               0.1       0.0       0.0       0.2       0.0       0.0
21 H  s               0.0       0.1       0.2       0.0       0.0       0.3
25 H  s               0.0       0.1       0.0       0.0       0.1       0.0

                    186       187       188       189   
                   2.77497   3.07565   3.29740   3.53611
                   0.00000   0.00000   0.00000   0.00000
                  --------  --------  --------  --------
 0 C  s               0.2       0.0       0.0       0.0
 0 C  px              0.2       0.0       0.0       0.0
 0 C  dxz             0.5       0.0       0.0       0.0
 0 C  dx2y2           0.6       0.0       0.0       0.0
 0 C  dxy             0.1       0.0       0.0       0.0
 1 C  px              0.4       0.0       0.0       0.0
 1 C  dxz             0.4       0.0       0.1       0.0
 1 C  dyz             0.2       0.0       0.0       0.0
 1 C  dx2y2           2.3       0.2       0.0       0.0
 1 C  dxy             0.9       0.0       0.0       0.0
 3 C  px              0.9       0.0       0.0       0.0
 3 C  dz2             0.3       0.0       0.0       0.0
 3 C  dxz             0.5       0.0       0.0       0.0
 3 C  dx2y2           2.3       0.0       0.0       0.0
 3 C  dxy             2.0       0.1       0.0       0.0
 4 C  px              1.4       0.0       0.0       0.0
 4 C  py              0.2       0.0       0.0       0.0
 4 C  dz2             0.2       0.0       0.0       0.0
 4 C  dxz             3.3       0.0       0.0       0.0
 4 C  dyz             0.2       0.0       0.0       0.0
 4 C  dx2y2           1.8       0.2       0.0       0.0
 4 C  dxy             2.4       0.0       0.0       0.0
 5 C  s               0.0       0.0       0.3       0.0
 5 C  px              2.3       0.0       0.3       0.0
 5 C  py              0.0       0.0       0.3       0.1
 5 C  dz2             0.3       0.1       0.4       0.0
 5 C  dxz             5.2       0.3       0.2       0.0
 5 C  dyz             0.1       0.1       0.0       0.1
 5 C  dx2y2          17.0       0.5       0.0       0.2
 5 C  dxy             1.8       0.0       3.2       0.1
 7 C  s               0.3       0.0       0.0       7.2
 7 C  pz              0.0       0.7       0.0       2.4
 7 C  px              0.1       0.1       0.3       1.0
 7 C  py              0.0       0.3       0.2       4.0
 7 C  dz2             1.2      11.5       0.2       0.0
 7 C  dxz             0.1       0.2       7.3       0.5
 7 C  dyz             2.9       2.0       1.4       2.8
 7 C  dx2y2           2.0       1.1      13.7       1.0
 7 C  dxy             8.1       4.1       5.7       1.3
 8 O  s               1.4       0.0       0.0       7.0
 8 O  pz              0.4       0.9       0.0       1.3
 8 O  px              0.1       0.2       1.2       0.6
 8 O  py              0.6       0.4       0.4       2.4
 8 O  dz2             0.9      50.1       0.4       0.0
 8 O  dxz             1.9       0.8      16.2       8.9
 8 O  dyz             3.5       8.2       3.8      34.5
 8 O  dx2y2           0.1       3.6      27.4       8.3
 8 O  dxy             1.5      12.9      11.8      15.5
 9 C  s               0.2       0.0       0.2       0.0
 9 C  px              0.1       0.0       0.6       0.0
 9 C  dz2             0.0       0.0       0.4       0.0
 9 C  dxz             0.2       0.2       0.2       0.0
 9 C  dyz             0.3       0.1       0.2       0.0
 9 C  dx2y2           0.3       0.2       1.8       0.0
 9 C  dxy             4.3       0.2       0.8       0.2
10 C  s               0.2       0.0       0.1       0.0
10 C  px              1.7       0.0       0.0       0.0
10 C  dz2             0.6       0.0       0.0       0.0
10 C  dxz             1.4       0.1       0.0       0.0
10 C  dyz             0.6       0.0       0.0       0.0
10 C  dx2y2           8.9       0.0       0.1       0.0
10 C  dxy             3.0       0.0       0.1       0.1
11 C  s               0.1       0.0       0.0       0.0
11 C  px              0.1       0.0       0.0       0.0
11 C  dz2             0.1       0.0       0.0       0.0
11 C  dxz             0.4       0.0       0.0       0.0
11 C  dx2y2           0.2       0.0       0.0       0.0
11 C  dxy             0.3       0.0       0.0       0.0
12 C  s               0.1       0.0       0.0       0.0
12 C  px              0.3       0.0       0.0       0.0
12 C  py              0.2       0.0       0.0       0.0
12 C  dz2             0.2       0.0       0.0       0.0
12 C  dx2y2           0.3       0.0       0.0       0.0
12 C  dxy             1.2       0.0       0.0       0.0
21 H  s               0.2       0.0       0.0       0.0


                      *****************************
                      * MAYER POPULATION ANALYSIS *
                      *****************************

  NA   - Mulliken gross atomic population
  ZA   - Total nuclear charge
  QA   - Mulliken gross atomic charge
  VA   - Mayer's total valence
  BVA  - Mayer's bonded valence
  FA   - Mayer's free valence

  ATOM       NA         ZA         QA         VA         BVA        FA
  0 C      6.1943     6.0000    -0.1943     3.9417     3.9417     0.0000
  1 C      6.2361     6.0000    -0.2361     4.3026     4.3026     0.0000
  2 H      0.9210     1.0000     0.0790     0.9419     0.9419    -0.0000
  3 C      6.1131     6.0000    -0.1131     4.0847     4.0847     0.0000
  4 C      6.1013     6.0000    -0.1013     4.0891     4.0891     0.0000
  5 C      6.1737     6.0000    -0.1737     3.9170     3.9170     0.0000
  6 H      0.9306     1.0000     0.0694     0.9658     0.9658     0.0000
  7 C      5.9937     6.0000     0.0063     4.2982     4.2982     0.0000
  8 O      8.1549     8.0000    -0.1549     2.3363     2.3363     0.0000
  9 C      6.0398     6.0000    -0.0398     3.8614     3.8614     0.0000
 10 C      6.1151     6.0000    -0.1151     4.2197     4.2197     0.0000
 11 C      6.2527     6.0000    -0.2527     3.9642     3.9642     0.0000
 12 C      6.2388     6.0000    -0.2388     3.9679     3.9679     0.0000
 13 H      0.8989     1.0000     0.1011     0.9573     0.9573     0.0000
 14 H      0.9078     1.0000     0.0922     0.9671     0.9671     0.0000
 15 H      0.8971     1.0000     0.1029     0.9570     0.9570     0.0000
 16 H      0.9288     1.0000     0.0712     0.9625     0.9625     0.0000
 17 H      0.9138     1.0000     0.0862     0.9501     0.9501     0.0000
 18 H      0.9018     1.0000     0.0982     0.9563     0.9563     0.0000
 19 H      0.9174     1.0000     0.0826     0.9576     0.9576     0.0000
 20 H      0.9177     1.0000     0.0823     0.9655     0.9655     0.0000
 21 H      0.9172     1.0000     0.0828     0.9822     0.9822     0.0000
 22 H      0.9262     1.0000     0.0738     0.9661     0.9661     0.0000
 23 H      0.9163     1.0000     0.0837     0.9622     0.9622    -0.0000
 24 H      0.8838     1.0000     0.1162     0.9777     0.9777     0.0000
 25 H      0.9024     1.0000     0.0976     0.9570     0.9570     0.0000
 26 H      0.9014     1.0000     0.0986     0.9587     0.9587     0.0000
 27 H      0.8924     1.0000     0.1076     0.9544     0.9544     0.0000
 28 H      0.9118     1.0000     0.0882     0.9620     0.9620    -0.0000

  Mayer bond orders larger than 0.100000
B(  0-C ,  1-C ) :   1.1150 B(  0-C , 13-H ) :   0.9472 B(  0-C , 14-H ) :   0.9452 
B(  0-C , 15-H ) :   0.9471 B(  1-C ,  2-H ) :   0.8918 B(  1-C ,  3-C ) :   1.0938 
B(  1-C ,  9-C ) :   1.0789 B(  3-C ,  4-C ) :   1.1403 B(  3-C , 16-H ) :   0.9041 
B(  3-C , 17-H ) :   0.9095 B(  4-C ,  5-C ) :   1.0816 B(  4-C , 18-H ) :   0.9002 
B(  4-C , 19-H ) :   0.9006 B(  5-C ,  6-H ) :   0.8633 B(  5-C ,  7-C ) :   0.9283 
B(  5-C , 10-C ) :   1.0417 B(  7-C ,  8-O ) :   2.1747 B(  7-C ,  9-C ) :   1.0505 
B(  9-C , 20-H ) :   0.8816 B(  9-C , 21-H ) :   0.8887 B( 10-C , 11-C ) :   1.1148 
B( 10-C , 12-C ) :   1.1192 B( 10-C , 22-H ) :   0.8819 B( 11-C , 23-H ) :   0.9465 
B( 11-C , 24-H ) :   0.9439 B( 11-C , 25-H ) :   0.9498 B( 12-C , 26-H ) :   0.9484 
B( 12-C , 27-H ) :   0.9393 B( 12-C , 28-H ) :   0.9449 

-------
TIMINGS
-------

Total SCF time: 0 days 0 hours 0 min 11 sec 

Total time                  ....      11.280 sec
Sum of individual times     ....      11.247 sec  ( 99.7%)

SCF preparation             ....       0.926 sec  (  8.2%)
Fock matrix formation       ....       6.620 sec  ( 58.7%)
  Startup                   ....       0.008 sec  (  0.1% of F)
  Split-RI-J                ....       3.427 sec  ( 51.8% of F)
  XC integration            ....       3.025 sec  ( 45.7% of F)
    XC Preparation          ....       0.000 sec  (  0.0% of XC)
    Basis function eval.    ....       1.245 sec  ( 41.2% of XC)
    Density eval.           ....       0.694 sec  ( 23.0% of XC)
    XC-Functional eval.     ....       0.175 sec  (  5.8% of XC)
    XC-Potential eval.      ....       0.713 sec  ( 23.6% of XC)
Diagonalization             ....       0.000 sec  (  0.0%)
Density matrix formation    ....       0.098 sec  (  0.9%)
Total Energy calculation    ....       0.002 sec  (  0.0%)
Population analysis         ....       3.475 sec  ( 30.8%)
Orbital Transformation      ....       0.019 sec  (  0.2%)
Orbital Orthonormalization  ....       0.000 sec  (  0.0%)
DIIS solution               ....       0.084 sec  (  0.7%)
  MO trafo                  ....       0.000 sec  (  0.0 % of DIIS)
  Orb grad                  ....       0.000 sec  (  0.0 % of DIIS)
  Energy W gradient         ....       0.000 sec  (  0.0 % of DIIS)
  DIIS error                ....       0.006 sec  (  7.5 % of DIIS)
  DIIS work                 ....       0.067 sec  ( 79.7 % of DIIS)
  Form Q                    ....       0.000 sec  (  0.0 % of DIIS)
  Form QpQm                 ....       0.000 sec  (  0.0 % of DIIS)
  Exp/Cayley                ....       0.000 sec  (  0.0 % of DIIS)
  Orb update                ....       0.000 sec  (  0.0 % of DIIS)
  Wake-sleep                ....       0.001 sec  (  1.2 % of DIIS)
SOSCF solution              ....       0.024 sec  (  0.2%)
  MO trafo                  ....       0.014 sec  ( 59.3 % of SOSCF)
  Orb grad                  ....       0.000 sec  (  0.8 % of SOSCF)
  Rot update                ....       0.002 sec  (  7.6 % of SOSCF)
  Step                      ....       0.008 sec  ( 31.8 % of SOSCF)
Finished LeanSCF after  13.6 sec

Maximum memory used throughout the entire LEANSCF-calculation: 20.0 MB


-------------------------------------------------------------------------------
                          DFT DISPERSION CORRECTION                            
                                                                               
                                DFTD4 V3.4.0                                   
-------------------------------------------------------------------------------
The PBE functional is recognized
Active option DFTDOPT                   ...         5   

-------------------------   ----------------
Dispersion correction           -0.029660671
-------------------------   ----------------

------------------   -----------------
gCP correction             0.126620127
------------------   -----------------

-------------------------   --------------------
FINAL SINGLE POINT ENERGY      -466.036417950331
-------------------------   --------------------


------------------------------------------------------------------------------
                              ORCA PROPERTY CALCULATIONS
------------------------------------------------------------------------------

GBWName                                 ... sp.gbw
Number of atoms                         ...     29
Number of basis functions               ...    190
Max core memory                         ...   1024 MB

Electric properties:
Dipole moment                           ... YES
Quadrupole moment                       ...  NO
Static polarizability (Dipole/Dipole)   ...  NO
Static polarizability (Dipole/Quad.)    ...  NO
Static polarizability (Quad./Quad.)     ...  NO
Static polarizability (Velocity)        ...  NO

Atomic electric properties:
Dipole moment                           ...  NO
Quadrupole moment                       ...  NO
Static polarizability                   ...  NO

Choice of electric origin               ... Center of mass
Position of electric origin             ...    -0.000002     0.000018    -0.000008

General magnetic properties:
Magnetizability                         ...  NO

EPR properties:
g-Tensor (aka g-matrix)                 ...  NO
Zero-Field splitting spin-orbit         ...  NO
Zero-field splitting spin-spin          ...  NO
Hyperfine couplings                     ...  NO (   0 nuclei)
Quadrupole couplings                    ...  NO (   0 nuclei)
Contact density                         ...  NO (   0 nuclei)

NMR properties:
Chemical shifts                         ...  NO (   0 nuclei)
Spin-rotation constants                 ...  NO (   0 nuclei)
Spin-spin couplings                     ...  NO (   0 nuclei,    0 pairs)

Choice of magnetic origin               ... GIAO
Position of magnetic origin             ...     0.000000     0.000000     0.000000

Properties with geometric perturbations:
SCF Hessian                             ...  NO
IR spectrum                             ...  NO
VCD spectrum                            ...  NO
X-ray spectroscopy properties:
SCF XES/XAS/RIXS spectra                ...  NO


-------------
DIPOLE MOMENT
-------------

Method             : SCF
Type of density    : Electron Density
Multiplicity       :   1
Irrep              :   0
Energy             :  -466.1333774058400650 Eh
Relativity type    : 
Basis              : AO
                                X                 Y                 Z
Electronic contribution:     -0.596879037      -5.875734972       2.757522653
Nuclear contribution   :      0.114843451       6.686616521      -3.156564277
                        -----------------------------------------
Total Dipole Moment    :     -0.482035586       0.810881549      -0.399041625
                        -----------------------------------------
Magnitude (a.u.)       :      1.024266279
Magnitude (Debye)      :      2.603477980



--------------------
Rotational spectrum 
--------------------
 
Rotational constants in cm-1:             0.068193             0.023451             0.019078 
Rotational constants in MHz :          2044.369691           703.037809           571.954931 

Dipole components along the rotational axes: 
x,y,z [a.u.] :    -0.482034     0.810879    -0.399047 
x,y,z [Debye]:    -1.225234     2.061092    -1.014297 

 

Dipole moment calculation done in   0.5 sec 

Maximum memory used throughout the entire PROP-calculation: 13.0 MB

--------------------------------
SUGGESTED CITATIONS FOR THIS RUN
--------------------------------

Below you find a list of papers that are relevant to this ORCA run
We neither can nor want to force you to cite these papers, but we appreciate if you do
You receive ORCA, which is the product of decades of hard work by many enthusiastic individuals, for free
The only thing we kindly ask in return is that you cite our papers,
We deeply appreciate it, if you show your appreciation for ORCA by not just citing the generic ORCA reference.

Please note that relegating all ORCA citations to the supporting information does *not* help us.
SI sections are not indexed - citations you put there will not count into any citation statistics
But we need these citations in order to attract the funding resources that allow us to do what we are doing

Therefore, if you are a happy ORCA user, please consider citing a few of the papers listed below in the main body of your paper

In addition to the list printed below, the program has created the file sp.bibtex that contains the list in bibtex format
You can import this file easily into all common literature databanks and citation aid programs


List of essential papers. We consider these as the minimum necessary citations

  1. Neese,F.
     Software update: the ORCA program system, version 5.0
     WIRES Comput. Molec. Sci., 2022 12(1)e1606
     doi.org/10.1002/wcms.1606

List of papers to cite with high priority. The work reported in these papers was absolutely
necessary for this run to complete.
Our perspective: the developers of density functionals and basis sets usually get cited in chemistry papers
Good! But without the algorithms to do something with them, the functionals or basis sets would not do anything.
Hence, in our opinion, the algorithm design and method developments papers are equally worthy of getting cited

  1. Neese,F.
     An improvement of the resolution of the identity approximation for the formation of the Coulomb matrix
     J. Comp. Chem., 2003 24(14)1740-1747
     doi.org/10.1002/jcc.10318
  2. Neese,F.
     The SHARK Integral Generation and Digestion System
     J. Comp. Chem., 2022  1-16
     doi.org/10.1002/jcc.26942
  3. Caldeweyher,E.; Bannwarth,C.; Grimme,S.
     Extension of the D3 dispersion coefficient model
     J. Chem. Phys., 2017 147 034112
     doi.org/10.1063/1.4993215
  4. Caldeweyher,E.; Ehlert,S.; Hansen,A.; Neugebauer,H.; Spicher,S.; Bannwarth,C.; Grimme,S.
     A generally applicable atomic-charge dependent London dispersion correction
     J. Chem. Phys., 2019 150 154122
     doi.org/10.1063/1.5090222
  5. Caldeweyher,E.; Mewes,J.; Ehlert,S.; Grimme,S.
     Extension and evaluation of the D4 London-dispersion model for periodic systems
     Phys. Chem. Chem. Phys., 2020 22(16)8499-8512
     doi.org/10.1039/D0CP00502A
  6. Wittmann,L.; Gordiy,I.; Friede,M.; Helmich-Paris,B.; Grimme,S.; Hansen,A.; Bursch,M.
     Extension of the D3 and D4 London Dispersion Corrections to the full Actinides Series
     Phys. Chem. Chem. Phys., 2024 26(32)21379-21394
     doi.org/https://doi.org/10.1039/D4CP01514B 

List of suggested additional citations. These are papers that are important in the 'surrounding' of 
of this run, or papers that preceded the highly important papers. If you like your results we are grateful for a citation.

  1. Neese,F.
     The ORCA program system
     WIRES Comput. Molec. Sci., 2012 2(1)73-78
     doi.org/10.1002/wcms.81
  2. Neese,F.
     Software update: the ORCA program system, version 4.0
     WIRES Comput. Molec. Sci., 2018 8(1)1-6
     doi.org/10.1002/wcms.1327
  3. Neese,F.; Wennmohs,F.; Becker,U.; Riplinger,C.
     The ORCA quantum chemistry program package
     J. Chem. Phys., 2020 152 Art. No. L224108
     doi.org/10.1063/5.0004608

List of optional additional citations

  1. Neese,F.
     Approximate second-order SCF convergence for spin unrestricted wavefunctions
     Chem. Phys. Lett., 2000 325(1-3)93-98
     doi.org/10.1016/s0009-2614(00)00662-x

Timings for individual modules:

Sum of individual times          ...       15.979 sec (=   0.266 min)
Startup calculation              ...        0.822 sec (=   0.014 min)   5.1 %
SCF iterations                   ...       14.553 sec (=   0.243 min)  91.1 %
Property calculations            ...        0.604 sec (=   0.010 min)   3.8 %
                             ****ORCA TERMINATED NORMALLY****
TOTAL RUN TIME: 0 days 0 hours 0 minutes 18 seconds 269 msec
