      -----------------------------------------------------------      
     |                   =====================                   |     
     |                           x T B                           |     
     |                   =====================                   |     
     |                         S. Grimme                         |     
     |          Mulliken Center for Theoretical Chemistry        |     
     |                    University of Bonn                     |     
      -----------------------------------------------------------      

   * xtb version 6.7.1 (edcfbbe) compiled by 'albert@albert-system' on 2024-07-22

   xtb is free software: you can redistribute it and/or modify it under
   the terms of the GNU Lesser General Public License as published by
   the Free Software Foundation, either version 3 of the License, or
   (at your option) any later version.
   
   xtb is distributed in the hope that it will be useful,
   but WITHOUT ANY WARRANTY; without even the implied warranty of
   MERCHANTABILITY or FITNESS FOR A PARTICULAR PURPOSE.  See the
   GNU Lesser General Public License for more details.
   
   Cite this work as:
   * C. Bannwarth, E. Caldeweyher, S. Ehlert, A. Hansen, P. Pracht,
     J. Seibert, S. Spicher, S. Grimme, WIREs Comput. Mol. Sci., 2020, 11,
     e01493. DOI: 10.1002/wcms.1493
   
   for GFN2-xTB:
   * C. Bannwarth, S. Ehlert and S. Grimme., J. Chem. Theory Comput., 2019,
     15, 1652-1671. DOI: 10.1021/acs.jctc.8b01176
   for GFN1-xTB:
   * S. Grimme, C. Bannwarth, P. Shushkov, J. Chem. Theory Comput., 2017,
     13, 1989-2009. DOI: 10.1021/acs.jctc.7b00118
   for GFN0-xTB:
   * P. Pracht, E. Caldeweyher, S. Ehlert, S. Grimme, ChemRxiv, 2019, preprint.
     DOI: 10.26434/chemrxiv.8326202.v1
   for GFN-FF:
   * S. Spicher and S. Grimme, Angew. Chem. Int. Ed., 2020, 59, 15665-15673.
     DOI: 10.1002/anie.202004239
   
   for ALPB and GBSA implicit solvation:
   * S. Ehlert, M. Stahn, S. Spicher, S. Grimme, J. Chem. Theory Comput.,
     2021, 17, 4250-4261. DOI: 10.1021/acs.jctc.1c00471
   
   for ddCOSMO and CPCM-X implicit solvation:
   * M. Stahn, S. Ehlert, S. Grimme, J. Phys. Chem. A,
     2023, XX, XXXX-XXXX. DOI: 10.1021/acs.jpca.3c04382
   
   for DFT-D4:
   * E. Caldeweyher, C. Bannwarth and S. Grimme, J. Chem. Phys., 2017,
     147, 034112. DOI: 10.1063/1.4993215
   * E. Caldeweyher, S. Ehlert, A. Hansen, H. Neugebauer, S. Spicher,
     C. Bannwarth and S. Grimme, J. Chem. Phys., 2019, 150, 154122.
     DOI: 10.1063/1.5090222
   * E. Caldeweyher, J.-M. Mewes, S. Ehlert and S. Grimme, Phys. Chem. Chem. Phys.
     2020, 22, 8499-8512. DOI: 10.1039/D0CP00502A
   
   for sTDA-xTB:
   * S. Grimme and C. Bannwarth, J. Chem. Phys., 2016, 145, 054103.
     DOI: 10.1063/1.4959605
   
   in the mass-spec context:
   * V. Asgeirsson, C. Bauer and S. Grimme, Chem. Sci., 2017, 8, 4879.
     DOI: 10.1039/c7sc00601b
   * J. Koopman and S. Grimme, ACS Omega 2019, 4, 12, 15120-15133.
     DOI: 10.1021/acsomega.9b02011
   
   for metadynamics refer to:
   * S. Grimme, J. Chem. Theory Comput., 2019, 155, 2847-2862
     DOI: 10.1021/acs.jctc.9b00143
   
   for SPH calculations refer to:
   * S. Spicher and S. Grimme, J. Chem. Theory Comput., 2021, 17, 1701-1714
     DOI: 10.1021/acs.jctc.0c01306
   
   for ONIOM refer to:
   * C. Plett, A. Katbashev, S. Ehlert, S. Grimme, M. Bursch,
     Phys. Chem. Chem. Phys., 2023, 25, 17860-17868. DOI: 10.1039/D3CP02178E
   
   for DIPRO refer to:
   * J. Kohn, N. Gildemeister, S. Grimme, D. Fazzi, A. Hansen,
     J. Chem. Phys., 2023, just accepted.
   
   for PTB refer to:
   * S. Grimme, M. Mueller, A. Hansen, J. Chem. Phys., 2023, 158, 124111.
     DOI: 10.1063/5.0137838
   
   with help from (in alphabetical order)
   P. Atkinson, C. Bannwarth, F. Bohle, G. Brandenburg, E. Caldeweyher
   M. Checinski, S. Dohm, S. Ehlert, S. Ehrlich, I. Gerasimov, C. Hölzer
   A. Katbashev, J. Kohn, J. Koopman, C. Lavigne, S. Lehtola, F. März, M. Müller,
   F. Musil, H. Neugebauer, J. Pisarek, C. Plett, P. Pracht, F. Pultar,
   J. Seibert, P. Shushkov, S. Spicher, M. Stahn, M. Steiner, T. Strunk,
   J. Stückrath, T. Rose, and J. Unsleber
   
 * started run on 2025/04/15 at 20:08:12.722     
   ID    Z sym.   atoms
    1    6 C      1-6, 8-13
    2   17 Cl     7, 14-17
    3    1 H      18-22

           -------------------------------------------------
          |                Calculation Setup                |
           -------------------------------------------------

          program call               : /software/projects/pawsey0265/mwang1/xtb/bin/xtb xtb_rrho.coord --gfn2 --ohess vtight --chrg 0 --enso --norestart -I rrho-xcontrol-inp --parallel 1
          hostname                   : nid002797
          coordinate file            : xtb_rrho.coord
          omp threads                :                     1


           -------------------------------------------------
          |                 G F N 2 - x T B                 |
           -------------------------------------------------

        Reference                      10.1021/acs.jctc.8b01176
      * Hamiltonian:
        H0-scaling (s, p, d)           1.850000    2.230000    2.230000
        zeta-weighting                 0.500000
      * Dispersion:
        s8                             2.700000
        a1                             0.520000
        a2                             5.000000
        s9                             5.000000
      * Repulsion:
        kExp                           1.500000    1.000000
        rExp                           1.000000
      * Coulomb:
        alpha                          2.000000
        third order                    shell-resolved
        anisotropic                    true
        a3                             3.000000
        a5                             4.000000
        cn-shift                       1.200000
        cn-exp                         4.000000
        max-rad                        5.000000


          ...................................................
          :                      SETUP                      :
          :.................................................:
          :  # basis functions                 103          :
          :  # atomic orbitals                  98          :
          :  # shells                           44          :
          :  # electrons                        88          :
          :  max. iterations                   250          :
          :  Hamiltonian                  GFN2-xTB          :
          :  restarted?                      false          :
          :  GBSA solvation                  false          :
          :  PC potential                    false          :
          :  electronic temp.          300.0000000     K    :
          :  accuracy                    1.0000000          :
          :  -> integral cutoff          0.2500000E+02      :
          :  -> integral neglect         0.1000000E-07      :
          :  -> SCF convergence          0.1000000E-05 Eh   :
          :  -> wf. convergence          0.1000000E-03 e    :
          :  Broyden damping             0.4000000          :
          :  net charge                          0          :
          :  unpaired electrons                  0          :
          ...................................................

 iter      E             dE          RMSdq      gap      omega  full diag
   1    -51.4876472 -0.514876E+02  0.479E+00    4.34       0.0  T
   2    -51.5370988 -0.494516E-01  0.286E+00    3.88       1.0  T
   3    -51.5300434  0.705542E-02  0.152E+00    3.98       1.0  T
   4    -51.5490785 -0.190351E-01  0.359E-01    3.92       1.0  T
   5    -51.5500550 -0.976520E-03  0.969E-02    3.87       1.0  T
   6    -51.5501242 -0.692184E-04  0.689E-02    3.88       1.0  T
   7    -51.5501672 -0.429375E-04  0.432E-02    3.88       1.0  T
   8    -51.5501784 -0.112335E-04  0.326E-02    3.88       1.0  T
   9    -51.5501868 -0.839124E-05  0.165E-02    3.88       1.3  T
  10    -51.5501901 -0.331425E-05  0.644E-03    3.88       3.3  T
  11    -51.5501903 -0.192265E-06  0.267E-03    3.88       8.0  T
  12    -51.5501904 -0.704769E-07  0.160E-03    3.88      13.3  T
  13    -51.5501904 -0.135609E-07  0.966E-04    3.88      22.1  T
  14    -51.5501904 -0.691929E-08  0.502E-04    3.88      42.4  T

   *** convergence criteria satisfied after 14 iterations ***

         #    Occupation            Energy/Eh            Energy/eV
      -------------------------------------------------------------
         1        2.0000           -1.0714636             -29.1560
       ...           ...                  ...                  ...
        38        2.0000           -0.4335886             -11.7985
        39        2.0000           -0.4325386             -11.7700
        40        2.0000           -0.4317262             -11.7479
        41        2.0000           -0.4216126             -11.4727
        42        2.0000           -0.4197494             -11.4220
        43        2.0000           -0.4176868             -11.3658
        44        2.0000           -0.4136190             -11.2551 (HOMO)
        45                         -0.2710405              -7.3754 (LUMO)
        46                         -0.2700004              -7.3471
        47                         -0.2648477              -7.2069
        48                         -0.2614459              -7.1143
        49                         -0.1899566              -5.1690
       ...                                ...                  ...
        98                          0.6086156              16.5613
      -------------------------------------------------------------
                  HL-Gap            0.1425785 Eh            3.8798 eV
             Fermi-level           -0.3423297 Eh           -9.3153 eV

 SCC (total)                   0 d,  0 h,  0 min,  0.062 sec
 SCC setup                      ...        0 min,  0.000 sec (  0.487%)
 Dispersion                     ...        0 min,  0.000 sec (  0.314%)
 classical contributions        ...        0 min,  0.000 sec (  0.076%)
 integral evaluation            ...        0 min,  0.029 sec ( 47.533%)
 iterations                     ...        0 min,  0.019 sec ( 31.079%)
 molecular gradient             ...        0 min,  0.012 sec ( 20.116%)
 printout                       ...        0 min,  0.000 sec (  0.354%)

         :::::::::::::::::::::::::::::::::::::::::::::::::::::
         ::                     SUMMARY                     ::
         :::::::::::::::::::::::::::::::::::::::::::::::::::::
         :: total energy             -51.018641822118 Eh    ::
         :: gradient norm              0.030882974729 Eh/a0 ::
         :: HOMO-LUMO gap              3.879759523784 eV    ::
         ::.................................................::
         :: SCC energy               -51.549845973102 Eh    ::
         :: -> isotropic ES            0.020562598568 Eh    ::
         :: -> anisotropic ES         -0.006184019389 Eh    ::
         :: -> anisotropic XC          0.016222576257 Eh    ::
         :: -> dispersion             -0.036044981179 Eh    ::
         :: repulsion energy           0.531204150984 Eh    ::
         :: add. restraining           0.000000000000 Eh    ::
         :: total charge               0.000000000000 e     ::
         :::::::::::::::::::::::::::::::::::::::::::::::::::::

      ----------------------------------------------------------- 
     |                   =====================                   |
     |                        A N C O P T                        |
     |                   =====================                   |
     |               Approximate Normal Coordinate               |
     |                Rational Function Optimizer                |
      ----------------------------------------------------------- 
      ----------------------------------------------------------- 
     |                   =====================                   |
     |                        A N C O P T                        |
     |                   =====================                   |
     |               Approximate Normal Coordinate               |
     |                Rational Function Optimizer                |
      ----------------------------------------------------------- 

          ...................................................
          :                      SETUP                      :
          :.................................................:
          :   optimization level         verytight          :
          :   max. optcycles                   440          :
          :   ANC micro-cycles                  20          :
          :   degrees of freedom                60          :
          :.................................................:
          :   RF solver                   davidson          :
          :   write xtbopt.log                true          :
          :   linear?                        false          :
          :   energy convergence         0.1000000E-06 Eh   :
          :   grad. convergence          0.2000000E-03 Eh/α :
          :   maxmium RF displ.          1.0000000          :
          :   Hlow (freq-cutoff)         0.1000000E-01      :
          :   Hmax (freq-cutoff)         5.0000000          :
          :   S6 in model hess.         20.0000000          :
          ...................................................

generating ANC from exact Hessian ...
Using Lindh-Hessian (1995)
 Shifting diagonal of input Hessian by   8.235525769284843E-003
 Lowest  eigenvalues of input Hessian
    0.000000    0.000000    0.000000    0.000000    0.000000    0.000000
    0.010000    0.010213    0.010267    0.016323    0.016421    0.018530
    0.018881    0.020029    0.026822    0.030268    0.036113    0.036956
 Highest eigenvalues
    1.829221    1.831240    1.939853    1.955923    1.973927    2.026434
 

........................................................................
.............................. CYCLE    1 ..............................
........................................................................

 iter      E             dE          RMSdq      gap      omega  full diag
   1    -51.5501904 -0.515502E+02  0.316E-04    3.88       0.0  T
   2    -51.5501904 -0.320718E-09  0.247E-04    3.88      86.3  T
   3    -51.5501904 -0.188692E-09  0.205E-04    3.88     104.2  T
     SCC iter.                  ...        0 min,  0.004 sec
     gradient                   ...        0 min,  0.012 sec
 * total energy  :   -51.0186418 Eh     change       -0.2565486E-08 Eh
   gradient norm :     0.0308835 Eh/α   predicted     0.0000000E+00 (-100.00%)
   displ. norm   :     0.1212776 α      lambda       -0.1754369E-02
   maximum displ.:     0.0992453 α      in ANC's #10, #32, #36, ...

........................................................................
.............................. CYCLE    2 ..............................
........................................................................

 iter      E             dE          RMSdq      gap      omega  full diag
   1    -51.5665750 -0.515666E+02  0.968E-02    3.91       0.0  T
   2    -51.5665975 -0.224688E-04  0.665E-02    3.92       1.0  T
   3    -51.5666158 -0.182493E-04  0.409E-02    3.92       1.0  T
   4    -51.5666217 -0.596562E-05  0.130E-02    3.92       1.6  T
   5    -51.5666222 -0.480738E-06  0.994E-03    3.92       2.1  T
   6    -51.5666228 -0.614029E-06  0.553E-03    3.92       3.9  T
   7    -51.5666232 -0.434442E-06  0.217E-03    3.92       9.8  T
   8    -51.5666233 -0.438619E-07  0.137E-03    3.92      15.5  T
   9    -51.5666233 -0.128175E-07  0.802E-04    3.92      26.6  T
  10    -51.5666233 -0.298730E-08  0.521E-04    3.92      40.9  T
     SCC iter.                  ...        0 min,  0.013 sec
     gradient                   ...        0 min,  0.012 sec
 * total energy  :   -51.0198963 Eh     change       -0.1254472E-02 Eh
   gradient norm :     0.0201571 Eh/α   predicted    -0.8900978E-03 ( -29.05%)
   displ. norm   :     0.1027753 α      lambda       -0.8120007E-03
   maximum displ.:     0.0905644 α      in ANC's #10, #32, #36, ...

........................................................................
.............................. CYCLE    3 ..............................
........................................................................

 iter      E             dE          RMSdq      gap      omega  full diag
   1    -51.5746416 -0.515746E+02  0.969E-02    3.93       0.0  T
   2    -51.5746720 -0.304782E-04  0.679E-02    3.94       1.0  T
   3    -51.5746933 -0.212249E-04  0.411E-02    3.94       1.0  T
   4    -51.5746982 -0.490418E-05  0.146E-02    3.94       1.5  T
   5    -51.5746989 -0.716063E-06  0.112E-02    3.94       1.9  T
   6    -51.5746993 -0.446609E-06  0.794E-03    3.94       2.7  T
   7    -51.5747002 -0.810436E-06  0.271E-03    3.94       7.9  T
   8    -51.5747002 -0.664104E-07  0.159E-03    3.94      13.4  T
   9    -51.5747002 -0.190883E-07  0.907E-04    3.94      23.5  T
  10    -51.5747002 -0.374583E-08  0.649E-04    3.94      32.9  T
     SCC iter.                  ...        0 min,  0.013 sec
     gradient                   ...        0 min,  0.012 sec
 * total energy  :   -51.0203612 Eh     change       -0.4648710E-03 Eh
   gradient norm :     0.0074680 Eh/α   predicted    -0.4104857E-03 ( -11.70%)
   displ. norm   :     0.0163094 α      lambda       -0.7327226E-04
   maximum displ.:     0.0118380 α      in ANC's #10, #50, #32, ...

........................................................................
.............................. CYCLE    4 ..............................
........................................................................

 iter      E             dE          RMSdq      gap      omega  full diag
   1    -51.5730722 -0.515731E+02  0.243E-02    3.93       0.0  T
   2    -51.5730746 -0.245538E-05  0.171E-02    3.93       1.2  T
   3    -51.5730757 -0.112153E-05  0.104E-02    3.93       2.1  T
   4    -51.5730760 -0.256240E-06  0.400E-03    3.93       5.3  T
   5    -51.5730761 -0.884537E-07  0.273E-03    3.93       7.8  T
   6    -51.5730761 -0.286739E-07  0.212E-03    3.93      10.1  T
   7    -51.5730762 -0.477835E-07  0.877E-04    3.93      24.3  T
   8    -51.5730762 -0.660631E-08  0.455E-04    3.93      46.9  T
     SCC iter.                  ...        0 min,  0.011 sec
     gradient                   ...        0 min,  0.012 sec
 * total energy  :   -51.0204083 Eh     change       -0.4714616E-04 Eh
   gradient norm :     0.0023976 Eh/α   predicted    -0.3670679E-04 ( -22.14%)
   displ. norm   :     0.0076051 α      lambda       -0.1281817E-04
   maximum displ.:     0.0050275 α      in ANC's #32, #10, #50, ...

........................................................................
.............................. CYCLE    5 ..............................
........................................................................

 iter      E             dE          RMSdq      gap      omega  full diag
   1    -51.5714614 -0.515715E+02  0.808E-03    3.93       0.0  T
   2    -51.5714617 -0.260808E-06  0.553E-03    3.93       3.9  T
   3    -51.5714617 -0.429176E-07  0.328E-03    3.93       6.5  T
   4    -51.5714618 -0.354375E-07  0.131E-03    3.93      16.2  T
   5    -51.5714618 -0.195199E-07  0.687E-04    3.93      31.1  T
   6    -51.5714618 -0.190118E-08  0.543E-04    3.93      39.3  T
     SCC iter.                  ...        0 min,  0.008 sec
     gradient                   ...        0 min,  0.012 sec
 * total energy  :   -51.0204153 Eh     change       -0.6938952E-05 Eh
   gradient norm :     0.0002816 Eh/α   predicted    -0.6438953E-05 (  -7.21%)
   displ. norm   :     0.0038769 α      lambda       -0.1000483E-06
   maximum displ.:     0.0034544 α      in ANC's #10, #3, #32, ...

........................................................................
.............................. CYCLE    6 ..............................
........................................................................

 iter      E             dE          RMSdq      gap      omega  full diag
   1    -51.5712070 -0.515712E+02  0.219E-03    3.93       0.0  T
   2    -51.5712070 -0.270092E-08  0.132E-03    3.93      16.1  T
   3    -51.5712070  0.401560E-08  0.666E-04    3.93      32.0  T
   4    -51.5712070 -0.598236E-08  0.159E-04    3.93     134.5  T
     SCC iter.                  ...        0 min,  0.006 sec
     gradient                   ...        0 min,  0.012 sec
 * total energy  :   -51.0204154 Eh     change       -0.1769889E-06 Eh
   gradient norm :     0.0001003 Eh/α   predicted    -0.1366642E-06 ( -22.78%)
   displ. norm   :     0.0013015 α      lambda       -0.1354960E-07
   maximum displ.:     0.0011868 α      in ANC's #3, #32, #1, ...

........................................................................
.............................. CYCLE    7 ..............................
........................................................................

 iter      E             dE          RMSdq      gap      omega  full diag
   1    -51.5712968 -0.515713E+02  0.779E-04    3.93       0.0  T
   2    -51.5712968 -0.403787E-09  0.492E-04    3.93      43.4  T
   3    -51.5712968  0.727354E-09  0.268E-04    3.93      79.5  T
     SCC iter.                  ...        0 min,  0.004 sec
     gradient                   ...        0 min,  0.012 sec
 * total energy  :   -51.0204155 Eh     change       -0.2573640E-07 Eh
   gradient norm :     0.0000317 Eh/α   predicted    -0.1393556E-07 ( -45.85%)
   displ. norm   :     0.0013015 α      lambda        0.0000000E+00
   maximum displ.:     0.0011868 α      in ANC's #3, #32, #1, ...

   *** GEOMETRY OPTIMIZATION CONVERGED AFTER 7 ITERATIONS ***

------------------------------------------------------------------------
 total energy gain   :        -0.0017736 Eh       -1.1130 kcal/mol
 total RMSD          :         0.0482563 a0        0.0255 Å
 total power (kW/mol):        -0.6652392 (step)  -24.2971 (real)
------------------------------------------------------------------------

 ANCopt (total)                0 d,  0 h,  0 min,  0.192 sec
 optimizer setup                ...        0 min,  0.000 sec (  0.190%)
 model hessian                  ...        0 min,  0.002 sec (  1.039%)
 ANC generation                 ...        0 min,  0.000 sec (  0.237%)
 coordinate transformation      ...        0 min,  0.000 sec (  0.042%)
 single point calculation       ...        0 min,  0.186 sec ( 97.200%)
 optimization log               ...        0 min,  0.001 sec (  0.748%)
 hessian update                 ...        0 min,  0.000 sec (  0.041%)
 rational function              ...        0 min,  0.001 sec (  0.287%)

================
 final structure:
================
$coord
       -7.71236544459567        0.00025370176045        0.00014347982791      C
       -6.41888569617369       -1.61613192687312       -1.59790990829275      C
       -3.80117246955818       -1.60572759569269       -1.58751374708527      C
       -2.45266929364976        0.00023206774068        0.00006993328452      C
       -3.80111165174338        1.60620324165720        1.58768483388115      C
       -6.41882417484981        1.61662969840222        1.59815594579776      C
       -2.14976914515684        3.60450432462777        3.56471955340432      Cl
        0.34474981213819        0.00020291967197        0.00004519959378      C
        1.69727526235442       -1.60583150647887        1.58580338669170      C
        4.31495687230102       -1.62485408880741        1.60441558363840      C
        5.59929550491948       -0.00012227410021       -0.00024307985738      C
        4.31498031177796        1.62485042270525       -1.60467714903159      C
        1.69729811766062        1.60616378045928       -1.58576706573039      C
        0.06320418109635        3.60619155335275       -3.56212544037180      Cl
        8.84898475927814       -0.00066929622641       -0.00077656666840      Cl
        0.06315060872053       -3.60579445823528        3.56220227594092      Cl
       -2.14991387159175       -3.60404583787992       -3.56460489648337      Cl
       -9.75093661550643        0.00025751732126        0.00017821805586      H
       -7.41948171102594       -2.87786335745645       -2.84556168127555      H
       -7.41937182306384        2.87836746655681        2.84583930820003      H
        5.32794731351656       -2.88178329623749        2.84575121706096      H
        5.32799113112718        2.88161478805099       -2.84616317279509      H
$end
 
 Bond Distances (Angstroems)
 ---------------------------
C1-C2=1.3839         C1-C6=1.3839         C1-H18=1.0788        C2-C1=1.3839         C2-C3=1.3853         C2-H19=1.0780        
C3-C2=1.3853         C3-C4=1.3918         C3-Cl17=1.7252       C4-C3=1.3918         C4-C5=1.3918         C4-C8=1.4803         
C5-C4=1.3918         C5-C6=1.3853         C5-Cl7=1.7252        C6-C1=1.3839         C6-C5=1.3853         C6-H20=1.0780        
Cl7-C5=1.7252        C8-C4=1.4803         C8-C9=1.3924         C8-C13=1.3924        C9-C8=1.3924         C9-C10=1.3853        
C9-Cl16=1.7210       C10-C9=1.3853        C10-C11=1.3864       C10-H21=1.0776       C11-C10=1.3864       C11-C12=1.3864       
C11-Cl15=1.7197      C12-C11=1.3864       C12-C13=1.3853       C12-H22=1.0776       C13-C8=1.3924        C13-C12=1.3853       
C13-Cl14=1.7210      Cl14-C13=1.7210      Cl15-C11=1.7197      Cl16-C9=1.7210       Cl17-C3=1.7252       H18-C1=1.0788        
H19-C2=1.0780        H20-C6=1.0780        H21-C10=1.0776       H22-C12=1.0776       
 C  H  Rav=1.0780 sigma=0.0004  Rmin=1.0776  Rmax=1.0788     5
 C  C  Rav=1.3947 sigma=0.0249  Rmin=1.3839  Rmax=1.4803    13
 Cl C  Rav=1.7224 sigma=0.0023  Rmin=1.7197  Rmax=1.7252     5
 
 selected bond angles (degree)
 --------------------
C6-C1-C2=120.71                H18-C1-C2=119.64               H18-C1-C6=119.64               C3-C2-C1=119.32                
H19-C2-C1=120.94               H19-C2-C3=119.74               C4-C3-C2=121.17                Cl17-C3-C2=120.11              
Cl17-C3-C4=118.73              C5-C4-C3=118.31                C8-C4-C3=120.84                C8-C4-C5=120.84                
C6-C5-C4=121.17                Cl7-C5-C4=118.73               Cl7-C5-C6=120.11               C5-C6-C1=119.32                
H20-C6-C1=120.94               H20-C6-C5=119.74               C9-C8-C4=120.93                C13-C8-C4=120.93               
C13-C8-C9=118.13               C10-C9-C8=121.52               Cl16-C9-C8=118.90              Cl16-C9-C10=119.58             
C11-C10-C9=118.77              H21-C10-C9=120.41              H21-C10-C11=120.81             
 
 selected dihedral angles (degree)
 ---------------------------------
C3-C2-C1-C6=  0.00            C3-C2-C1-H18=180.00           H19-C2-C1-C6=180.01           H19-C2-C1-H18=  0.00          
C4-C3-C2-C1=  0.00            C4-C3-C2-H19=179.99           Cl17-C3-C2-C1=180.02          Cl17-C3-C2-H19=  0.00         
C5-C4-C3-C2=  0.00            C5-C4-C3-Cl17=179.98          C8-C4-C3-C2=180.00            C8-C4-C3-Cl17=359.98          
C6-C5-C4-C3=  0.00            C6-C5-C4-C8=180.00            Cl7-C5-C4-C3=179.98           Cl7-C5-C4-C8=  0.00           
C5-C6-C1-C2=  0.00            C5-C6-C1-H18=180.00           H20-C6-C1-C2=180.01           H20-C6-C1-H18=  0.00          
C1-C6-C5-C4=  0.00            C1-C6-C5-Cl7=180.02           H20-C6-C5-C4=179.99           H20-C6-C5-Cl7=  0.00          
C9-C8-C4-C3=270.69            C9-C8-C4-C5= 90.69            C13-C8-C4-C3= 90.69           C13-C8-C4-C5=270.69           
C10-C9-C8-C4=180.00           C10-C9-C8-C13=  0.00          Cl16-C9-C8-C4=359.98          Cl16-C9-C8-C13=179.98         
C11-C10-C9-C8=  0.00          C11-C10-C9-Cl16=180.02        H21-C10-C9-C8=179.99          H21-C10-C9-Cl16=  0.00        
           -------------------------------------------------
          |                Final Singlepoint                |
           -------------------------------------------------

          ...................................................
          :                      SETUP                      :
          :.................................................:
          :  # basis functions                 103          :
          :  # atomic orbitals                  98          :
          :  # shells                           44          :
          :  # electrons                        88          :
          :  max. iterations                   250          :
          :  Hamiltonian                  GFN2-xTB          :
          :  restarted?                      false          :
          :  GBSA solvation                  false          :
          :  PC potential                    false          :
          :  electronic temp.          300.0000000     K    :
          :  accuracy                    1.0000000          :
          :  -> integral cutoff          0.2500000E+02      :
          :  -> integral neglect         0.1000000E-07      :
          :  -> SCF convergence          0.1000000E-05 Eh   :
          :  -> wf. convergence          0.1000000E-03 e    :
          :  Broyden damping             0.4000000          :
          :  net charge                          0          :
          :  unpaired electrons                  0          :
          ...................................................

 iter      E             dE          RMSdq      gap      omega  full diag
   1    -51.5712968 -0.515713E+02  0.105E-04    3.93       0.0  T
   2    -51.5712968 -0.361098E-10  0.907E-05    3.93     235.0  T
   3    -51.5712968 -0.145093E-10  0.770E-05    3.93     276.9  T

   *** convergence criteria satisfied after 3 iterations ***

         #    Occupation            Energy/Eh            Energy/eV
      -------------------------------------------------------------
         1        2.0000           -1.0730238             -29.1985
       ...           ...                  ...                  ...
        38        2.0000           -0.4338396             -11.8054
        39        2.0000           -0.4327461             -11.7756
        40        2.0000           -0.4319245             -11.7533
        41        2.0000           -0.4212652             -11.4632
        42        2.0000           -0.4192714             -11.4090
        43        2.0000           -0.4166702             -11.3382
        44        2.0000           -0.4132198             -11.2443 (HOMO)
        45                         -0.2687892              -7.3141 (LUMO)
        46                         -0.2681320              -7.2962
        47                         -0.2622337              -7.1357
        48                         -0.2597763              -7.0689
        49                         -0.1814382              -4.9372
       ...                                ...                  ...
        98                          0.6250991              17.0098
      -------------------------------------------------------------
                  HL-Gap            0.1444306 Eh            3.9302 eV
             Fermi-level           -0.3410045 Eh           -9.2792 eV

 SCC (total)                   0 d,  0 h,  0 min,  0.022 sec
 SCC setup                      ...        0 min,  0.000 sec (  0.907%)
 Dispersion                     ...        0 min,  0.000 sec (  0.359%)
 classical contributions        ...        0 min,  0.000 sec (  0.106%)
 integral evaluation            ...        0 min,  0.005 sec ( 24.319%)
 iterations                     ...        0 min,  0.004 sec ( 18.599%)
 molecular gradient             ...        0 min,  0.012 sec ( 54.621%)
 printout                       ...        0 min,  0.000 sec (  0.979%)

         :::::::::::::::::::::::::::::::::::::::::::::::::::::
         ::                     SUMMARY                     ::
         :::::::::::::::::::::::::::::::::::::::::::::::::::::
         :: total energy             -51.020415457104 Eh    ::
         :: gradient norm              0.000030153297 Eh/a0 ::
         :: HOMO-LUMO gap              3.930157126688 eV    ::
         ::.................................................::
         :: SCC energy               -51.570956664376 Eh    ::
         :: -> isotropic ES            0.019334388798 Eh    ::
         :: -> anisotropic ES         -0.004818930233 Eh    ::
         :: -> anisotropic XC          0.015709254086 Eh    ::
         :: -> dispersion             -0.036533417358 Eh    ::
         :: repulsion energy           0.550541207272 Eh    ::
         :: add. restraining           0.000000000000 Eh    ::
         :: total charge              -0.000000000000 e     ::
         :::::::::::::::::::::::::::::::::::::::::::::::::::::

           ------------------------------------------------- 
          |                Numerical Hessian                |
           ------------------------------------------------- 
step length          :   0.00500
SCC accuracy         :   0.30000
Hessian scale factor :   1.00000
frozen atoms in %    :   0.00000    0
RMS gradient         :   0.00003
estimated CPU  time      0.06 min
estimated wall time      0.06 min

writing file <hessian>.

 projected vibrational frequencies (cm⁻¹)
eigval :       -0.00    -0.00    -0.00    -0.00     0.00     0.00
eigval :      -11.38    32.93    55.21    82.01    82.92   126.72
eigval :      145.82   177.24   185.92   187.91   190.37   251.41
eigval :      279.39   309.71   360.74   379.07   380.10   394.09
eigval :      431.50   463.49   498.58   506.15   533.10   552.47
eigval :      554.73   674.22   683.92   699.11   766.89   781.65
eigval :      801.38   808.34   834.54   868.87   886.79   919.68
eigval :      965.68  1056.85  1111.90  1118.59  1145.76  1168.55
eigval :     1168.79  1183.30  1267.68  1301.05  1304.04  1360.04
eigval :     1398.83  1398.93  1461.37  1535.78  1553.82  1558.33
eigval :     1574.04  3098.75  3112.07  3116.39  3119.11  3119.86
           -------------------------------------------------
          |                Property Printout                |
           -------------------------------------------------

    * Orbital Energies and Occupations

         #    Occupation            Energy/Eh            Energy/eV
      -------------------------------------------------------------
         1        2.0000           -1.0730237             -29.1985
       ...           ...                  ...                  ...
        32        2.0000           -0.4703525             -12.7989
        33        2.0000           -0.4684827             -12.7481
        34        2.0000           -0.4562785             -12.4160
        35        2.0000           -0.4404514             -11.9853
        36        2.0000           -0.4399344             -11.9712
        37        2.0000           -0.4372695             -11.8987
        38        2.0000           -0.4338397             -11.8054
        39        2.0000           -0.4327464             -11.7756
        40        2.0000           -0.4319245             -11.7533
        41        2.0000           -0.4212651             -11.4632
        42        2.0000           -0.4192717             -11.4090
        43        2.0000           -0.4166703             -11.3382
        44        2.0000           -0.4132201             -11.2443 (HOMO)
        45                         -0.2687894              -7.3141 (LUMO)
        46                         -0.2681324              -7.2963
        47                         -0.2622339              -7.1357
        48                         -0.2597766              -7.0689
        49                         -0.1814389              -4.9372
        50                         -0.1652020              -4.4954
        51                         -0.1492708              -4.0619
        52                         -0.1440766              -3.9205
        53                         -0.1420855              -3.8663
        54                         -0.1366541              -3.7185
        55                         -0.1350264              -3.6743
       ...                                ...                  ...
        98                          0.6250990              17.0098
      -------------------------------------------------------------
                  HL-Gap            0.1444307 Eh            3.9302 eV
             Fermi-level           -0.3410047 Eh           -9.2792 eV

     #   Z          covCN         q      C6AA      α(0)
     1   6 C        2.924    -0.023    28.589     8.768
     2   6 C        2.951    -0.041    29.027     8.837
     3   6 C        2.893     0.103    25.724     8.316
     4   6 C        3.057     0.006    27.834     8.652
     5   6 C        2.893     0.103    25.724     8.316
     6   6 C        2.951    -0.041    29.027     8.837
     7  17 Cl       0.970    -0.152   103.900    15.594
     8   6 C        3.057     0.003    27.895     8.661
     9   6 C        2.895     0.104    25.700     8.312
    10   6 C        2.994    -0.055    29.354     8.887
    11   6 C        2.892     0.104    25.698     8.311
    12   6 C        2.994    -0.055    29.354     8.887
    13   6 C        2.895     0.104    25.700     8.312
    14  17 Cl       0.975    -0.133   103.299    15.549
    15  17 Cl       0.975    -0.134   103.329    15.551
    16  17 Cl       0.975    -0.133   103.299    15.549
    17  17 Cl       0.970    -0.152   103.900    15.594
    18   1 H        0.926     0.066     2.133     2.284
    19   1 H        0.926     0.073     2.057     2.243
    20   1 H        0.926     0.073     2.057     2.243
    21   1 H        0.926     0.090     1.877     2.142
    22   1 H        0.926     0.090     1.877     2.142

 Mol. C6AA /au·bohr⁶  :      14588.006070
 Mol. C8AA /au·bohr⁸  :     477656.788795
 Mol. α(0) /au        :        191.988886


Wiberg/Mayer (AO) data.
largest (>0.10) Wiberg bond orders for each atom

 ---------------------------------------------------------------------------
     #   Z sym  total        # sym  WBO       # sym  WBO       # sym  WBO
 ---------------------------------------------------------------------------
     1   6 C    3.989 --     6 C    1.436     2 C    1.436    18 H    0.966
                             4 C    0.103
     2   6 C    3.986 --     1 C    1.436     3 C    1.401    19 H    0.965
     3   6 C    3.923 --     2 C    1.401     4 C    1.369    17 Cl   0.989
     4   6 C    3.988 --     5 C    1.369     3 C    1.369     8 C    1.004
                             1 C    0.103
     5   6 C    3.923 --     6 C    1.401     4 C    1.369     7 Cl   0.989
     6   6 C    3.986 --     1 C    1.436     5 C    1.401    20 H    0.965
     7  17 Cl   1.131 --     5 C    0.989
     8   6 C    3.987 --    13 C    1.364     9 C    1.364     4 C    1.004
     9   6 C    3.930 --    10 C    1.401     8 C    1.364    16 Cl   1.000
    10   6 C    3.982 --     9 C    1.401    11 C    1.396    21 H    0.961
    11   6 C    3.930 --    12 C    1.396    10 C    1.396    15 Cl   1.000
    12   6 C    3.982 --    13 C    1.401    11 C    1.396    22 H    0.961
    13   6 C    3.930 --    12 C    1.401     8 C    1.364    14 Cl   1.000
    14  17 Cl   1.143 --    13 C    1.000
    15  17 Cl   1.139 --    11 C    1.000
    16  17 Cl   1.143 --     9 C    1.000
    17  17 Cl   1.131 --     3 C    0.989
    18   1 H    0.995 --     1 C    0.966
    19   1 H    0.993 --     2 C    0.965
    20   1 H    0.993 --     6 C    0.965
    21   1 H    0.990 --    10 C    0.961
    22   1 H    0.990 --    12 C    0.961
 ---------------------------------------------------------------------------

Topologies differ in total number of bonds
Writing topology from bond orders to xtbtopo.mol

molecular dipole:
                 x           y           z       tot (Debye)
 q only:       -0.926       0.000       0.000
   full:       -0.718       0.000       0.000       1.825
molecular quadrupole (traceless):
                xx          xy          yy          xz          yz          zz
 q only:       11.602       0.000      -5.870       0.001      -1.066      -5.732
  q+dip:       11.221       0.000      -5.611       0.000      -0.528      -5.609
   full:        9.173       0.000      -4.614       0.000      -0.490      -4.559

           -------------------------------------------------
          |                Geometry Summary                 |
           -------------------------------------------------

      molecular mass/u    :      326.4332224
   center of mass at/Å    :       -0.0000844       0.0000481      -0.0000295
  moments of inertia/u·Å² :        0.1177286E+04   0.2370040E+04   0.2383805E+04
rotational constants/cm⁻¹ :        0.1431906E-01   0.7112805E-02   0.7071734E-02

 * 22 selected distances

     #   Z          #   Z                                           value/Å
     1   6 C        2   6 C                                       1.3839343
     2   6 C        3   6 C                                       1.3852562
     3   6 C        4   6 C                                       1.3918458
     4   6 C        5   6 C                                       1.3918430
     1   6 C        6   6 C                                       1.3839340
     5   6 C        6   6 C                                       1.3852560
     5   6 C        7  17 Cl                                      1.7252157
     8   6 C        9   6 C                                       1.3923800
     9   6 C       10   6 C                                       1.3852892
    10   6 C       11   6 C                                       1.3864251
    11   6 C       12   6 C                                       1.3864253
     8   6 C       13   6 C                                       1.3923797
    12   6 C       13   6 C                                       1.3852893
    13   6 C       14  17 Cl                                      1.7209546
    11   6 C       15  17 Cl                                      1.7196617
     9   6 C       16  17 Cl                                      1.7209547
     3   6 C       17  17 Cl                                      1.7252169 (max)
     1   6 C       18   1 H                                       1.0787655
     2   6 C       19   1 H                                       1.0779892
     6   6 C       20   1 H                                       1.0779890
    10   6 C       21   1 H                                       1.0776179 (min)
    12   6 C       22   1 H                                       1.0776179

 * 3 distinct bonds (by element types)

   Z      Z             #   av. dist./Å        max./Å        min./Å
   1 H    6 C           5     1.0779959     1.0787655     1.0776179
   6 C    6 C          12     1.3875215     1.3923800     1.3839340
   6 C   17 Cl          5     1.7224007     1.7252169     1.7196617

           -------------------------------------------------
          |               Frequency Printout                |
           -------------------------------------------------
 projected vibrational frequencies (cm⁻¹)
eigval :       -0.00    -0.00    -0.00    -0.00     0.00     0.00
eigval :      -11.38    32.93    55.21    82.01    82.92   126.72
eigval :      145.82   177.24   185.92   187.91   190.37   251.41
eigval :      279.39   309.71   360.74   379.07   380.10   394.09
eigval :      431.50   463.49   498.58   506.15   533.10   552.47
eigval :      554.73   674.22   683.92   699.11   766.89   781.65
eigval :      801.38   808.34   834.54   868.87   886.79   919.68
eigval :      965.68  1056.85  1111.90  1118.59  1145.76  1168.55
eigval :     1168.79  1183.30  1267.68  1301.05  1304.04  1360.04
eigval :     1398.83  1398.93  1461.37  1535.78  1553.82  1558.33
eigval :     1574.04  3098.75  3112.07  3116.39  3119.11  3119.86
 reduced masses (amu)
   1: 26.28   2: 26.89   3: 24.25   4: 26.68   5: 24.12   6: 28.11   7: 31.89   8: 31.61
   9: 19.92  10: 33.17  11: 33.20  12: 33.61  13: 19.11  14: 31.52  15: 30.97  16: 13.16
  17: 13.00  18: 28.22  19: 14.60  20: 14.91  21: 34.64  22: 21.38  23: 25.81  24: 19.72
  25: 12.72  26: 13.27  27: 11.56  28: 11.59  29: 17.01  30: 10.68  31: 10.61  32: 11.84
  33: 11.85  34: 12.97  35: 15.10  36: 15.27  37:  3.28  38: 13.95  39:  3.45  40:  3.79
  41:  3.83  42:  3.41  43: 11.82  44:  9.84  45:  4.08  46:  8.67  47: 11.33  48:  3.74
  49:  3.29  50:  4.07  51:  9.12  52: 11.88  53: 11.97  54: 10.59  55:  9.75  56:  9.00
  57: 10.95  58: 11.88  59: 11.58  60: 11.82  61: 11.76  62:  1.79  63:  1.84  64:  1.90
  65:  1.85  66:  1.85
 IR intensities (km·mol⁻¹)
   1:  0.26   2:  0.07   3:  0.12   4:  0.08   5:  0.21   6:  0.01   7:  0.00   8:  0.17
   9:  0.41  10:  0.05  11:  0.20  12:  0.06  13:  0.22  14:  0.82  15:  1.14  16:  0.00
  17:  0.00  18:  0.22  19:  2.28  20:  0.53  21:  0.59  22:  2.13  23:  0.00  24:  1.91
  25:  0.10  26:  0.25  27:  0.00  28:  0.00  29:  0.69  30:  0.10  31:  0.85  32:  0.00
  33:  0.00  34:  1.53  35: 13.45  36: 14.74  37: 20.15  38: 25.90  39: 16.96  40:  0.00
  41:  0.00  42:  0.02  43:  0.00  44:  0.08  45:  0.96  46: 12.65  47:  1.26  48:  3.89
  49:  4.65  50: 13.26  51:  2.76  52:  3.64  53:  0.79  54: 58.70  55: 57.33  56: 54.90
  57: 18.84  58: 95.98  59: 63.84  60:126.70  61:  3.81  62:  9.87  63:  4.75  64:  3.32
  65:  0.88  66:  0.02
 Raman intensities (Ä⁴*amu⁻¹)
   1:  0.00   2:  0.00   3:  0.00   4:  0.00   5:  0.00   6:  0.00   7:  0.00   8:  0.00
   9:  0.00  10:  0.00  11:  0.00  12:  0.00  13:  0.00  14:  0.00  15:  0.00  16:  0.00
  17:  0.00  18:  0.00  19:  0.00  20:  0.00  21:  0.00  22:  0.00  23:  0.00  24:  0.00
  25:  0.00  26:  0.00  27:  0.00  28:  0.00  29:  0.00  30:  0.00  31:  0.00  32:  0.00
  33:  0.00  34:  0.00  35:  0.00  36:  0.00  37:  0.00  38:  0.00  39:  0.00  40:  0.00
  41:  0.00  42:  0.00  43:  0.00  44:  0.00  45:  0.00  46:  0.00  47:  0.00  48:  0.00
  49:  0.00  50:  0.00  51:  0.00  52:  0.00  53:  0.00  54:  0.00  55:  0.00  56:  0.00
  57:  0.00  58:  0.00  59:  0.00  60:  0.00  61:  0.00  62:  0.00  63:  0.00  64:  0.00
  65:  0.00  66:  0.00
 output can be read by thermo (or use thermo option).
 writing <g98.out> molden fake output.
 recommended (thermochemical) frequency scaling factor: 1.0
           -------------------------------------------------
          |             Thermodynamic Functions             |
           -------------------------------------------------

Molecule has the following symmetry elements: (C2) 2*(sigma) 
It seems to be the C2v point group
c2v symmetry found (for desy threshold:  0.10E+00) used in thermo
 inverting freq            1   11.3750331768018     

          ...................................................
          :                      SETUP                      :
          :.................................................:
          :  # frequencies                          60      :
          :  # imaginary freq.                       0      :
          :  linear?                             false      :
          :  only rotor calc.                    false      :
          :  symmetry                              c2v      :
          :  rotational number                       2      :
          :  scaling factor                  1.0000000      :
          :  rotor cutoff                    0.0000000 cm⁻¹ :
          :  imag. cutoff                 -100.0000000 cm⁻¹ :
          :.................................................:

    mode    ω/cm⁻¹     T·S(HO)/kcal·mol⁻¹    T·S(FR)/kcal·mol⁻¹   T·S(vib)
   ------------------------------------------------------------------------
       1     11.38    -2.31217 (100.00%)    -1.49495 (  0.00%)    -2.31217
       2     32.93    -1.68290 (100.00%)    -1.18018 (  0.00%)    -1.68290
       3     55.21    -1.37791 (100.00%)    -1.02715 (  0.00%)    -1.37791
       4     82.01    -1.14553 (100.00%)    -0.90993 (  0.00%)    -1.14553
       5     82.92    -1.13906 (100.00%)    -0.90665 (  0.00%)    -1.13906
       6    126.72    -0.89305 (100.00%)    -0.78105 (  0.00%)    -0.89305
       7    145.82    -0.81279 (100.00%)    -0.73946 (  0.00%)    -0.81279
       8    177.24    -0.70282 (100.00%)    -0.68164 (  0.00%)    -0.70282
       9    185.92    -0.67624 (100.00%)    -0.66748 (  0.00%)    -0.67624
      10    187.91    -0.67033 (100.00%)    -0.66433 (  0.00%)    -0.67033
      11    190.37    -0.66315 (100.00%)    -0.66048 (  0.00%)    -0.66315
      12    251.41    -0.51302 (100.00%)    -0.57809 (  0.00%)    -0.51302
      13    279.39    -0.45837 (100.00%)    -0.54683 (  0.00%)    -0.45837
   ------------------------------------------------------------------------

   temp. (K)  partition function   enthalpy   heat capacity  entropy
                                   cal/mol     cal/K/mol   cal/K/mol   J/K/mol
 298.15  VIB  0.236E+07             8304.059     51.677     57.014
         ROT  0.312E+07              888.752      2.981     32.694
         INT  0.736E+13             9192.811     54.658     89.708
         TR   0.571E+28             1481.254      4.968     43.225
         TOT                       10674.0653    59.6262   132.9332   556.1924

       T/K    H(0)-H(T)+PV         H(T)/Eh          T*S/Eh         G(T)/Eh
   ------------------------------------------------------------------------
    298.15    0.170102E-01    0.144811E+00    0.631608E-01    0.816498E-01
   ------------------------------------------------------------------------

         :::::::::::::::::::::::::::::::::::::::::::::::::::::
         ::                  THERMODYNAMIC                  ::
         :::::::::::::::::::::::::::::::::::::::::::::::::::::
         :: total free energy         -50.938765705132 Eh   ::
         ::.................................................::
         :: total energy              -51.020415457202 Eh   ::
         :: zero point energy           0.127800389209 Eh   ::
         :: G(RRHO) w/o ZPVE           -0.046150637139 Eh   ::
         :: G(RRHO) contrib.            0.081649752071 Eh   ::
         :::::::::::::::::::::::::::::::::::::::::::::::::::::
imag cut-off (cm-1) :    5.00
 found            1  significant imaginary frequency
 writing imag mode distorted coords to xtbhess.coord
 for further optimization.

optimized geometry written to: xtbopt.coord


           -------------------------------------------------
          | TOTAL ENERGY              -51.020415457202 Eh   |
          | TOTAL ENTHALPY            -50.875604862239 Eh   |
          | TOTAL FREE ENERGY         -50.938765705132 Eh   |
          | GRADIENT NORM               0.000031387733 Eh/α |
          | HOMO-LUMO GAP               3.930158986287 eV   |
           -------------------------------------------------

------------------------------------------------------------------------
 * finished run on 2025/04/15 at 20:08:16.826     
------------------------------------------------------------------------
 total:
 * wall-time:     0 d,  0 h,  0 min,  4.103 sec
 *  cpu-time:     0 d,  0 h,  0 min,  4.069 sec
 * ratio c/w:     0.992 speedup
 SCF:
 * wall-time:     0 d,  0 h,  0 min,  0.062 sec
 *  cpu-time:     0 d,  0 h,  0 min,  0.045 sec
 * ratio c/w:     0.718 speedup
 ANC optimizer:
 * wall-time:     0 d,  0 h,  0 min,  0.222 sec
 *  cpu-time:     0 d,  0 h,  0 min,  0.216 sec
 * ratio c/w:     0.971 speedup
 analytical hessian:
 * wall-time:     0 d,  0 h,  0 min,  3.792 sec
 *  cpu-time:     0 d,  0 h,  0 min,  3.790 sec
 * ratio c/w:     1.000 speedup

