      -----------------------------------------------------------      
     |                   =====================                   |     
     |                           x T B                           |     
     |                   =====================                   |     
     |                         S. Grimme                         |     
     |          Mulliken Center for Theoretical Chemistry        |     
     |                    University of Bonn                     |     
      -----------------------------------------------------------      

   * xtb version 6.7.1 (edcfbbe) compiled by 'albert@albert-system' on 2024-07-22

   xtb is free software: you can redistribute it and/or modify it under
   the terms of the GNU Lesser General Public License as published by
   the Free Software Foundation, either version 3 of the License, or
   (at your option) any later version.
   
   xtb is distributed in the hope that it will be useful,
   but WITHOUT ANY WARRANTY; without even the implied warranty of
   MERCHANTABILITY or FITNESS FOR A PARTICULAR PURPOSE.  See the
   GNU Lesser General Public License for more details.
   
   Cite this work as:
   * C. Bannwarth, E. Caldeweyher, S. Ehlert, A. Hansen, P. Pracht,
     J. Seibert, S. Spicher, S. Grimme, WIREs Comput. Mol. Sci., 2020, 11,
     e01493. DOI: 10.1002/wcms.1493
   
   for GFN2-xTB:
   * C. Bannwarth, S. Ehlert and S. Grimme., J. Chem. Theory Comput., 2019,
     15, 1652-1671. DOI: 10.1021/acs.jctc.8b01176
   for GFN1-xTB:
   * S. Grimme, C. Bannwarth, P. Shushkov, J. Chem. Theory Comput., 2017,
     13, 1989-2009. DOI: 10.1021/acs.jctc.7b00118
   for GFN0-xTB:
   * P. Pracht, E. Caldeweyher, S. Ehlert, S. Grimme, ChemRxiv, 2019, preprint.
     DOI: 10.26434/chemrxiv.8326202.v1
   for GFN-FF:
   * S. Spicher and S. Grimme, Angew. Chem. Int. Ed., 2020, 59, 15665-15673.
     DOI: 10.1002/anie.202004239
   
   for ALPB and GBSA implicit solvation:
   * S. Ehlert, M. Stahn, S. Spicher, S. Grimme, J. Chem. Theory Comput.,
     2021, 17, 4250-4261. DOI: 10.1021/acs.jctc.1c00471
   
   for ddCOSMO and CPCM-X implicit solvation:
   * M. Stahn, S. Ehlert, S. Grimme, J. Phys. Chem. A,
     2023, XX, XXXX-XXXX. DOI: 10.1021/acs.jpca.3c04382
   
   for DFT-D4:
   * E. Caldeweyher, C. Bannwarth and S. Grimme, J. Chem. Phys., 2017,
     147, 034112. DOI: 10.1063/1.4993215
   * E. Caldeweyher, S. Ehlert, A. Hansen, H. Neugebauer, S. Spicher,
     C. Bannwarth and S. Grimme, J. Chem. Phys., 2019, 150, 154122.
     DOI: 10.1063/1.5090222
   * E. Caldeweyher, J.-M. Mewes, S. Ehlert and S. Grimme, Phys. Chem. Chem. Phys.
     2020, 22, 8499-8512. DOI: 10.1039/D0CP00502A
   
   for sTDA-xTB:
   * S. Grimme and C. Bannwarth, J. Chem. Phys., 2016, 145, 054103.
     DOI: 10.1063/1.4959605
   
   in the mass-spec context:
   * V. Asgeirsson, C. Bauer and S. Grimme, Chem. Sci., 2017, 8, 4879.
     DOI: 10.1039/c7sc00601b
   * J. Koopman and S. Grimme, ACS Omega 2019, 4, 12, 15120-15133.
     DOI: 10.1021/acsomega.9b02011
   
   for metadynamics refer to:
   * S. Grimme, J. Chem. Theory Comput., 2019, 155, 2847-2862
     DOI: 10.1021/acs.jctc.9b00143
   
   for SPH calculations refer to:
   * S. Spicher and S. Grimme, J. Chem. Theory Comput., 2021, 17, 1701-1714
     DOI: 10.1021/acs.jctc.0c01306
   
   for ONIOM refer to:
   * C. Plett, A. Katbashev, S. Ehlert, S. Grimme, M. Bursch,
     Phys. Chem. Chem. Phys., 2023, 25, 17860-17868. DOI: 10.1039/D3CP02178E
   
   for DIPRO refer to:
   * J. Kohn, N. Gildemeister, S. Grimme, D. Fazzi, A. Hansen,
     J. Chem. Phys., 2023, just accepted.
   
   for PTB refer to:
   * S. Grimme, M. Mueller, A. Hansen, J. Chem. Phys., 2023, 158, 124111.
     DOI: 10.1063/5.0137838
   
   with help from (in alphabetical order)
   P. Atkinson, C. Bannwarth, F. Bohle, G. Brandenburg, E. Caldeweyher
   M. Checinski, S. Dohm, S. Ehlert, S. Ehrlich, I. Gerasimov, C. Hölzer
   A. Katbashev, J. Kohn, J. Koopman, C. Lavigne, S. Lehtola, F. März, M. Müller,
   F. Musil, H. Neugebauer, J. Pisarek, C. Plett, P. Pracht, F. Pultar,
   J. Seibert, P. Shushkov, S. Spicher, M. Stahn, M. Steiner, T. Strunk,
   J. Stückrath, T. Rose, and J. Unsleber
   
 * started run on 2025/04/15 at 19:06:55.128     
   ID    Z sym.   atoms
    1    6 C      1-4, 6, 7
    2    7 N      5, 8
    3    1 H      9-12

           -------------------------------------------------
          |                Calculation Setup                |
           -------------------------------------------------

          program call               : /software/projects/pawsey0265/mwang1/xtb/bin/xtb xtb_rrho.coord --gfn2 --ohess vtight --chrg 0 --enso --norestart -I rrho-xcontrol-inp --parallel 1
          hostname                   : nid002794
          coordinate file            : xtb_rrho.coord
          omp threads                :                     1


           -------------------------------------------------
          |                 G F N 2 - x T B                 |
           -------------------------------------------------

        Reference                      10.1021/acs.jctc.8b01176
      * Hamiltonian:
        H0-scaling (s, p, d)           1.850000    2.230000    2.230000
        zeta-weighting                 0.500000
      * Dispersion:
        s8                             2.700000
        a1                             0.520000
        a2                             5.000000
        s9                             5.000000
      * Repulsion:
        kExp                           1.500000    1.000000
        rExp                           1.000000
      * Coulomb:
        alpha                          2.000000
        third order                    shell-resolved
        anisotropic                    true
        a3                             3.000000
        a5                             4.000000
        cn-shift                       1.200000
        cn-exp                         4.000000
        max-rad                        5.000000


          ...................................................
          :                      SETUP                      :
          :.................................................:
          :  # basis functions                  36          :
          :  # atomic orbitals                  36          :
          :  # shells                           20          :
          :  # electrons                        38          :
          :  max. iterations                   250          :
          :  Hamiltonian                  GFN2-xTB          :
          :  restarted?                      false          :
          :  GBSA solvation                  false          :
          :  PC potential                    false          :
          :  electronic temp.          300.0000000     K    :
          :  accuracy                    1.0000000          :
          :  -> integral cutoff          0.2500000E+02      :
          :  -> integral neglect         0.1000000E-07      :
          :  -> SCF convergence          0.1000000E-05 Eh   :
          :  -> wf. convergence          0.1000000E-03 e    :
          :  Broyden damping             0.4000000          :
          :  net charge                          0          :
          :  unpaired electrons                  0          :
          ...................................................

 iter      E             dE          RMSdq      gap      omega  full diag
   1    -21.0021754 -0.210022E+02  0.665E+00    3.01       0.0  T
   2    -21.0093260 -0.715063E-02  0.442E+00    3.15       1.0  T
   3    -20.9733886  0.359374E-01  0.297E+00    2.76       1.0  T
   4    -21.0383091 -0.649206E-01  0.538E-01    2.63       1.0  T
   5    -21.0401708 -0.186171E-02  0.195E-01    2.68       1.0  T
   6    -21.0402588 -0.879953E-04  0.665E-02    2.70       1.0  T
   7    -21.0402979 -0.390351E-04  0.253E-02    2.69       1.1  T
   8    -21.0402980 -0.139392E-06  0.801E-03    2.69       3.6  T
   9    -21.0402983 -0.304678E-06  0.303E-03    2.69       9.5  T
  10    -21.0402984 -0.411767E-07  0.124E-03    2.69      23.2  T
  11    -21.0402984 -0.173754E-08  0.401E-04    2.69      72.0  T
  12    -21.0402984 -0.273232E-09  0.121E-04    2.69     237.6  T

   *** convergence criteria satisfied after 12 iterations ***

         #    Occupation            Energy/Eh            Energy/eV
      -------------------------------------------------------------
         1        2.0000           -0.6901726             -18.7806
       ...           ...                  ...                  ...
        13        2.0000           -0.4976610             -13.5420
        14        2.0000           -0.4861501             -13.2288
        15        2.0000           -0.4713250             -12.8254
        16        2.0000           -0.4608134             -12.5394
        17        2.0000           -0.4394416             -11.9578
        18        2.0000           -0.4364586             -11.8766
        19        2.0000           -0.3937540             -10.7146 (HOMO)
        20                         -0.2948561              -8.0234 (LUMO)
        21                         -0.2744755              -7.4689
        22                         -0.2243058              -6.1037
        23                         -0.1988696              -5.4115
        24                         -0.1139264              -3.1001
       ...                                ...                  ...
        36                          1.0956301              29.8136
      -------------------------------------------------------------
                  HL-Gap            0.0988979 Eh            2.6912 eV
             Fermi-level           -0.3443050 Eh           -9.3690 eV

 SCC (total)                   0 d,  0 h,  0 min,  0.030 sec
 SCC setup                      ...        0 min,  0.000 sec (  0.713%)
 Dispersion                     ...        0 min,  0.000 sec (  0.297%)
 classical contributions        ...        0 min,  0.000 sec (  0.115%)
 integral evaluation            ...        0 min,  0.001 sec (  3.866%)
 iterations                     ...        0 min,  0.026 sec ( 86.494%)
 molecular gradient             ...        0 min,  0.002 sec (  8.095%)
 printout                       ...        0 min,  0.000 sec (  0.341%)

         :::::::::::::::::::::::::::::::::::::::::::::::::::::
         ::                     SUMMARY                     ::
         :::::::::::::::::::::::::::::::::::::::::::::::::::::
         :: total energy             -20.667216193218 Eh    ::
         :: gradient norm              0.042158570051 Eh/a0 ::
         :: HOMO-LUMO gap              2.691150088561 eV    ::
         ::.................................................::
         :: SCC energy               -21.040292482891 Eh    ::
         :: -> isotropic ES            0.014071383563 Eh    ::
         :: -> anisotropic ES          0.002755516071 Eh    ::
         :: -> anisotropic XC          0.032182237911 Eh    ::
         :: -> dispersion             -0.009361432517 Eh    ::
         :: repulsion energy           0.373076289673 Eh    ::
         :: add. restraining           0.000000000000 Eh    ::
         :: total charge              -0.000000000000 e     ::
         :::::::::::::::::::::::::::::::::::::::::::::::::::::

      ----------------------------------------------------------- 
     |                   =====================                   |
     |                        A N C O P T                        |
     |                   =====================                   |
     |               Approximate Normal Coordinate               |
     |                Rational Function Optimizer                |
      ----------------------------------------------------------- 
      ----------------------------------------------------------- 
     |                   =====================                   |
     |                        A N C O P T                        |
     |                   =====================                   |
     |               Approximate Normal Coordinate               |
     |                Rational Function Optimizer                |
      ----------------------------------------------------------- 

          ...................................................
          :                      SETUP                      :
          :.................................................:
          :   optimization level         verytight          :
          :   max. optcycles                   240          :
          :   ANC micro-cycles                  20          :
          :   degrees of freedom                30          :
          :.................................................:
          :   RF solver                   davidson          :
          :   write xtbopt.log                true          :
          :   linear?                        false          :
          :   energy convergence         0.1000000E-06 Eh   :
          :   grad. convergence          0.2000000E-03 Eh/α :
          :   maxmium RF displ.          1.0000000          :
          :   Hlow (freq-cutoff)         0.1000000E-01      :
          :   Hmax (freq-cutoff)         5.0000000          :
          :   S6 in model hess.         20.0000000          :
          ...................................................

generating ANC from exact Hessian ...
Using Lindh-Hessian (1995)
 Shifting diagonal of input Hessian by   9.532168356551770E-003
 Lowest  eigenvalues of input Hessian
    0.000000    0.000000    0.000000    0.000000    0.000000    0.000000
    0.010000    0.022822    0.026976    0.033228    0.036499    0.060818
    0.070971    0.102318    0.106606    0.114758    0.122082    0.138478
 Highest eigenvalues
    1.493422    1.589959    1.905480    1.999967    2.061575    2.567467
 

........................................................................
.............................. CYCLE    1 ..............................
........................................................................

 iter      E             dE          RMSdq      gap      omega  full diag
   1    -21.0402984 -0.210403E+02  0.535E-05    2.69       0.0  T
   2    -21.0402984 -0.116884E-11  0.305E-05    2.69     946.0  T
   3    -21.0402984  0.632383E-12  0.238E-05    2.69    1214.9  T
     SCC iter.                  ...        0 min,  0.001 sec
     gradient                   ...        0 min,  0.002 sec
 * total energy  :   -20.6672162 Eh     change       -0.1080629E-09 Eh
   gradient norm :     0.0421586 Eh/α   predicted     0.0000000E+00 (-100.00%)
   displ. norm   :     0.0762226 α      lambda       -0.1863644E-02
   maximum displ.:     0.0449792 α      in ANC's #15, #11, #18, ...

........................................................................
.............................. CYCLE    2 ..............................
........................................................................

 iter      E             dE          RMSdq      gap      omega  full diag
   1    -21.0617658 -0.210618E+02  0.130E-01    2.70       0.0  T
   2    -21.0617709 -0.504865E-05  0.870E-02    2.71       1.0  T
   3    -21.0617603  0.105808E-04  0.554E-02    2.71       1.0  T
   4    -21.0617807 -0.203743E-04  0.946E-03    2.71       3.1  T
   5    -21.0617817 -0.103300E-05  0.338E-03    2.71       8.6  T
   6    -21.0617817 -0.281668E-07  0.158E-03    2.71      18.2  T
   7    -21.0617817 -0.430316E-08  0.288E-04    2.71     100.2  T
   8    -21.0617817 -0.266581E-09  0.132E-04    2.71     219.3  T
     SCC iter.                  ...        0 min,  0.002 sec
     gradient                   ...        0 min,  0.002 sec
 * total energy  :   -20.6681941 Eh     change       -0.9779095E-03 Eh
   gradient norm :     0.0113842 Eh/α   predicted    -0.9372349E-03 (  -4.16%)
   displ. norm   :     0.0210014 α      lambda       -0.1096420E-03
   maximum displ.:     0.0129627 α      in ANC's #10, #15, #11, ...

........................................................................
.............................. CYCLE    3 ..............................
........................................................................

 iter      E             dE          RMSdq      gap      omega  full diag
   1    -21.0628537 -0.210629E+02  0.294E-02    2.69       0.0  T
   2    -21.0628547 -0.927164E-06  0.207E-02    2.69       1.4  T
   3    -21.0628543  0.323295E-06  0.987E-03    2.69       2.9  T
   4    -21.0628550 -0.692431E-06  0.157E-03    2.69      18.4  T
   5    -21.0628550 -0.819729E-08  0.674E-04    2.69      42.8  T
   6    -21.0628550 -0.962881E-09  0.411E-04    2.69      70.3  T
     SCC iter.                  ...        0 min,  0.001 sec
     gradient                   ...        0 min,  0.002 sec
 * total energy  :   -20.6682555 Eh     change       -0.6138498E-04 Eh
   gradient norm :     0.0018642 Eh/α   predicted    -0.5484364E-04 ( -10.66%)
   displ. norm   :     0.0182898 α      lambda       -0.1026376E-04
   maximum displ.:     0.0104394 α      in ANC's #1, #10, #5, ...

........................................................................
.............................. CYCLE    4 ..............................
........................................................................

 iter      E             dE          RMSdq      gap      omega  full diag
   1    -21.0626260 -0.210626E+02  0.331E-02    2.68       0.0  T
   2    -21.0626261 -0.175531E-06  0.187E-02    2.68       1.5  T
   3    -21.0626261  0.830281E-07  0.382E-03    2.68       7.6  T
   4    -21.0626262 -0.156937E-06  0.100E-03    2.68      28.8  T
   5    -21.0626262 -0.168725E-08  0.557E-04    2.68      51.9  T
   6    -21.0626262 -0.196514E-08  0.124E-04    2.68     232.2  T
     SCC iter.                  ...        0 min,  0.001 sec
     gradient                   ...        0 min,  0.002 sec
 * total energy  :   -20.6682586 Eh     change       -0.3125576E-05 Eh
   gradient norm :     0.0015715 Eh/α   predicted    -0.5132065E-05 (  64.20%)
   displ. norm   :     0.0290867 α      lambda       -0.1264248E-04
   maximum displ.:     0.0209880 α      in ANC's #1, #2, #3, ...

........................................................................
.............................. CYCLE    5 ..............................
........................................................................

 iter      E             dE          RMSdq      gap      omega  full diag
   1    -21.0622982 -0.210623E+02  0.599E-02    2.67       0.0  T
   2    -21.0622987 -0.566181E-06  0.334E-02    2.67       1.0  T
   3    -21.0622989 -0.136372E-06  0.318E-03    2.68       9.1  T
   4    -21.0622989 -0.781531E-07  0.142E-03    2.67      20.4  T
   5    -21.0622990 -0.474539E-08  0.685E-04    2.67      42.1  T
   6    -21.0622990 -0.233207E-08  0.233E-04    2.67     124.0  T
     SCC iter.                  ...        0 min,  0.001 sec
     gradient                   ...        0 min,  0.002 sec
 * total energy  :   -20.6682513 Eh     change        0.7277480E-05 Eh
   gradient norm :     0.0026320 Eh/α   predicted    -0.6322510E-05 (-186.88%)
   displ. norm   :     0.0121085 α      lambda       -0.1628853E-04
   maximum displ.:     0.0076528 α      in ANC's #1, #10, #2, ...

........................................................................
.............................. CYCLE    6 ..............................
........................................................................

 iter      E             dE          RMSdq      gap      omega  full diag
   1    -21.0624754 -0.210625E+02  0.233E-02    2.68       0.0  T
   2    -21.0624754 -0.853330E-07  0.131E-02    2.68       2.2  T
   3    -21.0624754  0.359088E-07  0.257E-03    2.68      11.2  T
   4    -21.0624755 -0.717300E-07  0.665E-04    2.68      43.4  T
   5    -21.0624755 -0.530580E-09  0.380E-04    2.68      76.0  T
     SCC iter.                  ...        0 min,  0.001 sec
     gradient                   ...        0 min,  0.002 sec
 * total energy  :   -20.6682620 Eh     change       -0.1068793E-04 Eh
   gradient norm :     0.0007553 Eh/α   predicted    -0.8144380E-05 ( -23.80%)
   displ. norm   :     0.0084702 α      lambda       -0.2515887E-05
   maximum displ.:     0.0057439 α      in ANC's #1, #2, #10, ...

........................................................................
.............................. CYCLE    7 ..............................
........................................................................

 iter      E             dE          RMSdq      gap      omega  full diag
   1    -21.0626050 -0.210626E+02  0.174E-02    2.69       0.0  T
   2    -21.0626051 -0.452972E-07  0.980E-03    2.69       2.9  T
   3    -21.0626050  0.653017E-08  0.161E-03    2.69      18.0  T
   4    -21.0626051 -0.251860E-07  0.473E-04    2.69      61.0  T
   5    -21.0626051 -0.347072E-09  0.249E-04    2.69     116.1  T
     SCC iter.                  ...        0 min,  0.001 sec
     gradient                   ...        0 min,  0.002 sec
 * total energy  :   -20.6682630 Eh     change       -0.9903696E-06 Eh
   gradient norm :     0.0003531 Eh/α   predicted    -0.1255881E-05 (  26.81%)
   displ. norm   :     0.0029538 α      lambda       -0.4030901E-06
   maximum displ.:     0.0018161 α      in ANC's #1, #2, #10, ...

........................................................................
.............................. CYCLE    8 ..............................
........................................................................

 iter      E             dE          RMSdq      gap      omega  full diag
   1    -21.0625728 -0.210626E+02  0.558E-03    2.68       0.0  T
   2    -21.0625728 -0.447584E-08  0.313E-03    2.68       9.2  T
   3    -21.0625728  0.278226E-08  0.691E-04    2.68      41.8  T
   4    -21.0625728 -0.482648E-08  0.154E-04    2.68     186.9  T
     SCC iter.                  ...        0 min,  0.001 sec
     gradient                   ...        0 min,  0.002 sec
 * total energy  :   -20.6682633 Eh     change       -0.3075685E-06 Eh
   gradient norm :     0.0000348 Eh/α   predicted    -0.2010187E-06 ( -34.64%)
   displ. norm   :     0.0006040 α      lambda       -0.8976234E-08
   maximum displ.:     0.0005516 α      in ANC's #5, #2, #3, ...

........................................................................
.............................. CYCLE    9 ..............................
........................................................................

 iter      E             dE          RMSdq      gap      omega  full diag
   1    -21.0625631 -0.210626E+02  0.103E-03    2.68       0.0  T
   2    -21.0625631 -0.246288E-09  0.581E-04    2.68      49.7  T
   3    -21.0625631  0.307971E-09  0.169E-04    2.68     171.1  T
     SCC iter.                  ...        0 min,  0.001 sec
     gradient                   ...        0 min,  0.002 sec
 * total energy  :   -20.6682633 Eh     change       -0.8037237E-08 Eh
   gradient norm :     0.0000269 Eh/α   predicted    -0.3349924E-08 ( -58.32%)
   displ. norm   :     0.0016255 α      lambda       -0.1242225E-07
   maximum displ.:     0.0015209 α      in ANC's #5, #2, #3, ...

   *** GEOMETRY OPTIMIZATION CONVERGED AFTER 9 ITERATIONS ***

------------------------------------------------------------------------
 total energy gain   :        -0.0010471 Eh       -0.6571 kcal/mol
 total RMSD          :         0.0278360 a0        0.0147 Å
 total power (kW/mol):        -0.3054730 (step)  -64.0015 (real)
------------------------------------------------------------------------

 ANCopt (total)                0 d,  0 h,  0 min,  0.043 sec
 optimizer setup                ...        0 min,  0.000 sec (  0.875%)
 model hessian                  ...        0 min,  0.001 sec (  1.985%)
 ANC generation                 ...        0 min,  0.000 sec (  0.398%)
 coordinate transformation      ...        0 min,  0.000 sec (  0.105%)
 single point calculation       ...        0 min,  0.040 sec ( 92.160%)
 optimization log               ...        0 min,  0.001 sec (  2.435%)
 hessian update                 ...        0 min,  0.000 sec (  0.115%)
 rational function              ...        0 min,  0.000 sec (  1.055%)

================
 final structure:
================
$coord
        2.89288333545397        2.25453670494670       -0.00007050132184      C
        0.28087917270727        2.33629563217229       -0.00007313178316      C
       -1.04467244843631        0.05497539881965       -0.00016052311656      C
        0.33887126691853       -2.19912810109670       -0.00025885242840      C
        2.82499249757117       -2.25681031730108       -0.00024615085232      N
        4.07216106369085       -0.09050770233526       -0.00015224246444      C
       -3.71395059320870        0.00668966995920       -0.00016868019016      C
       -5.87917365892033       -0.04496662507885       -0.00004845271797      N
        3.99246048871263        3.97066824432296       -0.00001466844485      H
       -0.72926750354383        4.11080382922390       -0.00001314135795      H
       -0.61138721333669       -4.00954366465596       -0.00033343658940      H
        6.11010420179983       -0.24990614994950       -0.00016426906407      H
$end
 
 Bond Distances (Angstroems)
 ---------------------------
C1-C2=1.3829         C1-C6=1.3890         C1-H9=1.0786         C2-C1=1.3829         C2-C3=1.3962         C2-H10=1.0805        
C3-C2=1.3962         C3-C4=1.3996         C3-C7=1.4128         C4-C3=1.3996         C4-N5=1.3160         C4-H11=1.0820        
N5-C4=1.3160         N5-C6=1.3228         C6-C1=1.3890         C6-N5=1.3228         C6-H12=1.0817        C7-C3=1.4128         
C7-N8=1.1461         N8-C7=1.1461         H9-C1=1.0786         H10-C2=1.0805        H11-C4=1.0820        H12-C6=1.0817        
 C  H  Rav=1.0807 sigma=0.0014  Rmin=1.0786  Rmax=1.0820     4
 C  C  Rav=1.3961 sigma=0.0101  Rmin=1.3829  Rmax=1.4128     5
 N  C  Rav=1.2616 sigma=0.0817  Rmin=1.1461  Rmax=1.3228     3
 
 selected bond angles (degree)
 --------------------
C6-C1-C2=118.49                H9-C1-C2=120.86                H9-C1-C6=120.65                C3-C2-C1=118.37                
H10-C2-C1=121.44               H10-C2-C3=120.19               C4-C3-C2=118.30                C7-C3-C2=121.19                
C7-C3-C4=120.50                N5-C4-C3=122.87                H11-C4-C3=120.76               H11-C4-N5=116.37               
C6-N5-C4=118.60                N5-C6-C1=123.37                H12-C6-C1=121.17               H12-C6-N5=115.46               
N8-C7-C3=179.67                
 
 selected dihedral angles (degree)
 ---------------------------------
C3-C2-C1-C6=  0.00            C3-C2-C1-H9=180.00            H10-C2-C1-C6=180.00           H10-C2-C1-H9=  0.00           
C4-C3-C2-C1=  0.00            C4-C3-C2-H10=180.00           C7-C3-C2-C1=180.00            C7-C3-C2-H10=  0.00           
N5-C4-C3-C2=  0.00            N5-C4-C3-C7=180.00            H11-C4-C3-C2=180.00           H11-C4-C3-C7=  0.00           
C6-N5-C4-C3=  0.00            C6-N5-C4-H11=180.00           N5-C6-C1-C2=  0.00            N5-C6-C1-H9=180.00            
H12-C6-C1-C2=180.00           H12-C6-C1-H9=  0.00           C1-C6-N5-C4=  0.00            H12-C6-N5-C4=180.00           
N8-C7-C3-C2=180.58            N8-C7-C3-C4=  0.58            
           -------------------------------------------------
          |                Final Singlepoint                |
           -------------------------------------------------

          ...................................................
          :                      SETUP                      :
          :.................................................:
          :  # basis functions                  36          :
          :  # atomic orbitals                  36          :
          :  # shells                           20          :
          :  # electrons                        38          :
          :  max. iterations                   250          :
          :  Hamiltonian                  GFN2-xTB          :
          :  restarted?                      false          :
          :  GBSA solvation                  false          :
          :  PC potential                    false          :
          :  electronic temp.          300.0000000     K    :
          :  accuracy                    1.0000000          :
          :  -> integral cutoff          0.2500000E+02      :
          :  -> integral neglect         0.1000000E-07      :
          :  -> SCF convergence          0.1000000E-05 Eh   :
          :  -> wf. convergence          0.1000000E-03 e    :
          :  Broyden damping             0.4000000          :
          :  net charge                          0          :
          :  unpaired electrons                  0          :
          ...................................................

 iter      E             dE          RMSdq      gap      omega  full diag
   1    -21.0625631 -0.210626E+02  0.296E-05    2.68       0.0  T
   2    -21.0625631  0.109779E-11  0.227E-05    2.68    1269.3  T
   3    -21.0625631 -0.415312E-11  0.111E-05    2.68    2594.9  T

   *** convergence criteria satisfied after 3 iterations ***

         #    Occupation            Energy/Eh            Energy/eV
      -------------------------------------------------------------
         1        2.0000           -0.6920634             -18.8320
       ...           ...                  ...                  ...
        13        2.0000           -0.4982324             -13.5576
        14        2.0000           -0.4876331             -13.2692
        15        2.0000           -0.4712694             -12.8239
        16        2.0000           -0.4614852             -12.5577
        17        2.0000           -0.4398551             -11.9691
        18        2.0000           -0.4354516             -11.8492
        19        2.0000           -0.3916173             -10.6564 (HOMO)
        20                         -0.2929654              -7.9720 (LUMO)
        21                         -0.2719064              -7.3989
        22                         -0.2186747              -5.9504
        23                         -0.1935215              -5.2660
        24                         -0.1078555              -2.9349
       ...                                ...                  ...
        36                          1.1617433              31.6126
      -------------------------------------------------------------
                  HL-Gap            0.0986519 Eh            2.6845 eV
             Fermi-level           -0.3422913 Eh           -9.3142 eV

 SCC (total)                   0 d,  0 h,  0 min,  0.004 sec
 SCC setup                      ...        0 min,  0.000 sec (  2.681%)
 Dispersion                     ...        0 min,  0.000 sec (  0.675%)
 classical contributions        ...        0 min,  0.000 sec (  0.236%)
 integral evaluation            ...        0 min,  0.001 sec ( 24.569%)
 iterations                     ...        0 min,  0.001 sec ( 15.459%)
 molecular gradient             ...        0 min,  0.002 sec ( 54.345%)
 printout                       ...        0 min,  0.000 sec (  1.620%)

         :::::::::::::::::::::::::::::::::::::::::::::::::::::
         ::                     SUMMARY                     ::
         :::::::::::::::::::::::::::::::::::::::::::::::::::::
         :: total energy             -20.668263330267 Eh    ::
         :: gradient norm              0.000027302006 Eh/a0 ::
         :: HOMO-LUMO gap              2.684455369292 eV    ::
         ::.................................................::
         :: SCC energy               -21.062557231194 Eh    ::
         :: -> isotropic ES            0.014101303417 Eh    ::
         :: -> anisotropic ES          0.002591822166 Eh    ::
         :: -> anisotropic XC          0.031543169156 Eh    ::
         :: -> dispersion             -0.009396384168 Eh    ::
         :: repulsion energy           0.394293900927 Eh    ::
         :: add. restraining           0.000000000000 Eh    ::
         :: total charge               0.000000000000 e     ::
         :::::::::::::::::::::::::::::::::::::::::::::::::::::

           ------------------------------------------------- 
          |                Numerical Hessian                |
           ------------------------------------------------- 
step length          :   0.00500
SCC accuracy         :   0.30000
Hessian scale factor :   1.00000
frozen atoms in %    :   0.00000    0
RMS gradient         :   0.00003
estimated CPU  time      0.01 min
estimated wall time      0.01 min

writing file <hessian>.

 projected vibrational frequencies (cm⁻¹)
eigval :       -0.00    -0.00     0.00     0.00     0.00     0.00
eigval :      128.15   146.85   311.14   364.00   454.41   530.94
eigval :      546.78   604.26   680.18   784.07   788.33   896.31
eigval :      919.08   925.99  1005.00  1089.74  1134.61  1192.98
eigval :     1232.99  1258.91  1271.76  1394.99  1440.19  1551.47
eigval :     1566.42  2374.70  3066.52  3067.36  3081.43  3102.02
           -------------------------------------------------
          |                Property Printout                |
           -------------------------------------------------

    * Orbital Energies and Occupations

         #    Occupation            Energy/Eh            Energy/eV
      -------------------------------------------------------------
         1        2.0000           -0.6920634             -18.8320
       ...           ...                  ...                  ...
         7        2.0000           -0.5745016             -15.6330
         8        2.0000           -0.5496337             -14.9563
         9        2.0000           -0.5463665             -14.8674
        10        2.0000           -0.5383187             -14.6484
        11        2.0000           -0.5175577             -14.0835
        12        2.0000           -0.5035612             -13.7026
        13        2.0000           -0.4982324             -13.5576
        14        2.0000           -0.4876331             -13.2692
        15        2.0000           -0.4712694             -12.8239
        16        2.0000           -0.4614851             -12.5576
        17        2.0000           -0.4398551             -11.9691
        18        2.0000           -0.4354516             -11.8492
        19        2.0000           -0.3916173             -10.6564 (HOMO)
        20                         -0.2929653              -7.9720 (LUMO)
        21                         -0.2719064              -7.3989
        22                         -0.2186747              -5.9504
        23                         -0.1935215              -5.2660
        24                         -0.1078555              -2.9349
        25                          0.0943591               2.5676
        26                          0.0972736               2.6469
        27                          0.1344441               3.6584
        28                          0.1499439               4.0802
        29                          0.1640373               4.4637
        30                          0.2831851               7.7059
       ...                                ...                  ...
        36                          1.1617433              31.6126
      -------------------------------------------------------------
                  HL-Gap            0.0986520 Eh            2.6845 eV
             Fermi-level           -0.3422913 Eh           -9.3142 eV

     #   Z          covCN         q      C6AA      α(0)
     1   6 C        2.914    -0.034    28.837     8.806
     2   6 C        2.932    -0.002    28.072     8.689
     3   6 C        2.968     0.013    27.727     8.637
     4   6 C        2.917     0.070    26.430     8.430
     5   7 N        1.836    -0.204    26.267     7.595
     6   6 C        2.912     0.066    26.515     8.444
     7   6 C        1.909     0.111    28.361     8.601
     8   7 N        0.911    -0.220    25.805     7.347
     9   1 H        0.926     0.047     2.353     2.399
    10   1 H        0.926     0.048     2.343     2.394
    11   1 H        0.925     0.053     2.283     2.363
    12   1 H        0.925     0.051     2.307     2.375

 Mol. C6AA /au·bohr⁶  :       2285.222147
 Mol. C8AA /au·bohr⁸  :      56922.567564
 Mol. α(0) /au        :         76.079464


Wiberg/Mayer (AO) data.
largest (>0.10) Wiberg bond orders for each atom

 ---------------------------------------------------------------------------
     #   Z sym  total        # sym  WBO       # sym  WBO       # sym  WBO
 ---------------------------------------------------------------------------
     1   6 C    3.992 --     2 C    1.458     6 C    1.416     9 H    0.968
                             4 C    0.111
     2   6 C    3.989 --     1 C    1.458     3 C    1.367    10 H    0.969
     3   6 C    3.991 --     2 C    1.367     4 C    1.345     7 C    1.094
                             6 C    0.106
     4   6 C    3.979 --     5 N    1.462     3 C    1.345    11 H    0.963
                             1 C    0.111
     5   7 N    3.080 --     4 C    1.462     6 C    1.431
     6   6 C    3.979 --     5 N    1.431     1 C    1.416    12 H    0.963
                             3 C    0.106
     7   6 C    3.949 --     8 N    2.807     3 C    1.094
     8   7 N    3.010 --     7 C    2.807
     9   1 H    0.996 --     1 C    0.968
    10   1 H    0.998 --     2 C    0.969
    11   1 H    0.997 --     4 C    0.963
    12   1 H    0.997 --     6 C    0.963
 ---------------------------------------------------------------------------

Topologies differ in total number of bonds
Writing topology from bond orders to xtbtopo.mol

molecular dipole:
                 x           y           z       tot (Debye)
 q only:        0.921       0.393      -0.000
   full:        1.199       0.748      -0.000       3.593
molecular quadrupole (traceless):
                xx          xy          yy          xz          yz          zz
 q only:       -4.925       2.402       3.612       0.000      -0.000       1.313
  q+dip:       -7.307       4.353       6.245       0.000      -0.000       1.062
   full:      -10.116       4.519       5.539       0.000      -0.000       4.577

           -------------------------------------------------
          |                Geometry Summary                 |
           -------------------------------------------------

      molecular mass/u    :      104.1095848
   center of mass at/Å    :       -0.0000159      -0.0000418      -0.0000776
  moments of inertia/u·Å² :        0.8551718E+02   0.3168005E+03   0.4023177E+03
rotational constants/cm⁻¹ :        0.1971257E+00   0.5321214E-01   0.4190130E-01

 * 11 selected distances

     #   Z          #   Z                                           value/Å
     1   6 C        2   6 C                                       1.3828902
     2   6 C        3   6 C                                       1.3962168
     3   6 C        4   6 C                                       1.3995889 (max)
     4   6 C        5   7 N                                       1.3159529
     1   6 C        6   6 C                                       1.3890202
     5   7 N        6   6 C                                       1.3227628
     7   6 C        8   7 N                                       1.1461128
     1   6 C        9   1 H                                       1.0785585 (min)
     2   6 C       10   1 H                                       1.0805167
     4   6 C       11   1 H                                       1.0819826
     6   6 C       12   1 H                                       1.0817269

 * 3 distinct bonds (by element types)

   Z      Z             #   av. dist./Å        max./Å        min./Å
   1 H    6 C           4     1.0806961     1.0819826     1.0785585
   6 C    6 C           4     1.3919290     1.3995889     1.3828902
   6 C    7 N           3     1.2616095     1.3227628     1.1461128

           -------------------------------------------------
          |               Frequency Printout                |
           -------------------------------------------------
 projected vibrational frequencies (cm⁻¹)
eigval :       -0.00    -0.00     0.00     0.00     0.00     0.00
eigval :      128.15   146.85   311.14   364.00   454.41   530.94
eigval :      546.78   604.26   680.18   784.07   788.33   896.31
eigval :      919.08   925.99  1005.00  1089.74  1134.61  1192.98
eigval :     1232.99  1258.91  1271.76  1394.99  1440.19  1551.47
eigval :     1566.42  2374.70  3066.52  3067.36  3081.43  3102.02
 reduced masses (amu)
   1: 11.98   2: 11.48   3: 11.72   4: 11.36   5: 12.66   6: 12.54   7: 11.34   8: 12.27
   9:  9.80  10: 10.46  11: 12.19  12: 11.75  13: 11.24  14: 12.03  15:  9.24  16:  4.95
  17: 12.05  18:  3.51  19:  4.28  20:  3.93  21: 10.69  22:  6.86  23:  3.47  24:  2.79
  25:  9.47  26:  3.46  27: 11.70  28: 10.14  29:  9.49  30: 11.50  31: 11.87  32: 12.79
  33:  1.81  34:  1.80  35:  1.82  36:  1.88
 IR intensities (km·mol⁻¹)
   1:  0.93   2:  0.77   3:  0.51   4:  0.89   5:  0.58   6:  0.82   7:  5.90   8:  8.39
   9:  2.49  10:  7.02  11:  0.11  12:  1.25  13:  3.36  14:  7.14  15: 14.65  16:  6.91
  17:  5.88  18:  0.12  19:  0.57  20:  0.00  21: 10.81  22:  3.02  23:  1.74  24:  4.07
  25:  6.41  26:  0.10  27:  3.02  28:  2.92  29:  4.65  30: 43.75  31: 47.88  32:196.41
  33: 10.58  34: 17.61  35: 12.27  36: 26.52
 Raman intensities (Ä⁴*amu⁻¹)
   1:  0.00   2:  0.00   3:  0.00   4:  0.00   5:  0.00   6:  0.00   7:  0.00   8:  0.00
   9:  0.00  10:  0.00  11:  0.00  12:  0.00  13:  0.00  14:  0.00  15:  0.00  16:  0.00
  17:  0.00  18:  0.00  19:  0.00  20:  0.00  21:  0.00  22:  0.00  23:  0.00  24:  0.00
  25:  0.00  26:  0.00  27:  0.00  28:  0.00  29:  0.00  30:  0.00  31:  0.00  32:  0.00
  33:  0.00  34:  0.00  35:  0.00  36:  0.00
 output can be read by thermo (or use thermo option).
 writing <g98.out> molden fake output.
 recommended (thermochemical) frequency scaling factor: 1.0
           -------------------------------------------------
          |             Thermodynamic Functions             |
           -------------------------------------------------

Molecule has the following symmetry elements: (sigma) 
It seems to be the Cs point group
cs  symmetry found (for desy threshold:  0.10E+00) used in thermo

          ...................................................
          :                      SETUP                      :
          :.................................................:
          :  # frequencies                          30      :
          :  # imaginary freq.                       0      :
          :  linear?                             false      :
          :  only rotor calc.                    false      :
          :  symmetry                               cs      :
          :  rotational number                       1      :
          :  scaling factor                  1.0000000      :
          :  rotor cutoff                    0.0000000 cm⁻¹ :
          :  imag. cutoff                 -100.0000000 cm⁻¹ :
          :.................................................:

    mode    ω/cm⁻¹     T·S(HO)/kcal·mol⁻¹    T·S(FR)/kcal·mol⁻¹   T·S(vib)
   ------------------------------------------------------------------------
       1    128.15    -0.88660 (100.00%)    -0.77760 (  0.00%)    -0.88660
       2    146.85    -0.80876 (100.00%)    -0.73725 (  0.00%)    -0.80876
   ------------------------------------------------------------------------

   temp. (K)  partition function   enthalpy   heat capacity  entropy
                                   cal/mol     cal/K/mol   cal/K/mol   J/K/mol
 298.15  VIB   10.7                 2195.149     17.356     12.079
         ROT  0.252E+06              888.752      2.981     27.698
         INT  0.271E+07             3083.901     20.337     39.777
         TR   0.103E+28             1481.254      4.968     39.820
         TOT                        4565.1551    25.3050    79.5970   333.0337

       T/K    H(0)-H(T)+PV         H(T)/Eh          T*S/Eh         G(T)/Eh
   ------------------------------------------------------------------------
    298.15    0.727504E-02    0.913658E-01    0.378191E-01    0.535467E-01
   ------------------------------------------------------------------------

         :::::::::::::::::::::::::::::::::::::::::::::::::::::
         ::                  THERMODYNAMIC                  ::
         :::::::::::::::::::::::::::::::::::::::::::::::::::::
         :: total free energy         -20.614716669060 Eh   ::
         ::.................................................::
         :: total energy              -20.668263330266 Eh   ::
         :: zero point energy           0.084090715525 Eh   ::
         :: G(RRHO) w/o ZPVE           -0.030544054318 Eh   ::
         :: G(RRHO) contrib.            0.053546661207 Eh   ::
         :::::::::::::::::::::::::::::::::::::::::::::::::::::

optimized geometry written to: xtbopt.coord


           -------------------------------------------------
          | TOTAL ENERGY              -20.668263330266 Eh   |
          | TOTAL ENTHALPY            -20.576897577082 Eh   |
          | TOTAL FREE ENERGY         -20.614716669060 Eh   |
          | GRADIENT NORM               0.000027292326 Eh/α |
          | HOMO-LUMO GAP               2.684456230624 eV   |
           -------------------------------------------------

------------------------------------------------------------------------
 * finished run on 2025/04/15 at 19:06:55.554     
------------------------------------------------------------------------
 total:
 * wall-time:     0 d,  0 h,  0 min,  0.426 sec
 *  cpu-time:     0 d,  0 h,  0 min,  0.398 sec
 * ratio c/w:     0.935 speedup
 SCF:
 * wall-time:     0 d,  0 h,  0 min,  0.030 sec
 *  cpu-time:     0 d,  0 h,  0 min,  0.014 sec
 * ratio c/w:     0.459 speedup
 ANC optimizer:
 * wall-time:     0 d,  0 h,  0 min,  0.050 sec
 *  cpu-time:     0 d,  0 h,  0 min,  0.048 sec
 * ratio c/w:     0.962 speedup
 analytical hessian:
 * wall-time:     0 d,  0 h,  0 min,  0.326 sec
 *  cpu-time:     0 d,  0 h,  0 min,  0.325 sec
 * ratio c/w:     0.997 speedup

