
                                 *****************
                                 * O   R   C   A *
                                 *****************

                                            #,                                       
                                            ###                                      
                                            ####                                     
                                            #####                                    
                                            ######                                   
                                           ########,                                 
                                     ,,################,,,,,                         
                               ,,#################################,,                 
                          ,,##########################################,,             
                       ,#########################################, ''#####,          
                    ,#############################################,,   '####,        
                  ,##################################################,,,,####,       
                ,###########''''           ''''###############################       
              ,#####''   ,,,,##########,,,,          '''####'''          '####       
            ,##' ,,,,###########################,,,                        '##       
           ' ,,###''''                  '''############,,,                           
         ,,##''                                '''############,,,,        ,,,,,,###''
      ,#''                                            '''#######################'''  
     '                                                          ''''####''''         
             ,#######,   #######,   ,#######,      ##                                
            ,#'     '#,  ##    ##  ,#'     '#,    #''#        ,####,   ,####,        
            ##       ##  ##   ,#'  ##            #'  '#       #'       #'  '#        
            ##       ##  #######   ##           ,######,      #####,   #    #        
            '#,     ,#'  ##    ##  '#,     ,#' ,#      #,     #,   #   #,  ,#        
             '#######'   ##     ##  '#######'  #'      '#     '####' # '####'        



                #########################################################
                #                        -***-                          #
                #          Department of theory and spectroscopy        #
                #                                                       #
                #                      Frank Neese                      #
                #                                                       #
                #     Directorship, Architecture, Infrastructure        #
                #                    SHARK, DRIVERS                     #
                #        Core code/Algorithms in most modules           #
                #                                                       #
                #        Max Planck Institute fuer Kohlenforschung      #
                #                Kaiser Wilhelm Platz 1                 #
                #                 D-45470 Muelheim/Ruhr                 #
                #                      Germany                          #
                #                                                       #
                #                  All rights reserved                  #
                #                        -***-                          #
                #########################################################


                         Program Version 6.0.1  -  RELEASE   -


 With contributions from (in alphabetic order):
[Max-Planck-Institut fuer Kohlenforschung]                               
  Daniel Aravena         : Magnetic Suceptibility                        
  Michael Atanasov       : Ab Initio Ligand Field Theory (pilot matlab implementation)
  Alexander A. Auer      : GIAO ZORA, VPT2 properties, NMR spectrum      
  Ute Becker             : All parallelization in ORCA, NUMFREQ, NUMCALC 
  Giovanni Bistoni       : ED, misc. LED, open-shell LED, HFLD           
  Martin Brehm           : Molecular dynamics                            
  Dmytro Bykov           : pre 5.0 version of the SCF Hessian            
  Marcos Casanova-Páez   : Triplet and SCS-CIS(D). UHF-(DLPNO)-IP/EA/STEOM-CCSD. UHF-CVS-IP/STEOM-CCSD   
  Vijay G. Chilkuri      : MRCI spin determinant printing, contributions to CSF-ICE 
  Pauline Colinet        : FMM embedding                                 
  Dipayan Datta          : RHF DLPNO-CCSD density                        
  Achintya Kumar Dutta   : EOM-CC, STEOM-CC                              
  Nicolas Foglia         : Exact transition moments, OPA infrastructure, MCD improvements    
  Dmitry Ganyushin       : Spin-Orbit,Spin-Spin,Magnetic field MRCI      
  Miquel Garcia-Rates    : C-PCM and meta-GGA Hessian, CCSD/C-PCM, Gaussian charge scheme 
  Tiago L. C. Gouveia    : GS-ROHF, GS-ROCIS                             
  Yang Guo               : DLPNO-NEVPT2, F12-NEVPT2, CIM, IAO-localization        
  Andreas Hansen         : Spin unrestricted coupled pair/coupled cluster methods 
  Ingolf Harden          : AUTO-CI MPn and infrastructure                
  Benjamin Helmich-Paris : MC-RPA, TRAH-(SCF,CASSCF), AVAS, COSX integrals, SCF dyn. polar. 
  Lee Huntington         : MR-EOM, pCC                                   
  Robert Izsak           : Overlap fitted RIJCOSX, COSX-SCS-MP3, EOM     
  Riya Kayal             : Wick's Theorem for AUTO-CI, AUTO-CI UHF-CCSDT 
  Emily Kempfer          : AUTO-CI, RHF CISDT and CCSDT                  
  Christian Kollmar      : KDIIS, OOCD, Brueckner-CCSD(T), CCSD density, CASPT2, CASPT2-K, improved NEVPT2 
  Axel Koslowski         : Symmetry handling                             
  Simone Kossmann        : meta-GGA functionals, TD-DFT gradient, OOMP2, (MP2 Hessian; deprecated post 5.0) 
  Lucas Lang             : DCDCAS                                        
  Marvin Lechner         : AUTO-CI (C++ implementation), FIC-MRCC        
  Spencer Leger          : CASSCF response                               
  Dagmar Lenk            : GEPOL surface, SMD, ORCA-2-JSON               
  Dimitrios Liakos       : Extrapolation schemes; Compound Job, initial MDCI parallelization 
  Dimitrios Manganas     : Further ROCIS development; embedding schemes. LFT, Crystal Embedding 
  Dimitrios Pantazis     : SARC Basis sets                               
  Anastasios Papadopoulos: AUTO-CI, single reference methods and gradients 
  Taras Petrenko         : pre 6.0 DFT Hessian and TD-DFT gradient, (ASA, deprecated), ECA, 1-Electron XAS/XES, NRVS 
  Peter Pinski           : DLPNO-MP2, DLPNO-MP2 Gradient                 
  Christoph Reimann      : Effective Core Potentials                     
  Marius Retegan         : Local ZFS, SOC                                
  Christoph Riplinger    : Optimizer, TS searches, QM/MM, DLPNO-CCSD(T), (RO)-DLPNO pert. Triples 
  Michael Roemelt        : Original ROCIS implementation                 
  Masaaki Saitow         : Open-shell DLPNO-CCSD energy and density      
  Barbara Sandhoefer     : DKH picture change effects                    
  Kantharuban Sivalingam : CASSCF convergence/infrastructure, NEVPT2 and variants, FIC-MRCI 
  Bernardo de Souza      : ESD, SOC TD-DFT                               
  Georgi L. Stoychev     : AutoAux, RI-MP2 NMR, DLPNO-MP2 response, X2C  
  Van Anh Tran           : RI-MP2 g-tensors                              
  Willem Van den Heuvel  : Paramagnetic NMR                              
  Zikuan Wang            : NOTCH, Electric field optimization            
  Frank Wennmohs         : Technical directorship and infrastructure     
  Hang Xu                : AUTO-CI-Response properties                   
                                                                         
[FACCTs GmbH]                                                            
  Markus Bursch, Miquel Garcia-Rates, Christoph Riplinger, Bernardo de Souza, Georgi L. Stoychev 
                                                                 
  APM, Basis sets (HGBS, AHGBS, def-TZVP (Ac-Lr), def2-XVPD (La-Lu)), CI-OPT, improved COSX, DLPNO-Multilevel,           
  DOCKER, DRACO, updates on ESD, GOAT, IRC, LR-CPCM, MBIS, meta-GGA TD-DFT gradient, ML-optimized integration grids, 
  MM, NACMEs, nearIR, NEB, NEB-TS, NL-DFT gradient (VV10), 2- and 3-layer-ONIOM, interface openCOSMO-RS, QMMM,   
  Crystal-QMMM, SF, symmetry and pop. for TD-DFT, r2SCAN hybrids, SOLVATOR                                   
                                                                         
[Other institutions]                                                     
  V. Asgeirsson          : NEB                                           
  Christoph Bannwarth    : sTDA-DFT, sTD-DFT, PBEh-3c, B97-3c, D3        
  Sebastian Ehlert       : rSCAN, r2SCAN, r2SCAN-3c, D4, dhf basis sets  
  Marvin Friede          : D4 for Fr, Ra, Ac-Lr                          
  Lars Goerigk           : TD-DFT with DH, B97 family of functionals     
  Stefan Grimme          : VdW corrections, initial TS optimization, DFT functionals, gCP, sTDA/sTD-DF 
  Waldemar Hujo          : DFT-NL                                        
  H. Jonsson             : NEB                                           
  Holger Kruse           : gCP                                           
  Marcel Mueller         : wB97X-3c, vDZP basis set                      
  Hagen Neugebauer       : wr2SCAN                                       
  Tobias Risthaus        : range-separated hybrid DFT                    
  Lukas Wittmann         : regularized MP2, r2SCAN double-hybrids, wr2SCAN        
                                                                         
We gratefully acknowledge several colleagues who have allowed us to      
interface, adapt or use parts of their codes:                            
  Ed Valeev, F. Pavosevic, A. Kumar             : LibInt (2-el integral package), F12 methods 
  Garnet Chan, S. Sharma, J. Yang, R. Olivares  : DMRG                   
  Ulf Ekstrom                                   : XCFun DFT Library      
  Mihaly Kallay                                 : mrcc  (arbitrary order and MRCC methods)
  Frank Weinhold                                : gennbo (NPA and NBO analysis)           
  Simon Mueller                                 : openCOSMO-RS                            
  Christopher J. Cramer and Donald G. Truhlar   : smd solvation model                     
  S Lehtola, MJT Oliveira, MAL Marques          : LibXC Library                           
  Liviu Ungur et al                             : ANISO software                          


 Your calculation uses the libint2 library for the computation of 2-el integrals
 For citations please refer to: http://libint.valeyev.net

 Your ORCA version has been built with support for libXC version: 6.2.2
 For citations please refer to: https://libxc.gitlab.io

 This ORCA versions uses:
   CBLAS   interface :  Fast vector & matrix operations
   LAPACKE interface :  Fast linear algebra routines
   SCALAPACK package :  Parallel linear algebra routines
   Shared memory     :  Shared parallel matrices
   BLAS/LAPACK       :  OpenBLAS 0.3.27  USE64BITINT DYNAMIC_ARCH NO_AFFINITY Zen SINGLE_THREADED
        Core in use  :  Zen
   Copyright (c) 2011-2014, The OpenBLAS Project


Your calculation utilizes the geometrical counterpoise correction gCP
Please cite in your paper:
H.Kruse, S. Grimme J.Chem.Phys., 136, (2012), 154101 
   

Your calculation utilizes the atom-pairwise dispersion correction
based on EEQ partial charges (D4)


================================================================================

----- Orbital basis set information -----
Your calculation utilizes the basis: def2-mTZVPP
   Stefan Grimme, Andreas Hansen, Sebastian Ehlert, and Jan-Michael Mewes 
   J. Chem. Phys. 154, 064103 (2021). DOI: 10.1063/5.0040021

----- AuxJ basis set information -----
Your calculation utilizes the auxiliary basis: def2/J
   F. Weigend, Phys. Chem. Chem. Phys. 8, 1057 (2006).

================================================================================
                                        WARNINGS
                       Please study these warnings very carefully!
================================================================================



WARNING: SCAN, rSCAN, or r2SCAN functional requested.
  ===> : libXC variant has now been activated.



================================================================================
                                       INPUT FILE
================================================================================
NAME = sp.inp
|  1> ! r2scan-3c def2/J RI DEFGRID2 scfconv6 printgap
|  2> %output
|  3>     printlevel normal
|  4> end
|  5> * xyz 0 1
|  6> C -2.8407046463 -0.5991401181 0.0535170298
|  7> O -1.4840744225 -0.9172323617 0.3557334456
|  8> C -0.5356488778 -0.0994730016 -0.1097979683
|  9> O -0.7310564367 0.8900527217 -0.7522005702
| 10> C 0.8236298232 -0.6436850742 0.2995876558
| 11> Cl 2.0820752281 0.5815953366 0.0687939612
| 12> H -2.8917299013 0.3566274326 -0.4702111955
| 13> H -3.3896925514 -0.5466215397 0.9928953414
| 14> H -3.2495574195 -1.3925489644 -0.5722794729
| 15> H 1.0691991356 -1.50520999 -0.3234353965
| 16> H 0.8079618844 -0.9425058202 1.3472611308
| 17> *
| 18> 
| 19>                          ****END OF INPUT****
================================================================================

                       ****************************
                       * Single Point Calculation *
                       ****************************

---------------------------------
CARTESIAN COORDINATES (ANGSTROEM)
---------------------------------
  C     -2.840705   -0.599140    0.053517
  O     -1.484074   -0.917232    0.355733
  C     -0.535649   -0.099473   -0.109798
  O     -0.731056    0.890053   -0.752201
  C      0.823630   -0.643685    0.299588
  Cl     2.082075    0.581595    0.068794
  H     -2.891730    0.356627   -0.470211
  H     -3.389693   -0.546622    0.992895
  H     -3.249557   -1.392549   -0.572279
  H      1.069199   -1.505210   -0.323435
  H      0.807962   -0.942506    1.347261

----------------------------
CARTESIAN COORDINATES (A.U.)
----------------------------
  NO LB      ZA    FRAG     MASS         X           Y           Z
   0 C     6.0000    0    12.011   -5.368154   -1.132211    0.101133
   1 O     8.0000    0    15.999   -2.804494   -1.733318    0.672239
   2 C     6.0000    0    12.011   -1.012230   -0.187977   -0.207488
   3 O     8.0000    0    15.999   -1.381496    1.681956   -1.421453
   4 C     6.0000    0    12.011    1.556435   -1.216389    0.566139
   5 Cl   17.0000    0    35.453    3.934552    1.099056    0.130002
   6 H     1.0000    0     1.008   -5.464578    0.673928   -0.888570
   7 H     1.0000    0     1.008   -6.405591   -1.032965    1.876300
   8 H     1.0000    0     1.008   -6.140774   -2.631536   -1.081451
   9 H     1.0000    0     1.008    2.020494   -2.844435   -0.611204
  10 H     1.0000    0     1.008    1.526827   -1.781078    2.545955

--------------------------------
INTERNAL COORDINATES (ANGSTROEM)
--------------------------------
 C      0   0   0     0.000000000000     0.00000000     0.00000000
 O      1   0   0     1.425820115423     0.00000000     0.00000000
 C      2   1   0     1.336024282039   117.71212551     0.00000000
 O      3   2   1     1.195837101814   125.28676165     0.74622671
 C      3   2   1     1.520329555121   108.76940299   181.33734660
 Cl     5   3   2     1.771514225647   110.63800463   194.03003013
 H      1   2   3     1.091048322301   109.97899937   355.23653068
 H      1   2   3     1.089301396918   107.90827774   234.78623685
 H      1   2   3     1.090082313558   108.43146059   115.73548199
 H      5   3   2     1.091186139682   109.27371759    75.03723247
 H      5   3   2     1.089568278156   110.13513973   314.57306185

---------------------------
INTERNAL COORDINATES (A.U.)
---------------------------
 C      0   0   0     0.000000000000     0.00000000     0.00000000
 O      1   0   0     2.694409534386     0.00000000     0.00000000
 C      2   1   0     2.524720001323   117.71212551     0.00000000
 O      3   2   1     2.259804623211   125.28676165     0.74622671
 C      3   2   1     2.873006492486   108.76940299   181.33734660
 Cl     5   3   2     3.347676728819   110.63800463   194.03003013
 H      1   2   3     2.061782528022   109.97899937   355.23653068
 H      1   2   3     2.058481317473   107.90827774   234.78623685
 H      1   2   3     2.059957036056   108.43146059   115.73548199
 H      5   3   2     2.062042965130   109.27371759    75.03723247
 H      5   3   2     2.058985649924   110.13513973   314.57306185

---------------------
BASIS SET INFORMATION
---------------------
There are 4 groups of distinct atoms

 Group   1 Type C   : 11s6p1d contracted to 5s3p1d pattern {62111/411/1}
 Group   2 Type O   : 11s6p2d contracted to 5s3p2d pattern {62111/411/11}
 Group   3 Type Cl  : 14s9p2d contracted to 5s4p2d pattern {73211/6111/11}
 Group   4 Type H   : 4s1p contracted to 2s1p pattern {31/1}

Atom   0C    basis set group =>   1
Atom   1O    basis set group =>   2
Atom   2C    basis set group =>   1
Atom   3O    basis set group =>   2
Atom   4C    basis set group =>   1
Atom   5Cl   basis set group =>   3
Atom   6H    basis set group =>   4
Atom   7H    basis set group =>   4
Atom   8H    basis set group =>   4
Atom   9H    basis set group =>   4
Atom  10H    basis set group =>   4
---------------------------------
AUXILIARY/J BASIS SET INFORMATION
---------------------------------
There are 4 groups of distinct atoms

 Group   1 Type C   : 12s5p4d2f1g contracted to 6s4p3d1f1g pattern {711111/2111/211/2/1}
 Group   2 Type O   : 12s5p4d2f1g contracted to 6s4p3d1f1g pattern {711111/2111/211/2/1}
 Group   3 Type Cl  : 14s5p5d2f1g contracted to 8s4p3d1f1g pattern {71111111/2111/311/2/1}
 Group   4 Type H   : 5s2p1d contracted to 3s1p1d pattern {311/2/1}

Atom   0C    basis set group =>   1
Atom   1O    basis set group =>   2
Atom   2C    basis set group =>   1
Atom   3O    basis set group =>   2
Atom   4C    basis set group =>   1
Atom   5Cl   basis set group =>   3
Atom   6H    basis set group =>   4
Atom   7H    basis set group =>   4
Atom   8H    basis set group =>   4
Atom   9H    basis set group =>   4
Atom  10H    basis set group =>   4

Checking for AutoStart:
The File: sp.gbw exists
Trying to determine its content:
     ... Fine, the file contains calculation information
     ... Fine, the calculation information was read
     ... Fine, the file contains a basis set
     ... Fine, the basis set was read
     ... Fine, the file contains a geometry
     ... Fine, the geometry was read
     ... Fine, the file contains a set of orbitals
     ... Fine, the orbitals can be read
     => possible old guess file was deleted
     => GBW file was renamed to GES file
     => GES file is set as startup file
     => Guess is set to MORead
     ... now leaving AutoStart

------------------------------------------------------------------------------
                             ORCA STARTUP CALCULATIONS
                           -- RI-GTO INTEGRALS CHOSEN --
------------------------------------------------------------------------------
------------------------------------------------------------------------------
                   ___                                                        
                  /   \      - P O W E R E D   B Y -                         
                 /     \                                                     
                 |  |  |   _    _      __       _____    __    __             
                 |  |  |  | |  | |    /  \     |  _  \  |  |  /  |          
                  \  \/   | |  | |   /    \    | | | |  |  | /  /          
                 / \  \   | |__| |  /  /\  \   | |_| |  |  |/  /          
                |  |  |   |  __  | /  /__\  \  |    /   |      \           
                |  |  |   | |  | | |   __   |  |    \   |  |\   \          
                \     /   | |  | | |  |  |  |  | |\  \  |  | \   \       
                 \___/    |_|  |_| |__|  |__|  |_| \__\ |__|  \__/        
                                                                              
                      - O R C A' S   B I G   F R I E N D -                    
                                      &                                       
                       - I N T E G R A L  F E E D E R -                       
                                                                              
 v1 FN, 2020, v2 2021, v3 2022-2024                                           
------------------------------------------------------------------------------


----------------------
SHARK INTEGRAL PACKAGE
----------------------

Number of atoms                             ...     11
Number of basis functions                   ...    157
Number of shells                            ...     73
Maximum angular momentum                    ...      2
Integral batch strategy                     ... SHARK/LIBINT Hybrid
RI-J (if used) integral strategy            ... SPLIT-RIJ (Revised 2003 algorithm where possible)
Printlevel                                  ...      1
Contraction scheme used                     ... SEGMENTED contraction
Prescreening option                         ... SCHWARTZ
   Thresh                                   ... 1.000e-10
   Tcut                                     ... 1.000e-11
   Tpresel                                  ... 1.000e-11 
Coulomb Range Separation                    ... NOT USED
Exchange Range Separation                   ... NOT USED
Multipole approximations                    ... NOT USED
Finite Nucleus Model                        ... NOT USED
CABS basis                                  ... NOT available
Auxiliary Coulomb fitting basis             ... AVAILABLE
   # of basis functions in Aux-J            ...    351
   # of shells in Aux-J                     ...    117
   Maximum angular momentum in Aux-J        ...      4
Auxiliary J/K fitting basis                 ... NOT available
Auxiliary Correlation fitting basis         ... NOT available
Auxiliary 'external' fitting basis          ... NOT available

Checking pre-screening integrals            ... done (  0.0 sec) Dimension = 73
Check shell pair data                       ... done (  0.0 sec)
Shell pair information
Shell pair cut-off parameter TPreSel        ...   1.0e-11
Total number of shell pairs                 ...      2701
Shell pairs after pre-screening             ...      2468
Total number of primitive shell pairs       ...     10318
Primitive shell pairs kept                  ...      6792
          la=0 lb=0:    722 shell pairs
          la=1 lb=0:    875 shell pairs
          la=1 lb=1:    280 shell pairs
          la=2 lb=0:    338 shell pairs
          la=2 lb=1:    209 shell pairs
          la=2 lb=2:     44 shell pairs

Calculating one electron integrals          ... done (  0.0 sec)
Calculating RI/J V-Matrix + Cholesky decomp.... done (  0.0 sec)
Calculating Nuclear repulsion               ... done (  0.0 sec) ENN=    289.522053528811 Eh

Diagonalization of the overlap matrix:
Smallest eigenvalue                        ... 3.805e-04
Time for diagonalization                   ...    0.003 sec
Threshold for overlap eigenvalues          ... 1.000e-07
Number of eigenvalues below threshold      ... 0
Time for construction of square roots      ...    0.003 sec
Total time needed                          ...    0.007 sec

-------------------
DFT GRID GENERATION
-------------------

General Integration Accuracy     IntAcc      ... 4.388
Radial Grid Type                 RadialGrid  ... OptM3 with GC (2021)
Angular Grid (max. ang.)         AngularGrid ... 4 (Lebedev-302)
Angular grid pruning method      GridPruning ... 4 (adaptive)
Weight generation scheme         WeightScheme... mBecke (2022)
Basis function cutoff            BFCut       ... 1.0000e-10
Integration weight cutoff        WCut        ... 1.0000e-14
Partially contracted basis set               ... off
Rotationally invariant grid construction     ... off
Angular grids for H and He will be reduced by one unit
Diffuse basis detected: some atoms will have their outermost
                        angular grid increased by 1.

Total number of grid points                  ...    54503
Total number of batches                      ...      857
Average number of points per batch           ...       63
Average number of grid points per atom       ...     4955
Initializing property integral containers    ... done (  0.0 sec)

SHARK setup successfully completed in   0.5 seconds

Maximum memory used throughout the entire STARTUP-calculation: 25.4 MB
-------------------------------------------------------------------------------
                                 ORCA GUESS
                   Start orbitals & Density for SCF / CASSCF
-------------------------------------------------------------------------------

------------
SCF SETTINGS
------------
Hamiltonian:
 Density Functional     Method          .... DFT(GTOs)
  Functional kind                       .... Exchange
  Functional name                       .... Re-regularized SCAN exchange by Furness et al
  Functional family                     .... MGGA
  Functional refs                              
    [ 0] J. W. Furness, A. D. Kaplan, J. Ning, J. P. Perdew, and J. Sun.,  J. Phys. Chem. Lett. 11, 8208-8215 (2020), doi: 10.1021/acs.jpclett.0c02405
    [ 1] J. W. Furness, A. D. Kaplan, J. Ning, J. P. Perdew, and J. Sun.,  J. Phys. Chem. Lett. 11, 9248-9248 (2020), doi: 10.1021/acs.jpclett.0c03077
  Functional external parameters        .... 6
    Parameter  0 _c1        =  6.670000e-01 : c1 parameter        
    Parameter  1 _c2        =  8.000000e-01 : c2 parameter        
    Parameter  2 _d         =  1.240000e+00 : d parameter         
    Parameter  3 _k1        =  6.500000e-02 : k1 parameter        
    Parameter  4 _eta       =  1.000000e-03 : eta parameter       
    Parameter  5 _dp2       =  3.610000e-01 : dp2 parameter       
  Functional kind                       .... Correlation
  Functional name                       .... Re-regularized SCAN correlation by Furness et al
  Functional family                     .... MGGA
  Functional refs                              
    [ 0] J. W. Furness, A. D. Kaplan, J. Ning, J. P. Perdew, and J. Sun.,  J. Phys. Chem. Lett. 11, 8208-8215 (2020), doi: 10.1021/acs.jpclett.0c02405
    [ 1] J. W. Furness, A. D. Kaplan, J. Ning, J. P. Perdew, and J. Sun.,  J. Phys. Chem. Lett. 11, 9248-9248 (2020), doi: 10.1021/acs.jpclett.0c03077
  Functional external parameters        .... 1
    Parameter  0 _eta       =  1.000000e-03 : Regularization parameter
 Gradients option       PostSCFGGA      .... off
 RI-approximation to the Coulomb term is turned on
   Number of AuxJ basis functions       .... 351


General Settings:
 Integral files         IntName         .... sp
 Hartree-Fock type      HFTyp           .... RHF
 Total Charge           Charge          ....    0
 Multiplicity           Mult            ....    1
 Number of Electrons    NEL             ....   56
 Basis Dimension        Dim             ....  157
 Nuclear Repulsion      ENuc            ....    289.5220535288 Eh

Convergence Acceleration:
 AO-DIIS                CNVDIIS         .... on
   Start iteration      DIISMaxIt       ....    12
   Startup error        DIISStart       ....  0.200000
   # of expansion vecs  DIISMaxEq       ....     5
   Bias factor          DIISBfac        ....   1.050
   Max. coefficient     DIISMaxC        ....  10.000
 MO-DIIS                CNVKDIIS        .... off
 Trust-Rad. Augm. Hess. CNVTRAH         .... auto
   Auto Start mean grad. ratio tolernc. ....  1.125000
   Auto Start start iteration           ....     1
   Auto Start num. interpolation iter.  ....    10
   Max. Number of Micro iterations      ....    24
   Max. Number of Macro iterations      .... Maxiter - #DIIS iter
   Number of Davidson start vectors     ....     2
   Converg. threshold    (grad. norm)   ....   3.330e-04
   Grad. Scal. Fac. for Micro threshold ....   0.100
   Minimum threshold for Micro iter.    ....   1.000e-02
   NR start threshold (gradient norm)   ....   1.000e-04
   Initial trust radius                 ....   0.400
   Minimum AH scaling param. (alpha)    ....   1.000
   Maximum AH scaling param. (alpha)    .... 1000.000
   Quad. conv. algorithm                .... NR
   White noise on init. David. guess    .... on
   Maximum white noise                  ....   0.010
   Pseudo random numbers                .... off
   Inactive MOs                         .... canonical
   Orbital update algorithm             .... Taylor
   Preconditioner                       .... Diag
   Full preconditioner red. dimension   ....   250
   COSX micro iterations for RIJONX calc.... off
 SOSCF                  CNVSOSCF        .... on
   Start iteration      SOSCFMaxIt      ....   150
   Startup grad/error   SOSCFStart      ....  0.003300
   Hessian update       SOSCFHessUp     .... L-BFGS
 Level Shifting         CNVShift        .... on
   Level shift para.    LevelShift      ....    0.2500
   Turn off err/grad.   ShiftErr        ....    0.0010
 Zerner damping         CNVZerner       .... off
 Static damping         CNVDamp         .... on
   Fraction old density DampFac         ....    0.7000
   Max. Damping (<1)    DampMax         ....    0.9800
   Min. Damping (>=0)   DampMin         ....    0.0000
   Turn off err/grad.   DampErr         ....    0.1000

SCF Procedure:
 Maximum # iterations   MaxIter         ....   125
 SCF integral mode      SCFMode         .... Direct
   Integral package                     .... SHARK and LIBINT hybrid scheme
 Reset frequency        DirectResetFreq ....    20
 Integral Threshold     Thresh          ....  1.000e-10 Eh
 Primitive CutOff       TCut            ....  1.000e-11 Eh

Convergence Tolerance:
 Convergence Check Mode ConvCheckMode   .... Total+1el-Energy
 Convergence forced     ConvForced      .... 0
 Energy Change          TolE            ....  1.000e-06 Eh
 1-El. energy change                    ....  1.000e-03 Eh
 Orbital Gradient       TolG            ....  3.330e-04
 Orbital Rotation angle TolX            ....  3.330e-04
 DIIS Error             TolErr          ....  1.000e-06

---------------------
INITIAL GUESS: MOREAD
---------------------
Guess MOs are being read from file: sp.ges
Input Geometry matches current geometry (good)
Atom 0: N(Shells)= 9 and 6 - projection required
Input basis set needs projection
NBasis(read)= 98
NBasis(calc)= 157
Basis set overlap was calculated
Using GuessMode=FMatrix for the initial guess
C*T matrix was formed
Effective Fockian was calculated
Effective Fockian was diagonalized
Initial density was built
                      ------------------
                      INITIAL GUESS DONE (   0.0 sec)
                      ------------------
             **** ENERGY FILE WAS UPDATED (sp.en.tmp) ****
Finished Guess after   0.1 sec
Maximum memory used throughout the entire GUESS-calculation: 11.0 MB

-------------------------------------------------------------------------------------------
                                      ORCA LEAN-SCF
                              memory conserving SCF solver
-------------------------------------------------------------------------------------------

----------------------------------------D-I-I-S--------------------------------------------
Iteration    Energy (Eh)           Delta-E    RMSDP     MaxDP     DIISErr   Damp  Time(sec)
-------------------------------------------------------------------------------------------
               ***  Starting incremental Fock matrix formation  ***
    1    -727.7537071187468882     0.00e+00  3.70e-03  1.54e-01  6.26e-01  0.700   0.9
    2    -727.8002056599832486    -4.65e-02  3.00e-03  1.18e-01  4.40e-01  0.700   0.8
    3    -727.8330690665845850    -3.29e-02  2.20e-03  8.46e-02  3.08e-01  0.700   0.8
    4    -727.8561414430548666    -2.31e-02  1.57e-03  5.99e-02  2.16e-01  0.700   0.8
                               ***Turning on AO-DIIS***
    5    -727.8723239143644150    -1.62e-02  1.13e-03  4.31e-02  1.51e-01  0.700   0.8
    6    -727.8836654822973742    -1.13e-02  8.02e-04  3.04e-02  1.06e-01  0.700   0.8
    7    -727.8916158010536037    -7.95e-03  5.64e-04  2.14e-02  7.40e-02  0.700   0.8
    8    -727.8971855011564003    -5.57e-03  1.32e-03  4.98e-02  5.18e-02  0.000   0.8
                              *** Initializing SOSCF ***
---------------------------------------S-O-S-C-F--------------------------------------
Iteration    Energy (Eh)           Delta-E    RMSDP     MaxDP     MaxGrad    Time(sec)
--------------------------------------------------------------------------------------
    9    -727.9101965179763738    -1.30e-02  6.57e-06  2.13e-04  8.62e-05     0.8
               *** Restarting incremental Fock matrix formation ***
   10    -727.9101965689719691    -5.10e-08  5.95e-06  1.14e-04  3.83e-05     0.9
                  *** Gradient check signals convergence ***

               *****************************************************
               *                     SUCCESS                       *
               *           SCF CONVERGED AFTER  10 CYCLES          *
               *****************************************************

             **** ENERGY FILE WAS UPDATED (sp.en.tmp) ****

----------------
TOTAL SCF ENERGY
----------------

Total Energy       :       -727.91019656897197 Eh          -19807.44344 eV

Components:
Nuclear Repulsion  :        289.52205352881100 Eh            7878.29560 eV
Electronic Energy  :      -1017.43225009778303 Eh          -27685.73904 eV
One Electron Energy:      -1574.87522003510958 Eh          -42854.53342 eV
Two Electron Energy:        557.44296993732655 Eh           15168.79438 eV

Virial components:
Potential Energy   :      -1453.77133156050263 Eh          -39559.12908 eV
Kinetic Energy     :        725.86113499153066 Eh           19751.68564 eV
Virial Ratio       :          2.00282293882213

DFT components:
N(Alpha)           :       28.000004162903 electrons
N(Beta)            :       28.000004162903 electrons
N(Total)           :       56.000008325806 electrons
E(X)               :      -61.509600310041 Eh       
E(C)               :       -1.933837582420 Eh       
E(XC)              :      -63.443437892461 Eh       

---------------
SCF CONVERGENCE
---------------

  Last Energy change         ...    5.0996e-08  Tolerance :   1.0000e-06
  Last MAX-Density change    ...    1.1351e-04  Tolerance :   1.0000e-05
  Last RMS-Density change    ...    5.9529e-06  Tolerance :   1.0000e-06
  Last DIIS Error            ...    8.6194e-05  Tolerance :   1.0000e-06
  Last Orbital Gradient      ...    3.8299e-05  Tolerance :   3.3300e-04
  Last Orbital Rotation      ...    1.4860e-04  Tolerance :   3.3300e-04


----------------
ORBITAL ENERGIES
----------------

  NO   OCC          E(Eh)            E(eV) 
   0   2.0000    -101.211319     -2754.1000 
   1   2.0000     -19.016552      -517.4667 
   2   2.0000     -18.949933      -515.6539 
   3   2.0000     -10.174951      -276.8745 
   4   2.0000     -10.114031      -275.2168 
   5   2.0000     -10.096402      -274.7371 
   6   2.0000      -9.367181      -254.8940 
   7   2.0000      -7.113990      -193.5815 
   8   2.0000      -7.102949      -193.2811 
   9   2.0000      -7.102879      -193.2792 
  10   2.0000      -1.091544       -29.7024 
  11   2.0000      -1.003370       -27.3031 
  12   2.0000      -0.833298       -22.6752 
  13   2.0000      -0.733132       -19.9495 
  14   2.0000      -0.658275       -17.9126 
  15   2.0000      -0.548298       -14.9200 
  16   2.0000      -0.494631       -13.4596 
  17   2.0000      -0.479938       -13.0598 
  18   2.0000      -0.458581       -12.4786 
  19   2.0000      -0.436595       -11.8803 
  20   2.0000      -0.408389       -11.1128 
  21   2.0000      -0.394407       -10.7323 
  22   2.0000      -0.371591       -10.1115 
  23   2.0000      -0.336290        -9.1509 
  24   2.0000      -0.291209        -7.9242 
  25   2.0000      -0.277012        -7.5379 
  26   2.0000      -0.274054        -7.4574 
  27   2.0000      -0.261284        -7.1099 
  28   0.0000      -0.033427        -0.9096 
  29   0.0000       0.001609         0.0438 
  30   0.0000       0.066353         1.8056 
  31   0.0000       0.084398         2.2966 
  32   0.0000       0.112067         3.0495 
  33   0.0000       0.133091         3.6216 
  34   0.0000       0.148838         4.0501 
  35   0.0000       0.158361         4.3092 
  36   0.0000       0.169264         4.6059 
  37   0.0000       0.171495         4.6666 
  38   0.0000       0.182118         4.9557 
*Only the first 10 virtual orbitals were printed.

                    ********************************
                    * MULLIKEN POPULATION ANALYSIS *
                    ********************************

-----------------------
MULLIKEN ATOMIC CHARGES
-----------------------
   0 C :   -0.302143
   1 O :   -0.195059
   2 C :    0.379893
   3 O :   -0.406415
   4 C :   -0.194922
   5 Cl:   -0.136636
   6 H :    0.191623
   7 H :    0.151199
   8 H :    0.150754
   9 H :    0.181539
  10 H :    0.180168
Sum of atomic charges:    0.0000000

--------------------------------
MULLIKEN REDUCED ORBITAL CHARGES
--------------------------------
  0 C s       :     3.323049  s :     3.323049
      pz      :     1.093924  p :     2.935888
      px      :     0.725870
      py      :     1.116094
      dz2     :     0.005054  d :     0.043206
      dxz     :     0.012196
      dyz     :     0.005582
      dx2y2   :     0.011842
      dxy     :     0.008532

  1 O s       :     3.704793  s :     3.704793
      pz      :     1.711127  p :     4.468686
      px      :     1.123920
      py      :     1.633639
      dz2     :     0.002072  d :     0.021580
      dxz     :     0.009584
      dyz     :     0.008314
      dx2y2   :     0.002032
      dxy     :    -0.000422

  2 C s       :     3.115517  s :     3.115517
      pz      :     0.766859  p :     2.378132
      px      :     0.842736
      py      :     0.768537
      dz2     :     0.018992  d :     0.126458
      dxz     :     0.022031
      dyz     :     0.018306
      dx2y2   :     0.026392
      dxy     :     0.040737

  3 O s       :     3.849234  s :     3.849234
      pz      :     1.395327  p :     4.536671
      px      :     1.786637
      py      :     1.354707
      dz2     :     0.006404  d :     0.020510
      dxz     :     0.001474
      dyz     :     0.008167
      dx2y2   :     0.003605
      dxy     :     0.000861

  4 C s       :     3.178073  s :     3.178073
      pz      :     1.116278  p :     2.976890
      px      :     0.912716
      py      :     0.947896
      dz2     :     0.007530  d :     0.039960
      dxz     :     0.005445
      dyz     :     0.007207
      dx2y2   :     0.009933
      dxy     :     0.009844

  5 Cls       :     5.950610  s :     5.950610
      pz      :     3.949970  p :    11.140559
      px      :     3.588544
      py      :     3.602045
      dz2     :     0.005927  d :     0.045467
      dxz     :     0.005686
      dyz     :     0.006379
      dx2y2   :     0.010438
      dxy     :     0.017037

  6 H s       :     0.789674  s :     0.789674
      pz      :     0.005636  p :     0.018703
      px      :     0.002584
      py      :     0.010483

  7 H s       :     0.831099  s :     0.831099
      pz      :     0.009268  p :     0.017702
      px      :     0.004684
      py      :     0.003750

  8 H s       :     0.831563  s :     0.831563
      pz      :     0.006413  p :     0.017683
      px      :     0.003663
      py      :     0.007607

  9 H s       :     0.800275  s :     0.800275
      pz      :     0.006040  p :     0.018186
      px      :     0.003527
      py      :     0.008619

 10 H s       :     0.801715  s :     0.801715
      pz      :     0.011261  p :     0.018117
      px      :     0.002977
      py      :     0.003879


------------------------
MULLIKEN OVERLAP CHARGES
------------------------
B(  0-C ,  1-O ) :   0.3597 B(  0-C ,  2-C ) :  -0.2262 B(  0-C ,  6-H ) :   0.8537 
B(  0-C ,  7-H ) :   0.7934 B(  0-C ,  8-H ) :   0.7896 B(  1-O ,  2-C ) :   0.3620 
B(  1-O ,  3-O ) :  -0.2094 B(  1-O ,  4-C ) :  -0.0987 B(  1-O ,  6-H ) :  -0.0568 
B(  1-O ,  7-H ) :  -0.0784 B(  1-O ,  8-H ) :  -0.0747 B(  2-C ,  3-O ) :   1.0076 
B(  2-C ,  4-C ) :   0.5556 B(  2-C ,  5-Cl) :  -0.1209 B(  2-C ,  6-H ) :  -0.0583 
B(  2-C , 10-H ) :  -0.0791 B(  3-O ,  4-C ) :  -0.1365 B(  4-C ,  5-Cl) :   0.5492 
B(  4-C ,  9-H ) :   0.7879 B(  4-C , 10-H ) :   0.8341 B(  5-Cl,  9-H ) :  -0.0751 
B(  5-Cl, 10-H ) :  -0.0771 B(  9-H , 10-H ) :  -0.0538 


                     *******************************
                     * LOEWDIN POPULATION ANALYSIS *
                     *******************************

----------------------
LOEWDIN ATOMIC CHARGES
----------------------
   0 C :   -0.043432
   1 O :   -0.603487
   2 C :    0.334608
   3 O :   -0.412360
   4 C :   -0.264079
   5 Cl:    0.078784
   6 H :    0.195457
   7 H :    0.175325
   8 H :    0.174107
   9 H :    0.183081
  10 H :    0.181996

-------------------------------
LOEWDIN REDUCED ORBITAL CHARGES
-------------------------------
  0 C s       :     2.904839  s :     2.904839
      pz      :     1.101043  p :     3.034740
      px      :     0.824337
      py      :     1.109360
      dz2     :     0.010932  d :     0.103853
      dxz     :     0.029779
      dyz     :     0.014852
      dx2y2   :     0.028460
      dxy     :     0.019831

  1 O s       :     3.469731  s :     3.469731
      pz      :     1.696616  p :     4.671456
      px      :     1.329316
      py      :     1.645524
      dz2     :     0.052784  d :     0.462300
      dxz     :     0.116697
      dyz     :     0.043159
      dx2y2   :     0.129280
      dxy     :     0.120381

  2 C s       :     2.740726  s :     2.740726
      pz      :     0.796534  p :     2.647591
      px      :     0.943985
      py      :     0.907071
      dz2     :     0.035797  d :     0.277075
      dxz     :     0.046357
      dyz     :     0.045992
      dx2y2   :     0.057702
      dxy     :     0.091228

  3 O s       :     3.541389  s :     3.541389
      pz      :     1.434594  p :     4.637715
      px      :     1.734047
      py      :     1.469074
      dz2     :     0.034986  d :     0.233256
      dxz     :     0.026008
      dyz     :     0.058671
      dx2y2   :     0.059848
      dxy     :     0.053742

  4 C s       :     2.975113  s :     2.975113
      pz      :     1.151080  p :     3.202591
      px      :     0.996038
      py      :     1.055473
      dz2     :     0.017718  d :     0.086375
      dxz     :     0.009848
      dyz     :     0.016365
      dx2y2   :     0.020382
      dxy     :     0.022062

  5 Cls       :     5.683357  s :     5.683357
      pz      :     3.932441  p :    11.135659
      px      :     3.582068
      py      :     3.621151
      dz2     :     0.014044  d :     0.102200
      dxz     :     0.012422
      dyz     :     0.013745
      dx2y2   :     0.021249
      dxy     :     0.040741

  6 H s       :     0.758908  s :     0.758908
      pz      :     0.013195  p :     0.045634
      px      :     0.006206
      py      :     0.026233

  7 H s       :     0.784214  s :     0.784214
      pz      :     0.022881  p :     0.040461
      px      :     0.009281
      py      :     0.008299

  8 H s       :     0.785384  s :     0.785384
      pz      :     0.014618  p :     0.040509
      px      :     0.007170
      py      :     0.018721

  9 H s       :     0.771500  s :     0.771500
      pz      :     0.015331  p :     0.045419
      px      :     0.008293
      py      :     0.021795

 10 H s       :     0.772675  s :     0.772675
      pz      :     0.029041  p :     0.045329
      px      :     0.006943
      py      :     0.009345


---------------------------------
LOEWDIN BOND ORDERS (THRESH 0.050000)
---------------------------------
B(  0-C ,  1-O ) :   1.3551 B(  0-C ,  2-C ) :   0.0865 B(  0-C ,  3-O ) :   0.0740 
B(  0-C ,  6-H ) :   0.8373 B(  0-C ,  7-H ) :   0.8654 B(  0-C ,  8-H ) :   0.8657 
B(  1-O ,  2-C ) :   1.4398 B(  1-O ,  3-O ) :   0.4564 B(  1-O ,  4-C ) :   0.1863 
B(  1-O ,  6-H ) :   0.0947 B(  1-O ,  7-H ) :   0.1005 B(  1-O ,  8-H ) :   0.1004 
B(  2-C ,  3-O ) :   2.2323 B(  2-C ,  4-C ) :   0.9087 B(  2-C ,  5-Cl) :   0.1134 
B(  3-O ,  4-C ) :   0.1810 B(  3-O ,  5-Cl) :   0.0690 B(  4-C ,  5-Cl) :   1.3819 
B(  4-C ,  9-H ) :   0.8692 B(  4-C , 10-H ) :   0.8694 

------------------------------------------
LOEWDIN REDUCED ORBITAL POPULATIONS PER MO
-------------------------------------------
THRESHOLD FOR PRINTING IS 0.1%%
                      0         1         2         3         4         5   
                 -101.21132 -19.01655 -18.94993 -10.17495 -10.11403 -10.09640
                   2.00000   2.00000   2.00000   2.00000   2.00000   2.00000
                  --------  --------  --------  --------  --------  --------
 0 C  s               0.0       0.0       0.0       0.0       0.0      99.4
 1 O  s               0.0      99.9       0.0       0.0       0.0       0.0
 1 O  px              0.0       0.0       0.0       0.1       0.0       0.1
 1 O  dx2y2           0.0       0.0       0.0       0.0       0.0       0.2
 1 O  dxy             0.0       0.0       0.0       0.2       0.0       0.0
 2 C  s               0.0       0.0       0.0      98.9       0.0       0.0
 3 O  s               0.0       0.0      99.9       0.0       0.0       0.0
 3 O  py              0.0       0.0       0.0       0.2       0.0       0.0
 3 O  dyz             0.0       0.0       0.0       0.2       0.0       0.0
 3 O  dx2y2           0.0       0.0       0.0       0.1       0.0       0.0
 4 C  s               0.0       0.0       0.0       0.0      99.7       0.0
 5 Cl s             100.0       0.0       0.0       0.0       0.0       0.0

                      6         7         8         9        10        11   
                  -9.36718  -7.11399  -7.10295  -7.10288  -1.09154  -1.00337
                   2.00000   2.00000   2.00000   2.00000   2.00000   2.00000
                  --------  --------  --------  --------  --------  --------
 0 C  s               0.0       0.0       0.0       0.0       4.3       2.1
 0 C  pz              0.0       0.0       0.0       0.0       0.1       0.2
 0 C  px              0.0       0.0       0.0       0.0       5.2       1.6
 0 C  py              0.0       0.0       0.0       0.0       0.1       0.3
 0 C  dx2y2           0.0       0.0       0.0       0.0       0.3       0.2
 1 O  s               0.0       0.0       0.0       0.0      39.8      18.8
 1 O  pz              0.0       0.0       0.0       0.0       0.8       0.1
 1 O  px              0.0       0.0       0.0       0.0       0.1       0.6
 1 O  py              0.0       0.0       0.0       0.0       1.9       0.3
 1 O  dz2             0.0       0.0       0.0       0.0       0.2       0.0
 1 O  dxz             0.0       0.0       0.0       0.0       0.1       0.2
 1 O  dyz             0.0       0.0       0.0       0.0       0.3       0.4
 1 O  dx2y2           0.0       0.0       0.0       0.0       0.0       0.4
 1 O  dxy             0.0       0.0       0.0       0.0       0.3       0.4
 2 C  s               0.0       0.0       0.0       0.0      17.4       3.5
 2 C  pz              0.0       0.0       0.0       0.0       0.0       6.4
 2 C  px              0.0       0.0       0.0       0.0       4.3       1.1
 2 C  py              0.0       0.0       0.0       0.0       0.1      16.6
 2 C  dz2             0.0       0.0       0.0       0.0       0.1       0.0
 2 C  dxz             0.0       0.0       0.0       0.0       0.1       0.2
 2 C  dyz             0.0       0.0       0.0       0.0       0.7       0.5
 2 C  dx2y2           0.0       0.0       0.0       0.0       0.0       0.6
 2 C  dxy             0.0       0.0       0.0       0.0       0.2       0.6
 3 O  s               0.0       0.0       0.0       0.0      14.1      39.4
 3 O  pz              0.0       0.0       0.0       0.0       1.0       1.0
 3 O  px              0.0       0.0       0.0       0.0       0.0       0.2
 3 O  py              0.0       0.0       0.0       0.0       2.5       2.4
 3 O  dyz             0.0       0.0       0.0       0.0       0.9       0.1
 3 O  dx2y2           0.0       0.0       0.0       0.0       0.4       0.0
 3 O  dxy             0.0       0.0       0.0       0.0       0.1       0.2
 4 C  s               0.0       0.0       0.0       0.0       1.2       0.2
 4 C  pz              0.0       0.0       0.0       0.0       0.1       0.1
 4 C  px              0.1       0.0       0.0       0.0       1.7       0.0
 4 C  py              0.1       0.0       0.0       0.0       0.2       0.4
 5 Cl s              99.8       0.0       0.0       0.0       0.1       0.1
 5 Cl pz              0.0       1.6      56.3      42.1       0.0       0.0
 5 Cl px              0.0      50.0      15.2      34.8       0.1       0.1
 5 Cl py              0.0      48.3      28.6      23.1       0.0       0.0
 6 H  s               0.0       0.0       0.0       0.0       0.4       0.1
 7 H  s               0.0       0.0       0.0       0.0       0.3       0.2
 8 H  s               0.0       0.0       0.0       0.0       0.3       0.2

                     12        13        14        15        16        17   
                  -0.83330  -0.73313  -0.65828  -0.54830  -0.49463  -0.47994
                   2.00000   2.00000   2.00000   2.00000   2.00000   2.00000
                  --------  --------  --------  --------  --------  --------
 0 C  s               0.3      19.2      13.0       5.8       0.0       0.0
 0 C  pz              0.0       0.1       0.0       2.5       2.4       8.5
 0 C  px              0.0       0.3       1.6      11.2       0.1       0.2
 0 C  py              0.0       0.2       0.0       4.4       5.3       3.0
 0 C  dxz             0.0       0.0       0.0       0.1       0.0       0.0
 0 C  dx2y2           0.0       0.0       0.0       0.3       0.0       0.0
 0 C  dxy             0.0       0.0       0.0       0.2       0.0       0.0
 1 O  s               0.1       0.1       2.2       5.2       0.8       0.0
 1 O  pz              0.0       0.0       0.1       2.3       3.2      17.6
 1 O  px              1.1      24.5       3.3      14.6       0.7       0.0
 1 O  py              0.0       0.4       0.3       8.0       6.7       4.8
 1 O  dz2             0.0       0.0       0.7       0.2       0.1       0.4
 1 O  dxz             0.0       0.4       0.1       0.1       0.3       0.0
 1 O  dyz             0.0       0.0       0.0       0.1       0.2       0.1
 1 O  dx2y2           0.2       0.1       2.6       0.3       0.6       0.0
 1 O  dxy             0.0       0.9       0.0       0.1       0.8       0.0
 2 C  s               1.4       5.1       0.8       4.5       1.9       0.0
 2 C  pz              0.8       1.9       0.1       0.8       0.1      13.5
 2 C  px              5.8       1.1       7.8       1.0      15.6       0.1
 2 C  py              1.2       4.9       0.4       1.7       0.1       4.6
 2 C  dxz             0.0       0.0       0.1       0.0       0.0       0.0
 2 C  dxy             0.0       0.0       0.3       0.0       0.0       0.0
 3 O  s               1.1       1.2       0.1       2.7       1.2       0.2
 3 O  pz              0.1       0.2       0.0       1.0       0.8       3.6
 3 O  px              0.2       0.1       0.3       0.3      11.6       0.1
 3 O  py              0.1       0.4       0.1       2.1       0.7       3.5
 3 O  dz2             0.0       0.0       0.0       0.0       0.0       0.8
 3 O  dxz             0.2       0.0       0.1       0.0       0.5       0.0
 3 O  dyz             0.1       0.3       0.0       0.3       0.1       0.1
 3 O  dx2y2           0.0       0.5       0.0       0.1       0.0       0.2
 3 O  dxy             0.2       0.2       0.2       0.0       1.1       0.0
 4 C  s              23.6       2.9      15.5       2.4       1.5       0.0
 4 C  pz              0.1       0.0       0.0       0.2       3.3      18.0
 4 C  px              3.3       6.5       2.2       2.7      10.8       0.2
 4 C  py              3.2       1.4       2.6       1.9      11.0       2.6
 4 C  dz2             0.1       0.0       0.0       0.1       0.1       0.0
 4 C  dxy             0.2       0.1       0.2       0.0       0.1       0.0
 5 Cl s              46.4      12.6      17.8       1.9       0.2       0.1
 5 Cl pz              0.1       0.0       0.0       0.0       0.5       1.8
 5 Cl px              1.3       0.2       2.1       0.7       0.4       0.3
 5 Cl py              1.4       0.2       1.8       1.6       2.8       0.1
 5 Cl dz2             0.2       0.0       0.2       0.0       0.0       0.0
 5 Cl dxz             0.0       0.0       0.0       0.0       0.0       0.2
 5 Cl dyz             0.0       0.0       0.0       0.0       0.1       0.1
 5 Cl dx2y2           0.0       0.0       0.0       0.0       0.5       0.0
 5 Cl dxy             0.6       0.0       0.5       0.1       0.1       0.0
 6 H  s               0.0       3.3       3.1       7.1       2.6       0.0
 6 H  py              0.0       0.2       0.2       0.3       0.1       0.0
 7 H  s               0.0       4.0       4.0       2.7       0.7       2.5
 7 H  pz              0.0       0.3       0.3       0.2       0.0       0.0
 7 H  px              0.0       0.1       0.1       0.0       0.0       0.1
 8 H  s               0.0       3.9       4.0       3.1       0.3       2.2
 8 H  pz              0.0       0.1       0.1       0.0       0.0       0.0
 8 H  py              0.0       0.2       0.2       0.2       0.0       0.0
 9 H  s               2.9       0.7       5.1       2.1       4.3       4.5
 9 H  pz              0.1       0.0       0.1       0.1       0.2       0.0
 9 H  py              0.2       0.0       0.2       0.1       0.0       0.2
10 H  s               2.9       0.8       4.6       1.7       4.8       4.9
10 H  pz              0.3       0.1       0.4       0.1       0.2       0.1

                     18        19        20        21        22        23   
                  -0.45858  -0.43659  -0.40839  -0.39441  -0.37159  -0.33629
                   2.00000   2.00000   2.00000   2.00000   2.00000   2.00000
                  --------  --------  --------  --------  --------  --------
 0 C  s               0.6       0.0       0.0       0.1       0.0       0.2
 0 C  pz              0.1      17.0       4.4       0.7       9.1       5.6
 0 C  px              8.4       0.7       2.6       7.5       0.1       0.6
 0 C  py              3.3       6.1       7.5       6.0       3.8      13.3
 0 C  dxz             0.0       0.0       0.0       0.0       0.3       0.1
 0 C  dyz             0.0       0.0       0.1       0.1       0.0       0.3
 0 C  dx2y2           0.1       0.0       0.0       0.0       0.0       0.4
 0 C  dxy             0.0       0.0       0.0       0.0       0.1       0.2
 1 O  s               1.3       0.0       0.0       0.4       0.0       4.1
 1 O  pz              1.6       8.6       0.4       0.3       2.8      10.9
 1 O  px             10.5       0.2       0.1       6.0       0.0       3.0
 1 O  py             12.3       2.0       0.7       0.4       1.0      23.1
 1 O  dz2             0.0       0.1       0.0       0.0       0.2       0.1
 1 O  dxz             0.1       1.8       0.3       0.1       1.5       0.3
 1 O  dyz             0.1       0.0       0.0       0.0       0.2       0.3
 1 O  dx2y2           0.5       0.0       0.1       0.2       0.2       0.9
 1 O  dxy             0.0       0.7       0.4       0.4       0.6       0.8
 2 C  s               1.5       0.0       0.7       0.2       0.0       0.2
 2 C  pz              0.5       0.1       2.1       0.0      11.6       1.1
 2 C  px              0.1       0.0       2.5       3.9       0.0       0.4
 2 C  py              3.6       0.2       3.3       0.2       4.8       2.8
 2 C  dz2             0.0       0.0       0.1       0.0       0.3       0.1
 2 C  dxz             0.0       0.2       0.0       0.1       0.1       0.0
 2 C  dyz             0.2       0.0       0.1       0.0       0.1       0.2
 2 C  dx2y2           0.4       0.0       0.2       0.0       0.1       0.6
 2 C  dxy             0.0       0.0       0.1       0.2       0.1       0.0
 3 O  s              11.8       0.3       4.0       0.1       0.0       1.0
 3 O  pz              9.6       0.5       5.5       0.6      23.0       2.0
 3 O  px              0.3       0.0       0.0       0.3       0.1       1.6
 3 O  py             16.6       0.4      18.8       0.3       8.7       5.1
 3 O  dz2             0.0       0.0       0.1       0.1       0.6       0.0
 3 O  dyz             0.3       0.0       0.1       0.0       0.1       0.1
 3 O  dx2y2           0.1       0.0       0.4       0.0       0.2       0.4
 4 C  s               0.2       0.0       0.3       0.2       0.0       0.2
 4 C  pz              1.4      21.0       3.3       0.9       4.7       0.1
 4 C  px              0.8       0.3       0.3      14.5       0.0       1.2
 4 C  py              2.3       4.7      11.4       4.9       2.7       0.3
 4 C  dz2             0.0       0.0       0.1       0.1       0.0       0.0
 4 C  dyz             0.0       0.1       0.0       0.0       0.1       0.0
 4 C  dxy             0.0       0.0       0.0       0.3       0.1       0.0
 5 Cl s               1.1       0.1       1.3       2.9       0.1       0.0
 5 Cl pz              0.0       4.3       0.2       0.3       3.3       0.0
 5 Cl px              2.6       0.8      12.5      13.8       1.1       0.1
 5 Cl py              1.7       0.1       1.6      22.4       0.1       1.2
 5 Cl dz2             0.1       0.0       0.1       0.1       0.0       0.0
 5 Cl dxz             0.0       0.2       0.0       0.0       0.1       0.0
 5 Cl dyz             0.0       0.2       0.0       0.0       0.1       0.0
 5 Cl dx2y2           0.0       0.1       0.2       0.0       0.0       0.0
 5 Cl dxy             0.1       0.0       0.1       0.3       0.0       0.0
 6 H  s               0.1       0.0       5.0       2.6       0.0      13.2
 6 H  pz              0.0       0.1       0.0       0.0       0.1       0.0
 6 H  py              0.0       0.0       0.1       0.0       0.0       0.2
 7 H  s               1.1       7.1       3.0       2.2       5.1       2.0
 7 H  pz              0.1       0.1       0.0       0.1       0.0       0.0
 7 H  py              0.0       0.0       0.1       0.1       0.0       0.1
 8 H  s               3.4       5.8       0.9       2.9       6.1       1.0
 8 H  pz              0.1       0.0       0.1       0.1       0.0       0.1
 8 H  px              0.0       0.1       0.0       0.0       0.0       0.0
 9 H  s               0.0       8.2       1.2       0.2       4.4       0.0
 9 H  pz              0.0       0.0       0.1       0.0       0.0       0.0
 9 H  px              0.0       0.0       0.0       0.2       0.0       0.0
 9 H  py              0.0       0.2       0.0       0.0       0.0       0.0
10 H  s               0.7       6.3       3.2       1.9       1.7       0.0
10 H  pz              0.0       0.1       0.1       0.1       0.0       0.0
10 H  px              0.0       0.0       0.0       0.1       0.0       0.0
10 H  py              0.0       0.2       0.0       0.0       0.1       0.0

                     24        25        26        27        28        29   
                  -0.29121  -0.27701  -0.27405  -0.26128  -0.03343   0.00161
                   2.00000   2.00000   2.00000   2.00000   0.00000   0.00000
                  --------  --------  --------  --------  --------  --------
 0 C  s               0.0       0.1       0.0       0.2       0.0       0.3
 0 C  pz              3.8       0.0       0.5       0.1       0.0       0.3
 0 C  px              0.1       0.3       0.0       0.7       0.2       4.4
 0 C  py              1.6       0.1       0.2       0.4       0.1       0.3
 0 C  dxz             0.7       0.0       0.1       0.0       0.2       0.1
 0 C  dx2y2           0.0       0.0       0.0       0.0       0.0       0.2
 0 C  dxy             0.3       0.0       0.0       0.0       0.1       0.0
 1 O  s               0.0       0.1       0.0       0.4       0.1       2.9
 1 O  pz             27.9       1.3       5.0       1.8       6.3       0.3
 1 O  px              0.2       0.2       0.0       1.1       0.1       0.2
 1 O  py             14.3       0.0       0.8       5.0       2.6       0.6
 1 O  dz2             0.3       0.1       0.0       0.1       0.5       0.6
 1 O  dxz             0.5       0.0       0.0       0.0       1.8       0.4
 1 O  dyz             0.0       0.1       0.0       0.3       0.4       0.1
 1 O  dx2y2           0.1       0.1       0.0       0.0       0.8       0.2
 1 O  dxy             0.2       0.0       0.0       0.2       1.3       0.1
 2 C  s               0.0       0.6       0.0       0.2       0.0       0.5
 2 C  pz              0.2       0.3       0.0       0.2      24.9       4.3
 2 C  px              0.1       2.3       0.0       1.1       0.1       0.4
 2 C  py              0.1       0.2       0.0       0.4      11.4       0.4
 2 C  dz2             1.1       0.0       0.0       0.0       0.4       0.3
 2 C  dxz             0.2       0.0       0.0       1.3       0.3       0.1
 2 C  dyz             0.4       0.0       0.0       0.1       0.1       0.0
 2 C  dx2y2           0.4       0.0       0.0       0.2       0.2       0.4
 2 C  dxy             0.0       0.0       0.1       2.9       0.3       0.2
 3 O  s               0.0       0.2       0.0       0.0       0.0       0.0
 3 O  pz             22.0       0.2       0.6       0.1      16.5       1.3
 3 O  px              0.6       2.2       0.8      68.0       0.0       0.4
 3 O  py              7.4       2.1       0.4       1.6       6.1       0.9
 3 O  dz2             0.1       0.1       0.0       0.0       3.8       0.7
 3 O  dxz             0.1       0.0       0.0       0.1       0.5       0.0
 3 O  dyz             0.0       0.1       0.0       0.0       1.0       0.0
 3 O  dx2y2           0.0       0.5       0.0       0.0       0.9       0.2
 3 O  dxy             0.0       0.1       0.0       0.4       0.2       0.4
 4 C  s               0.0       0.1       0.0       0.7       0.5       8.5
 4 C  pz              0.1       0.2       3.3       0.6       0.1       0.6
 4 C  px              0.0       0.8       0.0       4.5       1.4      10.3
 4 C  py              0.1       0.5       0.2       2.5       1.3      10.8
 4 C  dz2             0.0       0.1       0.1       0.0       0.2       0.7
 4 C  dxz             0.0       0.1       0.1       0.0       0.5       0.2
 4 C  dyz             0.0       0.0       0.4       0.0       0.5       0.0
 4 C  dx2y2           0.1       0.6       0.1       0.1       0.1       0.0
 4 C  dxy             0.0       0.0       0.0       0.0       0.9       0.6
 5 Cl s               0.0       0.0       0.0       0.1       0.7       4.5
 5 Cl pz              3.5      13.8      68.1       0.5       0.1       0.3
 5 Cl px              1.8      38.1       2.1       1.0       2.1      12.5
 5 Cl py              2.8      32.9       8.9       1.3       1.5      11.5
 5 Cl dz2             0.0       0.0       0.0       0.0       0.5       2.8
 5 Cl dxz             0.0       0.0       0.0       0.0       0.2       0.2
 5 Cl dyz             0.0       0.0       0.0       0.0       0.0       0.4
 5 Cl dxy             0.0       0.0       0.0       0.1       0.7      10.9
 6 H  s               0.1       0.0       0.0       0.1       0.0       0.0
 6 H  px              0.0       0.0       0.0       0.1       0.0       0.1
 7 H  s               3.7       0.0       0.5       0.0       0.5       0.0
 8 H  s               4.4       0.1       0.6       0.0       0.6       0.1
 8 H  px              0.0       0.0       0.0       0.0       0.0       0.2
 9 H  s               0.4       0.5       3.1       0.6       3.4       1.0
 9 H  px              0.0       0.0       0.0       0.1       0.3       0.3
 9 H  py              0.0       0.0       0.0       0.0       0.0       0.9
10 H  s               0.2       0.9       3.4       0.5       2.3       0.3
10 H  px              0.0       0.0       0.0       0.1       0.0       0.5
10 H  py              0.0       0.0       0.0       0.0       0.2       0.4

                     30        31        32        33        34        35   
                   0.06635   0.08440   0.11207   0.13309   0.14884   0.15836
                   0.00000   0.00000   0.00000   0.00000   0.00000   0.00000
                  --------  --------  --------  --------  --------  --------
 0 C  s               6.2       8.6      27.4       0.7       0.2       0.4
 0 C  pz              0.8       1.6       0.2       2.1      14.7       1.1
 0 C  px             17.2      28.7       6.8       1.1       0.8       1.8
 0 C  py              0.7       2.0       1.0       4.1       0.3      20.9
 0 C  dz2             0.5       0.5       0.1       0.1       0.1       0.1
 0 C  dxz             0.2       0.2       0.0       0.2       0.0       0.1
 0 C  dyz             0.0       0.0       0.1       0.4       0.0       0.1
 0 C  dx2y2           1.2       1.6       0.1       0.1       0.1       0.0
 0 C  dxy             0.2       0.2       0.1       0.1       0.0       0.1
 1 O  s               4.9       3.8       0.4       0.2       0.0       0.1
 1 O  pz              0.4       0.5       0.2       0.4       2.6       0.1
 1 O  px              1.4       7.6       0.2       1.2       0.4       0.4
 1 O  py              0.4       0.6       0.5       0.6       0.0       2.7
 1 O  dz2             2.6       1.5       0.3       0.8       0.3       0.3
 1 O  dxz             0.3       0.2       0.2       2.4       1.1       0.0
 1 O  dyz             0.9       0.2       0.2       0.1       0.7       2.1
 1 O  dx2y2           2.1       2.7       1.4       0.3       0.2       0.1
 1 O  dxy             0.2       0.2       0.0       4.9       0.0       0.3
 2 C  s              13.4       2.8       0.3       7.6       1.1       2.8
 2 C  pz              0.4       0.3       0.0       1.4       5.1       3.1
 2 C  px              0.3       0.7       4.5       2.7       0.5       1.7
 2 C  py              0.5       0.6       0.1       8.0       2.6       3.9
 2 C  dz2             0.5       0.0       0.0       0.2       0.2       0.2
 2 C  dxz             0.1       0.0       0.0       0.0       0.3       0.0
 2 C  dyz             1.5       0.4       0.1       0.4       0.1       0.3
 2 C  dx2y2           0.0       0.4       0.0       0.1       0.1       0.1
 2 C  dxy             0.1       0.0       0.0       0.0       0.0       0.1
 3 O  s               2.4       0.4       0.0       1.4       0.1       0.8
 3 O  pz              0.0       0.1       0.0       0.1       0.8       0.2
 3 O  px              0.1       0.4       2.0       0.1       0.2       0.4
 3 O  py              0.7       0.1       0.1       0.2       0.3       0.5
 3 O  dz2             0.2       0.1       0.0       0.0       0.3       1.0
 3 O  dxz             0.1       0.0       0.0       0.3       0.4       1.5
 3 O  dyz             1.4       0.3       0.0       0.0       0.5       1.0
 3 O  dx2y2           0.0       0.0       0.2       0.0       1.0       0.9
 3 O  dxy             0.0       0.3       0.1       0.2       0.7       0.1
 4 C  s              12.2       8.9      11.2       0.3       0.3       1.0
 4 C  pz              0.1       0.1       0.3       2.2      30.0       1.4
 4 C  px              3.6       2.8       5.5      17.4       1.0       4.5
 4 C  py              3.0       0.5       2.2       5.4       1.5      34.1
 4 C  dz2             0.3       0.4       0.3       1.3       0.4       0.4
 4 C  dxz             0.0       0.0       0.0       0.7       0.0       0.1
 4 C  dyz             0.1       0.0       0.0       0.2       1.9       0.1
 4 C  dx2y2           0.0       0.3       0.0       1.2       0.1       0.1
 4 C  dxy             0.3       0.0       0.4       0.8       0.0       0.2
 5 Cl s               2.0       0.1       1.3       0.1       0.0       0.1
 5 Cl pz              0.0       0.1       0.1       0.1       0.2       0.0
 5 Cl px              0.9       0.1       0.3       1.0       0.1       0.4
 5 Cl py              0.8       0.8       0.1       0.2       0.0       0.5
 5 Cl dz2             0.0       1.2       0.6       0.2       0.0       0.6
 5 Cl dxz             0.0       0.0       0.0       0.0       3.7       0.0
 5 Cl dyz             0.0       0.5       0.1       2.2       0.7       0.7
 5 Cl dx2y2           0.0       0.6       0.0       4.9       0.1       0.2
 5 Cl dxy             0.0       1.9       0.6       2.5       0.0       0.1
 6 H  s               0.8       0.7       1.6       4.8       0.3       0.3
 6 H  pz              0.0       0.1       0.2       0.3       0.0       0.1
 6 H  px              0.6       0.6       0.0       0.1       0.0       0.1
 6 H  py              0.2       0.2       0.8       1.2       0.1       0.1
 7 H  s               1.5       0.6       5.9       0.9       0.3       1.1
 7 H  pz              0.8       0.0       2.5       0.1       0.2       0.2
 7 H  px              0.2       1.2       0.3       0.0       0.1       0.1
 7 H  py              0.0       0.0       0.0       0.1       0.0       0.2
 8 H  s               1.6       0.6       6.8       0.3       0.2       0.6
 8 H  pz              0.2       0.1       1.1       0.1       0.1       0.1
 8 H  px              0.3       1.1       0.1       0.0       0.0       0.0
 8 H  py              0.6       0.0       1.7       0.0       0.0       0.2
 9 H  s               2.5       3.0       2.9       1.8       6.6       1.1
 9 H  pz              0.7       0.7       0.8       1.3       0.6       0.0
 9 H  px              0.3       0.0       0.3       0.7       0.0       0.1
 9 H  py              0.1       0.5       0.4       0.0       1.6       1.5
10 H  s               2.9       3.1       3.0       2.7       9.1       0.4
10 H  pz              1.1       1.0       1.6       0.9       3.0       0.0
10 H  px              0.1       0.1       0.1       1.2       0.0       0.1
10 H  py              0.0       0.0       0.0       0.2       1.6       0.3

                     36        37        38        39        40        41   
                   0.16926   0.17149   0.18212   0.19541   0.21003   0.22678
                   0.00000   0.00000   0.00000   0.00000   0.00000   0.00000
                  --------  --------  --------  --------  --------  --------
 0 C  s               0.0       0.0       0.0       0.2       1.6       0.3
 0 C  pz              3.6      13.7      39.1       0.1       1.6      16.2
 0 C  px              1.6       0.3       2.0       3.2       3.4       0.6
 0 C  py             17.6       4.3       1.2      18.7      24.3       0.9
 0 C  dz2             0.7       1.5       0.0       0.0       0.1       0.4
 0 C  dxz             0.0       1.9       0.0       0.0       0.0       0.0
 0 C  dyz             3.9       0.8       0.0       0.0       0.1       0.2
 0 C  dx2y2           0.6       0.8       0.0       0.0       0.8       0.0
 0 C  dxy             0.0       0.4       0.0       0.2       0.0       0.0
 1 O  s               0.4       0.0       0.0       0.4       1.1       0.1
 1 O  pz              0.3       1.3       0.2       0.1       0.1       0.1
 1 O  px              0.1       0.0       0.0       0.9       5.3       0.5
 1 O  py              1.1       0.1       0.1       0.8       0.3       0.2
 1 O  dz2             1.8       4.6       0.3       0.2       1.5       0.8
 1 O  dxz             0.3       0.9       0.1       0.1       0.6       0.2
 1 O  dyz             4.3       1.2       0.2       0.1       0.0       0.1
 1 O  dx2y2           0.0       1.7       0.1       0.4       2.0       2.0
 1 O  dxy             3.7       0.6       0.0       0.4       0.4       0.0
 2 C  s               0.1       0.0       0.2       0.8       6.6       2.1
 2 C  pz              0.4       5.1      13.0       0.3       2.7      15.6
 2 C  px              3.5       0.0       0.1       1.8       0.2       0.1
 2 C  py              0.0       0.5       2.5       0.2       1.2       1.2
 2 C  dz2             0.0       0.0       0.0       0.1       0.5       0.0
 2 C  dxz             0.0       0.0       0.3       0.0       0.1       0.2
 2 C  dyz             0.0       0.0       0.1       0.5       1.7       0.3
 2 C  dxy             0.0       0.0       0.0       0.1       0.2       0.2
 3 O  s               0.3       0.1       0.5       0.4       0.1       0.9
 3 O  pz              0.4       1.6       1.5       0.1       1.0       0.3
 3 O  px              2.2       0.0       0.0       0.5       0.4       1.1
 3 O  py              0.4       0.3       0.0       0.3       1.6       0.1
 3 O  dz2             0.3       0.0       0.8       0.2       1.1       0.8
 3 O  dxz             0.2       1.5       0.1       0.1       0.1       5.5
 3 O  dyz             0.0       0.1       0.1       0.1       0.0       0.1
 3 O  dx2y2           0.7       0.0       0.2       0.4       4.4       0.1
 3 O  dxy             0.0       0.6       0.0       0.5       1.4       0.7
 4 C  s               0.2       0.1       0.1       0.2       0.0       0.1
 4 C  pz              1.5       0.4       6.2       2.3       6.4      21.1
 4 C  px              4.1       0.0       1.6      15.7       5.9       0.1
 4 C  py              2.1       2.0       2.0      26.3       2.0       3.8
 4 C  dz2             0.3       0.0       0.5       0.3       0.3       0.1
 4 C  dxz             0.1       0.0       0.0       0.0       0.1       0.0
 4 C  dyz             0.1       0.1       1.0       0.1       0.0       1.1
 4 C  dx2y2           0.1       0.0       0.0       0.2       0.3       0.2
 4 C  dxy             0.2       0.0       0.1       0.1       0.0       0.0
 5 Cl s               0.0       0.0       0.1       3.3       0.2       0.1
 5 Cl pz              0.1       0.0       0.2       0.0       0.8       2.8
 5 Cl px              0.2       0.0       0.1       1.1       0.6       0.1
 5 Cl py              0.2       0.0       0.0       0.1       0.2       0.1
 5 Cl dz2             0.3       0.1       0.0       4.0       0.4       0.0
 5 Cl dxz             0.0       0.3       3.5       0.0       0.8       6.1
 5 Cl dyz             0.5       0.0       0.3       0.8       1.0       0.0
 5 Cl dx2y2           0.5       0.1       0.0       1.6       1.3       0.8
 5 Cl dxy             0.4       0.0       0.4       2.8       0.0       0.3
 6 H  s              19.7       0.1       0.1       0.9       3.9       1.8
 6 H  pz              0.8       2.1       0.1       0.1       0.4       1.0
 6 H  px              0.0       0.0       0.0       0.3       0.0       0.0
 6 H  py              1.9       0.6       0.0       0.4       2.9       0.4
 7 H  s               3.9      21.0       2.2       0.6       0.5       0.5
 7 H  pz              0.5       2.8       1.1       0.3       0.4       0.0
 7 H  px              0.0       1.9       0.6       0.0       0.1       0.2
 7 H  py              2.7       0.2       0.0       0.0       0.0       0.1
 8 H  s               6.6      17.5       0.9       2.5       1.7       0.2
 8 H  pz              3.2       0.1       0.3       0.5       0.0       0.2
 8 H  px              0.0       1.6       0.1       0.2       0.2       0.0
 8 H  py              0.0       3.3       0.2       0.9       0.2       0.0
 9 H  s               0.3       0.7       6.3       0.1       1.0       4.5
 9 H  pz              0.2       0.0       0.2       0.2       0.6       0.0
 9 H  px              0.1       0.0       0.3       0.2       0.0       0.0
 9 H  py              0.0       0.3       1.8       0.7       0.2       0.2
10 H  s               0.4       0.4       5.4       0.3       1.0       1.0
10 H  pz              0.0       0.0       0.9       0.0       0.0       0.4
10 H  px              0.1       0.0       0.0       0.0       0.0       0.0
10 H  py              0.1       0.0       0.6       0.6       0.0       0.5

                     42        43        44        45        46        47   
                   0.24307   0.27318   0.28651   0.29450   0.33197   0.34170
                   0.00000   0.00000   0.00000   0.00000   0.00000   0.00000
                  --------  --------  --------  --------  --------  --------
 0 C  s               0.2       2.9       2.4       0.5       0.5       6.8
 0 C  pz              0.2       1.7       1.6       5.0       0.3       0.6
 0 C  px              4.7      11.2      29.3       4.9       3.1       4.1
 0 C  py              2.8       2.9       0.7       1.6       1.4       1.0
 0 C  dz2             0.0       0.0       0.1       0.2       0.2       0.1
 0 C  dxz             0.1       0.0       0.2       0.0       0.0       0.0
 0 C  dyz             0.0       0.0       0.0       0.2       0.0       0.1
 0 C  dx2y2           0.2       0.0       0.0       0.2       0.2       0.0
 0 C  dxy             0.2       0.0       0.4       0.1       0.1       0.0
 1 O  s               1.4       3.3       0.3       0.1       1.9       0.1
 1 O  pz              0.2       0.4       0.3       2.9       1.9       0.1
 1 O  px              0.3       0.5       4.1       0.7       0.8       5.8
 1 O  py              0.3       1.5       3.2       0.0       7.6       0.9
 1 O  dz2             0.3       0.7       0.9       1.5       0.5       0.8
 1 O  dxz             0.0       0.5       2.2       0.2       0.6       0.3
 1 O  dyz             1.7       0.2       1.1       0.0       4.6       2.4
 1 O  dx2y2           0.4       0.3       3.0       0.1       0.2       0.1
 1 O  dxy             2.3       2.3       2.4       0.5       4.1       0.4
 2 C  s               3.8       0.4       0.4       0.0       1.9      13.2
 2 C  pz              2.7       1.2       0.4      19.7       0.4       0.1
 2 C  px              0.8       4.3       3.6       0.6      18.8       0.6
 2 C  py             24.6       2.4       9.5       2.0       3.6       2.2
 2 C  dz2             0.3       0.0       0.2       0.0       0.0       0.1
 2 C  dxz             0.0       0.2       0.1       0.1       0.6       0.0
 2 C  dyz             0.0       0.2       0.0       0.0       0.3       0.4
 2 C  dx2y2           0.7       0.4       0.3       0.1       0.3       0.0
 2 C  dxy             0.1       0.9       0.4       0.0       0.9       0.1
 3 O  s               3.5       0.5       0.8       0.1       0.4       0.5
 3 O  pz              0.6       0.1       0.0       1.9       0.1       0.9
 3 O  px              0.4       1.1       1.3       0.1       3.8       1.5
 3 O  py              5.5       0.2       1.1       0.0       0.6       1.8
 3 O  dz2             0.1       0.0       0.2       0.6       0.0       0.1
 3 O  dxz             0.2       0.7       0.2       0.4       1.5       0.2
 3 O  dyz             1.9       0.0       0.8       0.1       1.3       2.9
 3 O  dx2y2           0.3       0.0       0.5       0.1       1.4       1.1
 3 O  dxy             0.8       1.4       0.3       0.1       5.2       0.1
 4 C  s               6.2      11.7       1.4       0.2       3.8       1.8
 4 C  pz              0.9       0.1       1.8      13.6       0.7       0.0
[...]
 0 C  dx2y2           3.2       2.2       2.5       0.8       6.5       2.1
 0 C  dxy             2.5       0.2       0.1       1.5       2.1       0.3
 1 O  s               0.0       0.4       0.1       4.2      24.4       5.5
 1 O  pz              0.2       0.0       0.1       2.5       2.0       1.0
 1 O  px              0.0       0.4       0.0       0.0       8.8      24.6
 1 O  py              0.0       0.0       0.2       6.3       3.4       4.3
 1 O  dz2             0.8       0.0       0.1       0.0       8.7       0.7
 1 O  dxz             0.6       0.1       0.5       0.0       0.6       7.6
 1 O  dyz             0.4       0.4       0.3       5.6       1.6       2.3
 1 O  dx2y2           0.4       0.0       1.1       4.7      16.5       0.3
 1 O  dxy             0.1       0.3       0.0       0.1       0.0      19.6
 2 C  s               0.0       0.2       0.2       0.8       0.2       2.1
 2 C  pz              0.0       0.1       0.0       0.2       0.2       0.9
 2 C  px              0.0       0.4       0.2       0.5       0.5       3.7
 2 C  py              0.0       0.1       0.0       0.6       0.6       2.7
 2 C  dz2             0.1       0.5       0.1       1.3       0.1       0.6
 2 C  dxz             0.0       0.3       0.4       2.0       0.5       3.2
 2 C  dyz             0.0       0.2       0.1       0.8       0.1       0.9
 2 C  dx2y2           0.0       0.0       1.2       8.1       0.0       0.0
 2 C  dxy             0.0       0.9       0.8       3.2       1.3       8.7
 3 O  s               0.0       0.6       0.7       3.8       0.9       0.2
 3 O  pz              0.0       0.3       0.1       0.3       0.2       0.0
 3 O  px              0.0       0.0       0.1      10.7       0.2       0.5
 3 O  py              0.0       0.0       0.2       0.9       0.5       0.1
 3 O  dz2             0.1       0.6       0.5       0.2       0.0       0.2
 3 O  dxz             0.1       0.1       0.6       7.6       0.0       0.8
 3 O  dyz             0.0       0.5       0.0       0.4       0.8       0.0
 3 O  dx2y2           0.1       0.0       0.8       0.0       1.0       0.7
 3 O  dxy             0.0       0.5       0.8      19.1       0.0       1.3
 4 C  s               0.0       0.1       0.2       0.0       0.0       0.1
 4 C  pz              0.0       7.0       5.1       0.2       0.0       0.0
 4 C  px              0.0       0.1       0.9       0.8       0.0       0.1
 4 C  py              0.0       0.2       1.4       0.2       0.0       0.0
 4 C  dz2             0.0       6.4       2.2       0.9       0.0       0.0
 4 C  dxz             0.0       0.0       0.4       0.4       0.0       0.0
 4 C  dyz             0.1       7.1       8.6       0.0       0.0       0.0
 4 C  dx2y2           0.0       0.1       2.7       1.2       0.0       0.0
 4 C  dxy             0.0       0.7       0.1       0.6       0.1       0.2
 6 H  s               0.0       5.0       4.8       0.5       0.1       0.2
 6 H  pz              0.3       2.9       2.8       0.3       0.0       0.1
 6 H  px              0.0       0.1       0.1       1.4       0.1       0.1
 6 H  py              0.1       9.7       8.9       1.2       0.1       0.3
 7 H  s               8.0       1.0       1.2       0.3       0.4       0.0
 7 H  pz             13.8       1.6       1.8       0.6       1.0       0.1
 7 H  px              5.8       0.5       0.8       0.1       0.0       0.0
 7 H  py              0.0       0.2       0.3       0.1       0.0       0.0
 8 H  s               8.0       1.2       0.9       0.2       0.4       0.0
 8 H  pz              5.2       1.7       1.2       0.4       0.2       0.0
 8 H  px              3.6       0.4       0.2       0.0       0.1       0.0
 8 H  py             11.1       0.9       0.7       0.1       0.8       0.1
 9 H  s               0.1       2.8       5.0       0.1       0.0       0.0
 9 H  pz              0.1       1.0       3.3       0.1       0.0       0.0
 9 H  px              0.0       0.6       0.6       0.0       0.0       0.0
 9 H  py              0.1       4.8       8.8       0.1       0.0       0.0
10 H  s               0.0       5.2       3.1       0.3       0.0       0.0
10 H  pz              0.0      11.9       5.8       0.7       0.0       0.0
10 H  py              0.0       1.3       1.2       0.0       0.0       0.0

                    150       151       152       153       154       155   
                   4.42894  21.82199  21.96627  22.23261  25.17379  43.61358
                   0.00000   0.00000   0.00000   0.00000   0.00000   0.00000
                  --------  --------  --------  --------  --------  --------
 0 C  s               0.1       1.9      96.6       1.1       0.0       0.0
 0 C  px              0.2       0.0       0.0       0.0       0.0       0.0
 0 C  dx2y2           0.2       0.0       0.0       0.0       0.0       0.0
 0 C  dxy             0.1       0.0       0.0       0.0       0.0       0.0
 1 O  s               0.8       0.0       0.1       0.1       0.0      28.4
 1 O  px              0.4       0.0       0.0       0.1       0.0       0.0
 1 O  py              0.2       0.0       0.0       0.0       0.0       0.0
 1 O  dz2             0.5       0.0       0.0       0.0       0.0       0.0
 1 O  dx2y2           1.0       0.0       0.0       0.0       0.0       0.0
 2 C  s               6.5       0.5       1.3      97.1       0.1       0.0
 2 C  pz              2.2       0.0       0.0       0.0       0.0       0.0
 2 C  px              0.2       0.0       0.0       0.0       0.0       0.0
 2 C  py              5.2       0.0       0.0       0.0       0.0       0.0
 2 C  dxz             0.1       0.0       0.0       0.0       0.0       0.0
 2 C  dyz             3.7       0.0       0.0       0.0       0.0       0.0
 2 C  dx2y2           1.8       0.0       0.0       0.0       0.0       0.0
 2 C  dxy             0.3       0.0       0.0       0.0       0.0       0.0
 3 O  s              18.6       0.0       0.0       0.2       0.0      71.5
 3 O  pz              6.5       0.0       0.0       0.0       0.0       0.0
 3 O  px              0.6       0.0       0.0       0.0       0.0       0.0
 3 O  py             15.2       0.0       0.0       0.1       0.0       0.0
 3 O  dz2             0.1       0.0       0.0       0.0       0.0       0.0
 3 O  dxz             0.8       0.0       0.0       0.0       0.0       0.0
 3 O  dyz            20.8       0.0       0.0       0.0       0.0       0.0
 3 O  dx2y2          11.5       0.0       0.0       0.0       0.0       0.0
 3 O  dxy             1.9       0.0       0.0       0.0       0.0       0.0
 4 C  s               0.0      97.2       1.6       0.8       0.5       0.0
 5 Cl s               0.0       0.1       0.0       0.0      99.2       0.0

                    156   
                  43.69031
                   0.00000
                  --------
 1 O  s              71.5
 3 O  s              28.4


                      *****************************
                      * MAYER POPULATION ANALYSIS *
                      *****************************

  NA   - Mulliken gross atomic population
  ZA   - Total nuclear charge
  QA   - Mulliken gross atomic charge
  VA   - Mayer's total valence
  BVA  - Mayer's bonded valence
  FA   - Mayer's free valence

  ATOM       NA         ZA         QA         VA         BVA        FA
  0 C      6.3021     6.0000    -0.3021     3.7349     3.7349    -0.0000
  1 O      8.1951     8.0000    -0.1951     1.9286     1.9286     0.0000
  2 C      5.6201     6.0000     0.3799     3.8943     3.8943     0.0000
  3 O      8.4064     8.0000    -0.4064     1.9997     1.9997     0.0000
  4 C      6.1949     6.0000    -0.1949     3.9543     3.9543    -0.0000
  5 Cl    17.1366    17.0000    -0.1366     1.0815     1.0815    -0.0000
  6 H      0.8084     1.0000     0.1916     0.9573     0.9573     0.0000
  7 H      0.8488     1.0000     0.1512     0.9572     0.9572     0.0000
  8 H      0.8492     1.0000     0.1508     0.9572     0.9572     0.0000
  9 H      0.8185     1.0000     0.1815     0.9494     0.9494    -0.0000
 10 H      0.8198     1.0000     0.1802     0.9513     0.9513    -0.0000

  Mayer bond orders larger than 0.100000
B(  0-C ,  1-O ) :   0.8395 B(  0-C ,  6-H ) :   0.9667 B(  0-C ,  7-H ) :   0.9642 
B(  0-C ,  8-H ) :   0.9618 B(  1-O ,  2-C ) :   1.0449 B(  2-C ,  3-O ) :   1.8784 
B(  2-C ,  4-C ) :   1.0090 B(  4-C ,  5-Cl) :   1.0465 B(  4-C ,  9-H ) :   0.9240 
B(  4-C , 10-H ) :   0.9444 

-------
TIMINGS
-------

Total SCF time: 0 days 0 hours 0 min 9 sec 

Total time                  ....       9.772 sec
Sum of individual times     ....       9.736 sec  ( 99.6%)

SCF preparation             ....       0.523 sec  (  5.4%)
Fock matrix formation       ....       7.849 sec  ( 80.3%)
  Startup                   ....       0.008 sec  (  0.1% of F)
  Split-RI-J                ....       1.285 sec  ( 16.4% of F)
  XC integration            ....       6.346 sec  ( 80.8% of F)
    Basis function eval.    ....       1.115 sec  ( 17.6% of XC)
    Density eval.           ....       1.955 sec  ( 30.8% of XC)
    XC-Functional eval.     ....       0.915 sec  ( 14.4% of XC)
    XC-Potential eval.      ....       2.105 sec  ( 33.2% of XC)
Diagonalization             ....       0.000 sec  (  0.0%)
Density matrix formation    ....       0.041 sec  (  0.4%)
Total Energy calculation    ....       0.002 sec  (  0.0%)
Population analysis         ....       1.191 sec  ( 12.2%)
Orbital Transformation      ....       0.015 sec  (  0.1%)
Orbital Orthonormalization  ....       0.000 sec  (  0.0%)
DIIS solution               ....       0.103 sec  (  1.1%)
  MO trafo                  ....       0.000 sec  (  0.0 % of DIIS)
  Orb grad                  ....       0.000 sec  (  0.0 % of DIIS)
  Energy W gradient         ....       0.000 sec  (  0.0 % of DIIS)
  DIIS error                ....       0.008 sec  (  7.7 % of DIIS)
  DIIS work                 ....       0.086 sec  ( 83.4 % of DIIS)
  Form Q                    ....       0.000 sec  (  0.0 % of DIIS)
  Form QpQm                 ....       0.000 sec  (  0.0 % of DIIS)
  Exp/Cayley                ....       0.000 sec  (  0.0 % of DIIS)
  Orb update                ....       0.000 sec  (  0.0 % of DIIS)
  Wake-sleep                ....       0.001 sec  (  1.3 % of DIIS)
SOSCF solution              ....       0.013 sec  (  0.1%)
  MO trafo                  ....       0.010 sec  ( 77.1 % of SOSCF)
  Orb grad                  ....       0.000 sec  (  0.6 % of SOSCF)
  Rot update                ....       0.000 sec  (  0.1 % of SOSCF)
  Step                      ....       0.003 sec  ( 21.9 % of SOSCF)
Finished LeanSCF after  11.0 sec

Maximum memory used throughout the entire LEANSCF-calculation: 15.8 MB


-------------------------------------------------------------------------------
                          DFT DISPERSION CORRECTION                            
                                                                               
                                DFTD4 V3.4.0                                   
-------------------------------------------------------------------------------
The R2SCAN3C composite method is recognized
Using three-body term ABC
Active option DFTDOPT                   ...         5   

-------------------------   ----------------
Dispersion correction           -0.002550587
-------------------------   ----------------

------------------   -----------------
gCP correction             0.010598364
------------------   -----------------

-------------------------   --------------------
FINAL SINGLE POINT ENERGY      -727.902148792431
-------------------------   --------------------


------------------------------------------------------------------------------
                              ORCA PROPERTY CALCULATIONS
------------------------------------------------------------------------------

GBWName                                 ... sp.gbw
Number of atoms                         ...     11
Number of basis functions               ...    157
Max core memory                         ...   1024 MB

Electric properties:
Dipole moment                           ... YES
Quadrupole moment                       ...  NO
Static polarizability (Dipole/Dipole)   ...  NO
Static polarizability (Dipole/Quad.)    ...  NO
Static polarizability (Quad./Quad.)     ...  NO
Static polarizability (Velocity)        ...  NO

Atomic electric properties:
Dipole moment                           ...  NO
Quadrupole moment                       ...  NO
Static polarizability                   ...  NO

Choice of electric origin               ... Center of mass
Position of electric origin             ...     0.000002    -0.000007     0.000004

General magnetic properties:
Magnetizability                         ...  NO

EPR properties:
g-Tensor (aka g-matrix)                 ...  NO
Zero-Field splitting spin-orbit         ...  NO
Zero-field splitting spin-spin          ...  NO
Hyperfine couplings                     ...  NO (   0 nuclei)
Quadrupole couplings                    ...  NO (   0 nuclei)
Contact density                         ...  NO (   0 nuclei)

NMR properties:
Chemical shifts                         ...  NO (   0 nuclei)
Spin-rotation constants                 ...  NO (   0 nuclei)
Spin-spin couplings                     ...  NO (   0 nuclei,    0 pairs)

Choice of magnetic origin               ... GIAO
Position of magnetic origin             ...     0.000000     0.000000     0.000000

Properties with geometric perturbations:
SCF Hessian                             ...  NO
IR spectrum                             ...  NO
VCD spectrum                            ...  NO
X-ray spectroscopy properties:
SCF XES/XAS/RIXS spectra                ...  NO


-------------
DIPOLE MOMENT
-------------

Method             : SCF
Type of density    : Electron Density
Multiplicity       :   1
Irrep              :   0
Energy             :  -727.9101965689719691 Eh
Relativity type    : 
Basis              : AO
                                X                 Y                 Z
Electronic contribution:      9.200838318       3.546756115      -0.415019037
Nuclear contribution   :    -10.007973205      -4.562105187       0.815792785
                        -----------------------------------------
Total Dipole Moment    :     -0.807134887      -1.015349072       0.400773749
                        -----------------------------------------
Magnitude (a.u.)       :      1.357578750
Magnitude (Debye)      :      3.450690951



--------------------
Rotational spectrum 
--------------------
 
Rotational constants in cm-1:             0.324808             0.046826             0.041812 
Rotational constants in MHz :          9737.508933          1403.795750          1253.500179 

Dipole components along the rotational axes: 
x,y,z [a.u.] :    -1.015581    -0.898680    -0.063161 
x,y,z [Debye]:    -2.581401    -2.284264    -0.160544 

 

Dipole moment calculation done in   0.6 sec 

Maximum memory used throughout the entire PROP-calculation: 9.3 MB

--------------------------------
SUGGESTED CITATIONS FOR THIS RUN
--------------------------------

Below you find a list of papers that are relevant to this ORCA run
We neither can nor want to force you to cite these papers, but we appreciate if you do
You receive ORCA, which is the product of decades of hard work by many enthusiastic individuals, for free
The only thing we kindly ask in return is that you cite our papers,
We deeply appreciate it, if you show your appreciation for ORCA by not just citing the generic ORCA reference.

Please note that relegating all ORCA citations to the supporting information does *not* help us.
SI sections are not indexed - citations you put there will not count into any citation statistics
But we need these citations in order to attract the funding resources that allow us to do what we are doing

Therefore, if you are a happy ORCA user, please consider citing a few of the papers listed below in the main body of your paper

In addition to the list printed below, the program has created the file sp.bibtex that contains the list in bibtex format
You can import this file easily into all common literature databanks and citation aid programs


List of essential papers. We consider these as the minimum necessary citations

  1. Neese,F.
     Software update: the ORCA program system, version 5.0
     WIRES Comput. Molec. Sci., 2022 12(1)e1606
     doi.org/10.1002/wcms.1606
  2. Grimme,S.; Hansen,A.; Ehlert,S.; Mewes,J.
     r2SCAN-3c: A 'Swiss army knife' composite electronic-structure method
     J. Chem. Phys., 2021 154 064103
     doi.org/10.1063/5.0040021

List of papers to cite with high priority. The work reported in these papers was absolutely
necessary for this run to complete.
Our perspective: the developers of density functionals and basis sets usually get cited in chemistry papers
Good! But without the algorithms to do something with them, the functionals or basis sets would not do anything.
Hence, in our opinion, the algorithm design and method developments papers are equally worthy of getting cited

  1. Neese,F.
     An improvement of the resolution of the identity approximation for the formation of the Coulomb matrix
     J. Comp. Chem., 2003 24(14)1740-1747
     doi.org/10.1002/jcc.10318
  2. Neese,F.
     The SHARK Integral Generation and Digestion System
     J. Comp. Chem., 2022  1-16
     doi.org/10.1002/jcc.26942
  3. Lehtola,S.; Steigemann,C.; Oliveira,M.; Marques,M.
     Recent developments in Libxc - A comprehensive library of functionals for density functional theory
     Software X, 2018 7 
     doi.org/10.1016/j.softx.2017.11.002
  4. Caldeweyher,E.; Bannwarth,C.; Grimme,S.
     Extension of the D3 dispersion coefficient model
     J. Chem. Phys., 2017 147 034112
     doi.org/10.1063/1.4993215
  5. Caldeweyher,E.; Ehlert,S.; Hansen,A.; Neugebauer,H.; Spicher,S.; Bannwarth,C.; Grimme,S.
     A generally applicable atomic-charge dependent London dispersion correction
     J. Chem. Phys., 2019 150 154122
     doi.org/10.1063/1.5090222
  6. Caldeweyher,E.; Mewes,J.; Ehlert,S.; Grimme,S.
     Extension and evaluation of the D4 London-dispersion model for periodic systems
     Phys. Chem. Chem. Phys., 2020 22(16)8499-8512
     doi.org/10.1039/D0CP00502A
  7. Wittmann,L.; Gordiy,I.; Friede,M.; Helmich-Paris,B.; Grimme,S.; Hansen,A.; Bursch,M.
     Extension of the D3 and D4 London Dispersion Corrections to the full Actinides Series
     Phys. Chem. Chem. Phys., 2024 26(32)21379-21394
     doi.org/https://doi.org/10.1039/D4CP01514B 

List of suggested additional citations. These are papers that are important in the 'surrounding' of 
of this run, or papers that preceded the highly important papers. If you like your results we are grateful for a citation.

  1. Neese,F.
     The ORCA program system
     WIRES Comput. Molec. Sci., 2012 2(1)73-78
     doi.org/10.1002/wcms.81
  2. Neese,F.
     Software update: the ORCA program system, version 4.0
     WIRES Comput. Molec. Sci., 2018 8(1)1-6
     doi.org/10.1002/wcms.1327
  3. Neese,F.; Wennmohs,F.; Becker,U.; Riplinger,C.
     The ORCA quantum chemistry program package
     J. Chem. Phys., 2020 152 Art. No. L224108
     doi.org/10.1063/5.0004608

List of optional additional citations

  1. Neese,F.
     Approximate second-order SCF convergence for spin unrestricted wavefunctions
     Chem. Phys. Lett., 2000 325(1-3)93-98
     doi.org/10.1016/s0009-2614(00)00662-x

Timings for individual modules:

Sum of individual times          ...       12.285 sec (=   0.205 min)
Startup calculation              ...        0.509 sec (=   0.008 min)   4.1 %
SCF iterations                   ...       11.075 sec (=   0.185 min)  90.2 %
Property calculations            ...        0.700 sec (=   0.012 min)   5.7 %
                             ****ORCA TERMINATED NORMALLY****
TOTAL RUN TIME: 0 days 0 hours 0 minutes 13 seconds 814 msec
