 Entering Gaussian System
 *********************************************
 Gaussian 98:
 frequency output generated by the xtb code
 *********************************************
                         Standard orientation:
 --------------------------------------------------------------------
  Center     Atomic     Atomic              Coordinates (Angstroms)
  Number     Number      Type              X           Y           Z
 --------------------------------------------------------------------
    1          6             0       -2.515654   -0.994911    0.358352
    2          6             0       -1.091078   -0.486515    0.623003
    3          1             0       -0.925764   -0.417580    1.709730
    4          6             0       -0.838969    0.894721   -0.009997
    5          1             0       -1.018519    0.823277   -1.093375
    6          6             0        0.624436    1.278031    0.225602
    7          1             0        0.781175    1.393392    1.310727
    8          6             0        1.555964    0.179016   -0.297671
    9          1             0        1.431904    0.116422   -1.394028
   10          6             0        1.159347   -1.177248    0.317509
   11          1             0        1.338475   -1.147210    1.402801
   12          8             0       -0.210078   -1.431647    0.052342
   13          8             0        1.891606   -2.232625   -0.163112
   14          8             0        2.887872    0.451851    0.029367
   15          8             0        0.960817    2.474207   -0.435307
   16          8             0       -1.633000    1.911384    0.555177
   17          8             0       -2.826722   -0.998009   -1.007780
   18          1             0       -3.243621   -0.343447    0.847023
   19          1             0       -2.602336   -2.002477    0.784198
   20          1             0        1.819432   -2.262904   -1.125585
   21          1             0        3.056193    1.373345   -0.207448
   22          1             0        0.284575    3.124219   -0.208624
   23          1             0       -2.550672    1.760307    0.303786
   24          1             0       -2.183135   -1.567144   -1.446932
 --------------------------------------------------------------------
     1 basis functions        1 primitive gaussians
     1 alpha electrons        1 beta electrons
 
 Harmonic frequencies (cm**-1), IR intensities (km*mol⁻¹),
 Raman scattering activities (A**4/amu), Raman depolarization ratios,
 reduced masses (AMU), force constants (mDyne/A) and normal coordinates:
                      1                      2                      3
                        a                      a                      a 
 Frequencies --    52.2314                69.0980                91.9568
 Red. masses --    13.7240                13.4875                14.3965
 Frc consts  --     0.0000                 0.0000                 0.0000
 IR Inten    --     2.7908                 3.4977                 1.1554
 Raman Activ --     0.0000                 0.0000                 0.0000
 Depolar     --     0.0000                 0.0000                 0.0000
 Atom AN      X      Y      Z        X      Y      Z        X      Y      Z
   1   6    -0.04   0.04  -0.19     0.02  -0.09  -0.12    -0.01   0.02   0.04
   2   6    -0.09   0.05   0.04     0.02  -0.12  -0.04    -0.00   0.01   0.01
   3   1    -0.06   0.00   0.02    -0.01  -0.05  -0.01    -0.01   0.03   0.00
   4   6    -0.04   0.08   0.14    -0.01  -0.08   0.04     0.04  -0.04  -0.09
   5   1    -0.05   0.06   0.05    -0.02  -0.00   0.01     0.07  -0.05  -0.03
   6   6     0.01   0.00   0.01    -0.01  -0.04  -0.04     0.01  -0.06   0.15
   7   1     0.03  -0.01  -0.00     0.01   0.00  -0.01    -0.02  -0.10   0.06
   8   6    -0.10  -0.03  -0.10    -0.02  -0.03  -0.05    -0.06  -0.01  -0.08
   9   1    -0.09  -0.03  -0.02    -0.04  -0.04  -0.01    -0.09  -0.01  -0.01
  10   6    -0.06   0.04   0.07     0.05   0.02   0.11     0.03   0.01   0.04
  11   1    -0.02   0.05   0.02    -0.02   0.05   0.04     0.02   0.02   0.01
  12   8    -0.07   0.04   0.11     0.10  -0.09  -0.00     0.01  -0.05   0.14
  13   8    -0.08  -0.02   0.23     0.21   0.00   0.40     0.03  -0.01   0.09
  14   8    -0.04  -0.04  -0.43     0.01   0.06  -0.25     0.02  -0.00  -0.48
  15   8    -0.00   0.01   0.01    -0.10  -0.06  -0.12     0.12   0.13   0.59
  16   8     0.11   0.09   0.40    -0.03  -0.17   0.17    -0.11   0.01  -0.44
  17   8     0.38  -0.27  -0.31    -0.20   0.60  -0.09    -0.04   0.00   0.05
  18   1    -0.05   0.05  -0.15     0.01  -0.10   0.08     0.00   0.01   0.01
  19   1    -0.05   0.04  -0.00     0.04  -0.08  -0.16    -0.00   0.01   0.02
  20   1     0.00  -0.02   0.06     0.10  -0.03   0.10     0.01  -0.01   0.02
  21   1    -0.03  -0.01  -0.11    -0.02   0.02  -0.07    -0.04   0.02  -0.07
  22   1     0.02   0.01   0.03    -0.02  -0.02  -0.02    -0.00   0.00   0.15
  23   1     0.02   0.05   0.13    -0.01  -0.05   0.05    -0.01  -0.01  -0.17
  24   1     0.15  -0.07   0.01    -0.10   0.18  -0.12    -0.03  -0.02   0.01
                      4                      5                      6
                        a                      a                      a 
 Frequencies --   133.1908               216.6073               231.4623
 Red. masses --    13.9043                11.4923                12.2515
 Frc consts  --     0.0000                 0.0000                 0.0000
 IR Inten    --     3.8120                17.9677                25.5246
 Raman Activ --     0.0000                 0.0000                 0.0000
 Depolar     --     0.0000                 0.0000                 0.0000
 Atom AN      X      Y      Z        X      Y      Z        X      Y      Z
   1   6     0.04   0.02  -0.04    -0.02   0.23   0.12     0.01  -0.11  -0.01
   2   6    -0.00  -0.00   0.25     0.07  -0.06   0.06    -0.03  -0.03   0.04
   3   1    -0.04   0.03   0.08     0.07  -0.06   0.01    -0.01  -0.02   0.01
   4   6    -0.00  -0.09   0.08     0.06  -0.06   0.10     0.05  -0.09  -0.00
   5   1     0.02  -0.08   0.02     0.04  -0.04   0.03    -0.00  -0.04   0.00
   6   6    -0.03  -0.00   0.03     0.02   0.08   0.07     0.05  -0.08  -0.08
   7   1     0.01   0.03   0.00     0.03   0.04   0.01     0.04  -0.06  -0.02
   8   6    -0.04  -0.01   0.05    -0.06   0.02   0.01     0.16   0.04  -0.16
   9   1    -0.02  -0.00   0.01    -0.03   0.03   0.00     0.09   0.02  -0.05
  10   6     0.07  -0.05   0.05    -0.12   0.01  -0.08     0.02   0.06  -0.08
  11   1     0.12  -0.05  -0.00    -0.10   0.01  -0.01     0.02   0.06  -0.03
  12   8     0.02  -0.11   0.48    -0.10  -0.04  -0.27     0.03   0.07  -0.04
  13   8    -0.12  -0.01  -0.37     0.18   0.17   0.09    -0.15  -0.16   0.13
  14   8    -0.04   0.02   0.01     0.03  -0.47  -0.01     0.15  -0.06   0.10
  15   8    -0.15  -0.06  -0.13    -0.28   0.11  -0.05    -0.56   0.21   0.15
  16   8    -0.12  -0.05  -0.17    -0.13  -0.12  -0.08     0.37   0.19  -0.10
  17   8     0.40   0.35  -0.13     0.28   0.10   0.07    -0.00   0.01  -0.01
  18   1    -0.02  -0.02  -0.02     0.03   0.15  -0.03    -0.01  -0.06   0.02
  19   1    -0.01  -0.02  -0.07    -0.10   0.10   0.08     0.03  -0.04  -0.03
  20   1    -0.18  -0.00  -0.08     0.29   0.16   0.00    -0.21  -0.20   0.05
  21   1    -0.01  -0.00  -0.03     0.11  -0.14  -0.01     0.08  -0.02   0.03
  22   1    -0.06  -0.03  -0.06    -0.12  -0.02  -0.03    -0.27  -0.08   0.04
  23   1    -0.02  -0.03  -0.07    -0.01  -0.02  -0.12     0.07   0.08   0.04
  24   1     0.11   0.09  -0.02     0.09  -0.00   0.08     0.01   0.03  -0.02
                      7                      8                      9
                        a                      a                      a 
 Frequencies --   240.5828               253.5516               267.7348
 Red. masses --    13.2855                 9.3871                 9.0193
 Frc consts  --     0.0000                 0.0000                 0.0000
 IR Inten    --     2.3912                 8.8078                24.2000
 Raman Activ --     0.0000                 0.0000                 0.0000
 Depolar     --     0.0000                 0.0000                 0.0000
 Atom AN      X      Y      Z        X      Y      Z        X      Y      Z
   1   6     0.16  -0.08   0.17     0.16  -0.45  -0.02     0.04   0.18  -0.02
   2   6     0.09   0.02   0.05    -0.04   0.10   0.02     0.10   0.04  -0.10
   3   1     0.11  -0.03   0.00    -0.02   0.03   0.01     0.02   0.04  -0.03
   4   6    -0.08   0.03   0.02    -0.03   0.13   0.03     0.05   0.03  -0.09
   5   1    -0.03  -0.01   0.01     0.01   0.04   0.00     0.01   0.04  -0.03
   6   6    -0.06  -0.05  -0.02     0.03   0.16   0.04     0.05   0.14  -0.10
   7   1    -0.01  -0.03  -0.01     0.01   0.06   0.01     0.02   0.02  -0.03
   8   6    -0.01  -0.04  -0.06    -0.04   0.05   0.04     0.05   0.08  -0.12
   9   1     0.01  -0.00  -0.02    -0.03   0.03   0.01     0.05   0.03  -0.03
  10   6    -0.07  -0.06  -0.10    -0.07   0.10   0.04     0.02   0.08  -0.04
  11   1    -0.08  -0.01  -0.02    -0.01   0.02   0.01     0.05   0.07  -0.02
  12   8    -0.05   0.18  -0.40    -0.03   0.15   0.03     0.08  -0.05   0.07
  13   8    -0.23  -0.31   0.19    -0.10   0.13  -0.01    -0.08  -0.06   0.09
  14   8    -0.10   0.25   0.01     0.07  -0.45  -0.03     0.06  -0.15   0.08
  15   8     0.11  -0.08   0.03     0.12   0.11  -0.05     0.07   0.25   0.01
  16   8    -0.21  -0.01  -0.06    -0.14   0.13  -0.06    -0.32  -0.41   0.18
  17   8     0.42   0.15   0.15    -0.02  -0.06   0.02    -0.03  -0.02  -0.01
  18   1     0.02  -0.07   0.07    -0.05  -0.32   0.10     0.04   0.10  -0.03
  19   1     0.08  -0.05  -0.00     0.25  -0.20  -0.13    -0.03   0.08   0.05
  20   1    -0.04  -0.13   0.05    -0.04   0.04  -0.00    -0.45  -0.33   0.06
  21   1    -0.09   0.09   0.04     0.15  -0.16  -0.08     0.11  -0.08  -0.08
  22   1     0.05   0.01   0.01     0.06   0.05  -0.01     0.07   0.09   0.09
  23   1    -0.05  -0.04  -0.02    -0.04  -0.07   0.08    -0.05  -0.13  -0.05
  24   1     0.20   0.15   0.04     0.08   0.15  -0.09    -0.06  -0.08   0.02
                     10                     11                     12
                        a                      a                      a 
 Frequencies --   295.4360               342.2271               365.6516
 Red. masses --    11.6992                 7.0432                 4.4586
 Frc consts  --     0.0000                 0.0000                 0.0000
 IR Inten    --     1.3846                21.5832               186.0452
 Raman Activ --     0.0000                 0.0000                 0.0000
 Depolar     --     0.0000                 0.0000                 0.0000
 Atom AN      X      Y      Z        X      Y      Z        X      Y      Z
   1   6    -0.06   0.01  -0.08    -0.03  -0.07   0.03    -0.03  -0.08  -0.00
   2   6    -0.02  -0.05   0.04    -0.03  -0.10   0.04    -0.06   0.02   0.07
   3   1    -0.03  -0.09   0.02     0.01  -0.08   0.01    -0.04   0.02   0.02
   4   6     0.13  -0.01   0.27    -0.07  -0.00   0.13    -0.05  -0.01   0.01
   5   1     0.12  -0.02   0.06    -0.01  -0.02   0.04    -0.03  -0.00   0.01
   6   6     0.13   0.08   0.33    -0.06  -0.05   0.09     0.03  -0.06  -0.14
   7   1     0.06   0.11   0.08     0.00  -0.01   0.02     0.04  -0.05  -0.04
   8   6     0.15   0.06   0.29    -0.12  -0.00   0.00     0.14   0.01  -0.15
   9   1    -0.04   0.03   0.09    -0.04   0.02   0.00     0.08   0.00  -0.05
  10   6     0.04  -0.01   0.12    -0.02   0.01  -0.03     0.05   0.07  -0.06
  11   1    -0.03  -0.07   0.04    -0.01   0.01  -0.01     0.03   0.05  -0.02
  12   8     0.07   0.20  -0.21     0.01  -0.05  -0.16     0.01   0.09   0.14
  13   8    -0.21  -0.12  -0.04     0.35   0.24   0.00    -0.19  -0.13   0.02
  14   8     0.30   0.14  -0.22    -0.18  -0.03   0.06     0.14   0.01   0.07
  15   8    -0.11  -0.13  -0.18     0.03  -0.19  -0.06    -0.07   0.02  -0.06
  16   8    -0.16  -0.04  -0.07     0.08   0.23  -0.02    -0.12  -0.10   0.15
  17   8    -0.17  -0.10  -0.07     0.03   0.01   0.02    -0.03  -0.00  -0.02
  18   1    -0.00   0.03  -0.03     0.01  -0.00   0.01    -0.01  -0.04   0.01
  19   1    -0.04   0.01  -0.00    -0.03  -0.02  -0.00     0.02  -0.04  -0.03
  20   1    -0.12  -0.02  -0.01    -0.40  -0.29   0.05     0.32   0.20  -0.03
  21   1     0.06   0.01  -0.16     0.03  -0.07  -0.19     0.06  -0.00   0.01
  22   1    -0.07  -0.04  -0.13     0.17   0.06   0.17     0.23   0.12   0.38
  23   1     0.00   0.01  -0.19     0.07   0.32  -0.33     0.06   0.33  -0.50
  24   1    -0.07  -0.06  -0.02     0.02   0.02   0.00    -0.01   0.00  -0.01
                     13                     14                     15
                        a                      a                      a 
 Frequencies --   379.3110               391.6208               404.1687
 Red. masses --    10.2299                 3.6529                12.0627
 Frc consts  --     0.0000                 0.0000                 0.0000
 IR Inten    --    27.2728                53.5180                15.0707
 Raman Activ --     0.0000                 0.0000                 0.0000
 Depolar     --     0.0000                 0.0000                 0.0000
 Atom AN      X      Y      Z        X      Y      Z        X      Y      Z
   1   6    -0.23  -0.07   0.03     0.13  -0.08  -0.03    -0.06   0.07  -0.03
   2   6    -0.17  -0.17   0.22     0.09  -0.01  -0.05    -0.07   0.12   0.08
   3   1    -0.06  -0.10   0.07     0.02   0.00  -0.01    -0.04   0.03   0.02
   4   6     0.09  -0.22   0.18     0.09   0.08   0.05    -0.25   0.13   0.08
   5   1     0.04  -0.13   0.05     0.04   0.04   0.01    -0.10   0.03   0.03
   6   6     0.13  -0.05  -0.01     0.05   0.14   0.04    -0.09  -0.21  -0.04
   7   1     0.08  -0.03  -0.01     0.02   0.06   0.01    -0.01  -0.10  -0.00
   8   6     0.11   0.14  -0.21    -0.13   0.02  -0.00     0.15  -0.06  -0.16
   9   1     0.07   0.09  -0.07    -0.06   0.03  -0.00     0.07   0.01  -0.05
  10   6    -0.14   0.28  -0.16    -0.05  -0.05  -0.02     0.24   0.02  -0.10
  11   1    -0.04   0.14  -0.05    -0.01  -0.00  -0.00     0.10   0.04  -0.04
  12   8    -0.15   0.04  -0.01    -0.01  -0.14   0.04     0.14   0.29   0.05
  13   8    -0.09   0.30   0.07    -0.02  -0.05   0.02     0.26  -0.06  -0.01
  14   8     0.12   0.04  -0.00    -0.11  -0.10  -0.12     0.17  -0.20  -0.01
  15   8     0.25  -0.11  -0.04     0.07   0.16  -0.03    -0.00  -0.26   0.09
  16   8     0.07  -0.17  -0.12     0.01   0.00   0.12    -0.38   0.21   0.04
  17   8    -0.00  -0.01  -0.03    -0.02  -0.01  -0.00    -0.04   0.00  -0.04
  18   1    -0.08  -0.02  -0.02     0.04  -0.05   0.02    -0.02   0.04  -0.03
  19   1    -0.10  -0.03  -0.01     0.08  -0.04  -0.03    -0.04   0.03   0.01
  20   1    -0.08  -0.02   0.03    -0.06  -0.07   0.01     0.00  -0.10   0.01
  21   1    -0.04   0.10   0.30    -0.20   0.17   0.59     0.02   0.01   0.23
  22   1     0.09   0.01  -0.03    -0.19  -0.07  -0.31    -0.12  -0.12  -0.16
  23   1     0.01  -0.15   0.08     0.07   0.25  -0.35    -0.10  -0.01   0.05
  24   1     0.06   0.05   0.01    -0.09  -0.09  -0.02    -0.04  -0.05   0.01
                     16                     17                     18
                        a                      a                      a 
 Frequencies --   430.6089               439.2719               447.6710
 Red. masses --     7.1573                 5.4896                 6.9243
 Frc consts  --     0.0000                 0.0000                 0.0000
 IR Inten    --    94.3562               259.8020               146.8708
 Raman Activ --     0.0000                 0.0000                 0.0000
 Depolar     --     0.0000                 0.0000                 0.0000
 Atom AN      X      Y      Z        X      Y      Z        X      Y      Z
   1   6    -0.08   0.08   0.08    -0.01  -0.08   0.05    -0.11   0.06  -0.03
   2   6    -0.08   0.09  -0.18    -0.05  -0.01  -0.01    -0.04  -0.01   0.05
   3   1    -0.00   0.10  -0.06     0.00   0.03  -0.01    -0.04  -0.03   0.02
   4   6    -0.05  -0.03  -0.28    -0.06  -0.08  -0.13     0.10   0.07   0.17
   5   1    -0.02   0.06  -0.08    -0.06  -0.02  -0.03     0.06   0.02   0.04
   6   6    -0.06  -0.11  -0.03    -0.05  -0.10  -0.10     0.12   0.09   0.03
   7   1    -0.11  -0.02   0.00    -0.06  -0.07  -0.02     0.11   0.02  -0.00
   8   6     0.09  -0.05   0.18     0.05   0.00  -0.05    -0.01   0.01  -0.15
   9   1    -0.00  -0.07   0.05     0.04  -0.03  -0.02     0.03   0.05  -0.05
  10   6    -0.02   0.01   0.20    -0.06   0.14   0.03     0.06  -0.10  -0.19
  11   1    -0.02  -0.05   0.06    -0.02   0.05   0.01     0.04   0.02  -0.06
  12   8    -0.01   0.08  -0.02    -0.03   0.08  -0.01    -0.06  -0.16   0.12
  13   8     0.01   0.21  -0.08    -0.13   0.17   0.00     0.15  -0.21   0.03
  14   8     0.20  -0.05  -0.15     0.00   0.07   0.09    -0.11   0.12   0.13
  15   8    -0.10  -0.12   0.03     0.23  -0.05   0.20     0.11   0.16   0.02
  16   8     0.08  -0.21   0.12     0.07  -0.16   0.15    -0.10   0.05   0.00
  17   8    -0.02  -0.07   0.09     0.11   0.08   0.03    -0.21  -0.17  -0.03
  18   1    -0.02   0.03   0.01    -0.01  -0.03   0.02    -0.04   0.02  -0.02
  19   1    -0.00   0.03   0.04     0.00  -0.03  -0.01    -0.02   0.02   0.01
  20   1    -0.16   0.03  -0.01     0.00   0.09  -0.00     0.15  -0.08   0.00
  21   1    -0.04   0.06   0.18     0.13  -0.11  -0.39     0.05  -0.05  -0.21
  22   1    -0.03  -0.04   0.02    -0.29  -0.19  -0.48    -0.14  -0.05  -0.23
  23   1     0.03   0.09  -0.09     0.05   0.18  -0.21    -0.00   0.02  -0.10
  24   1     0.40   0.47  -0.01    -0.10  -0.14   0.03     0.37   0.48  -0.06
                     19                     20                     21
                        a                      a                      a 
 Frequencies --   512.5414               542.0735               561.7557
 Red. masses --    12.1339                11.0775                10.9828
 Frc consts  --     0.0000                 0.0000                 0.0000
 IR Inten    --    38.4760                58.3077                14.9340
 Raman Activ --     0.0000                 0.0000                 0.0000
 Depolar     --     0.0000                 0.0000                 0.0000
 Atom AN      X      Y      Z        X      Y      Z        X      Y      Z
   1   6    -0.27  -0.13   0.09     0.04   0.05  -0.03    -0.05  -0.05   0.08
   2   6    -0.15  -0.22   0.10     0.14  -0.29   0.01    -0.07   0.01  -0.21
   3   1    -0.01  -0.09   0.02     0.03  -0.12   0.01     0.01   0.09  -0.07
   4   6    -0.23  -0.06  -0.02    -0.18  -0.15   0.01    -0.08   0.06  -0.19
   5   1    -0.16  -0.06   0.02    -0.10  -0.09   0.01     0.02   0.11  -0.06
   6   6    -0.08   0.17  -0.24    -0.24   0.10   0.02    -0.14   0.08   0.30
   7   1    -0.10   0.08  -0.06    -0.14   0.05   0.01    -0.14   0.07   0.09
   8   6     0.14  -0.01   0.18    -0.14   0.20   0.02     0.05   0.31   0.06
   9   1     0.05  -0.07   0.05    -0.07   0.09   0.00    -0.00   0.28   0.01
  10   6     0.02  -0.18   0.10     0.22   0.21   0.05    -0.03   0.07  -0.33
  11   1    -0.03  -0.12   0.03     0.10   0.09   0.01     0.01   0.07  -0.09
  12   8    -0.06  -0.15  -0.09     0.43   0.02  -0.04    -0.14  -0.34   0.15
  13   8     0.14  -0.11  -0.06    -0.30  -0.10   0.03    -0.00  -0.13   0.09
  14   8     0.32   0.03  -0.09    -0.15  -0.18  -0.01     0.26   0.03  -0.04
  15   8     0.19   0.42  -0.00     0.12  -0.02   0.01    -0.04  -0.24  -0.04
  16   8    -0.06   0.16   0.01     0.12   0.08  -0.05     0.03   0.07   0.04
  17   8     0.10   0.07   0.01    -0.09  -0.03  -0.02     0.12   0.06   0.07
  18   1    -0.06   0.00  -0.00     0.11   0.15  -0.04    -0.02  -0.03   0.03
  19   1    -0.16  -0.04   0.01    -0.15   0.05   0.04     0.01  -0.02   0.01
  20   1    -0.04  -0.04  -0.01     0.03   0.08  -0.00     0.10  -0.12   0.02
  21   1     0.03   0.03   0.02     0.06  -0.05   0.05     0.12  -0.00  -0.01
  22   1     0.02   0.09  -0.04     0.06   0.06  -0.07     0.05   0.02  -0.05
  23   1    -0.03   0.09   0.04    -0.00   0.10   0.05    -0.01   0.06   0.04
  24   1    -0.00  -0.05   0.05     0.10   0.15  -0.04    -0.01  -0.06   0.05
                     22                     23                     24
                        a                      a                      a 
 Frequencies --   609.2108               676.6017               907.4410
 Red. masses --    12.8286                10.6311                 6.7129
 Frc consts  --     0.0000                 0.0000                 0.0000
 IR Inten    --     2.6489                 6.5374                31.2701
 Raman Activ --     0.0000                 0.0000                 0.0000
 Depolar     --     0.0000                 0.0000                 0.0000
 Atom AN      X      Y      Z        X      Y      Z        X      Y      Z
   1   6     0.21   0.05  -0.04    -0.42  -0.20   0.17     0.21  -0.37  -0.06
   2   6     0.18  -0.18  -0.16    -0.21  -0.11  -0.35    -0.03  -0.17  -0.04
   3   1     0.07  -0.09  -0.04    -0.04   0.01  -0.10    -0.08   0.06  -0.00
   4   6    -0.05   0.13   0.14     0.14   0.17  -0.02    -0.04   0.05  -0.13
   5   1    -0.04   0.08   0.04     0.15   0.19  -0.04     0.05   0.09  -0.05
   6   6     0.09  -0.12  -0.10     0.21  -0.01   0.09     0.11  -0.02   0.09
   7   1     0.10  -0.09  -0.03     0.17  -0.02   0.01     0.04   0.01   0.02
   8   6     0.13  -0.10  -0.09    -0.03  -0.07  -0.12     0.02  -0.11   0.05
   9   1     0.09  -0.09  -0.03    -0.03  -0.05  -0.03     0.00  -0.00   0.01
  10   6    -0.17   0.08   0.11     0.19   0.08   0.14    -0.18  -0.02  -0.14
  11   1    -0.08   0.05   0.04     0.09   0.05   0.03    -0.03  -0.02  -0.04
  12   8     0.01  -0.46   0.01     0.27  -0.03  -0.03    -0.08   0.28   0.17
  13   8    -0.25   0.26   0.02    -0.07  -0.02  -0.03     0.04   0.03  -0.00
  14   8     0.19   0.08   0.02    -0.19  -0.03   0.05     0.00   0.01   0.00
  15   8    -0.03  -0.08   0.04    -0.03   0.02  -0.05     0.00   0.07  -0.05
  16   8    -0.26   0.33   0.00    -0.06   0.06   0.01    -0.02  -0.00   0.01
  17   8    -0.03  -0.03   0.03     0.19   0.11   0.11     0.03   0.06   0.12
  18   1     0.12   0.07  -0.00    -0.09  -0.02   0.04     0.30   0.32  -0.19
  19   1     0.00   0.03   0.02    -0.16  -0.05   0.04    -0.40   0.03   0.19
  20   1    -0.08   0.14   0.00    -0.02   0.08  -0.01     0.06  -0.09  -0.00
  21   1     0.01   0.02  -0.01    -0.04  -0.01   0.02    -0.08   0.01  -0.03
  22   1    -0.04  -0.06   0.03    -0.03  -0.03   0.02    -0.02  -0.01   0.01
  23   1    -0.06   0.01   0.03     0.00  -0.07  -0.01    -0.02   0.02   0.04
  24   1     0.03   0.07  -0.04     0.03  -0.07   0.13    -0.08   0.10  -0.21
                     25                     26                     27
                        a                      a                      a 
 Frequencies --   938.9704               977.3752              1015.9880
 Red. masses --    10.1949                 9.3722                 9.4748
 Frc consts  --     0.0000                 0.0000                 0.0000
 IR Inten    --     2.5827                32.1452                31.7708
 Raman Activ --     0.0000                 0.0000                 0.0000
 Depolar     --     0.0000                 0.0000                 0.0000
 Atom AN      X      Y      Z        X      Y      Z        X      Y      Z
   1   6     0.28   0.15  -0.18    -0.02   0.14  -0.03     0.00  -0.05  -0.12
   2   6    -0.38  -0.03  -0.39    -0.07  -0.02  -0.12    -0.08  -0.03  -0.05
   3   1    -0.34  -0.11  -0.06    -0.08  -0.04  -0.02    -0.15  -0.11   0.01
   4   6    -0.14  -0.21   0.27    -0.06  -0.12   0.05     0.30   0.12   0.10
   5   1     0.02  -0.05   0.06    -0.05  -0.05   0.02    -0.06   0.01   0.05
   6   6    -0.08   0.00   0.05     0.08  -0.12   0.01     0.01  -0.08  -0.50
   7   1     0.06  -0.01  -0.00    -0.04   0.06  -0.00    -0.09  -0.04  -0.10
   8   6     0.01   0.03  -0.13     0.04  -0.33   0.39    -0.11   0.33   0.33
   9   1     0.02  -0.01  -0.03    -0.00  -0.08   0.10    -0.04   0.04   0.08
  10   6     0.08  -0.02   0.14    -0.02   0.21  -0.44     0.03   0.08  -0.05
  11   1     0.02   0.01   0.03     0.06   0.03  -0.12     0.01  -0.09  -0.01
  12   8    -0.14   0.06   0.03     0.20   0.01   0.09    -0.04  -0.01   0.02
  13   8     0.07  -0.07  -0.04    -0.12   0.16   0.05     0.01  -0.06  -0.01
  14   8     0.02   0.01   0.02    -0.02  -0.05  -0.02    -0.09  -0.01  -0.08
  15   8     0.05   0.09  -0.03     0.04   0.17  -0.07     0.01  -0.17   0.10
  16   8     0.06  -0.06  -0.07    -0.04   0.03  -0.00    -0.04   0.09   0.05
  17   8     0.11   0.02   0.29     0.01  -0.01   0.04     0.04   0.01   0.16
  18   1     0.11   0.02   0.03    -0.04  -0.07   0.09     0.02   0.03  -0.06
  19   1     0.20   0.06   0.03     0.14   0.00  -0.06    -0.02   0.01   0.04
  20   1    -0.03   0.04  -0.01     0.14  -0.22   0.01     0.07  -0.11  -0.00
  21   1     0.05  -0.00   0.02    -0.31   0.02  -0.10     0.14  -0.02   0.04
  22   1     0.04   0.07  -0.06    -0.05  -0.05   0.07    -0.09  -0.17   0.13
  23   1    -0.01   0.04   0.03    -0.02   0.04   0.03     0.08  -0.24  -0.15
  24   1    -0.01  -0.00   0.04     0.04  -0.03   0.10    -0.02   0.02  -0.02
                     28                     29                     30
                        a                      a                      a 
 Frequencies --  1032.3220              1046.4886              1064.8408
 Red. masses --     9.2875                11.7130                10.5306
 Frc consts  --     0.0000                 0.0000                 0.0000
 IR Inten    --    44.2563               123.9243               118.2818
 Raman Activ --     0.0000                 0.0000                 0.0000
 Depolar     --     0.0000                 0.0000                 0.0000
 Atom AN      X      Y      Z        X      Y      Z        X      Y      Z
   1   6    -0.10  -0.08   0.01     0.08  -0.06  -0.00    -0.00   0.02  -0.34
   2   6     0.09   0.04  -0.12    -0.01  -0.04   0.10    -0.21   0.14   0.33
   3   1     0.01  -0.04  -0.02     0.02  -0.03   0.03    -0.18  -0.05   0.10
   4   6     0.14   0.23   0.30     0.10   0.12  -0.04     0.09   0.11  -0.21
   5   1     0.10   0.10   0.06     0.06   0.06  -0.02     0.00  -0.03  -0.04
   6   6    -0.50   0.10  -0.08    -0.15  -0.03   0.05    -0.01   0.05   0.09
   7   1    -0.13  -0.01  -0.01    -0.12   0.03   0.02    -0.12   0.03   0.04
   8   6    -0.03  -0.21  -0.10     0.05  -0.19   0.05     0.07  -0.11  -0.07
   9   1     0.11  -0.16  -0.03     0.01  -0.09   0.02     0.02   0.03  -0.02
  10   6    -0.19  -0.03  -0.08     0.65   0.15  -0.04    -0.11   0.01  -0.00
  11   1    -0.02   0.00  -0.02     0.17   0.10  -0.02    -0.04   0.08  -0.00
  12   8     0.15   0.06   0.09    -0.49  -0.12  -0.14     0.31  -0.23  -0.18
  13   8    -0.00   0.04  -0.01    -0.11   0.10   0.07    -0.00  -0.02  -0.01
  14   8     0.19   0.00   0.03    -0.01  -0.05   0.01    -0.00  -0.01   0.01
  15   8    -0.07  -0.05   0.10    -0.01   0.06  -0.02    -0.04  -0.01   0.00
  16   8     0.17  -0.09  -0.07     0.02   0.01   0.02    -0.03   0.01   0.06
  17   8     0.01   0.01   0.01     0.00   0.00   0.01     0.07   0.01   0.39
  18   1    -0.00   0.01  -0.00     0.01   0.03  -0.08    -0.19  -0.04  -0.30
  19   1    -0.05  -0.01   0.03    -0.04   0.01   0.05     0.04   0.05   0.04
  20   1     0.04  -0.06  -0.00    -0.06   0.06   0.02    -0.04   0.08  -0.00
  21   1    -0.08   0.01  -0.03    -0.13   0.00  -0.04    -0.08   0.01  -0.03
  22   1     0.15   0.24  -0.19     0.03   0.06  -0.03     0.02   0.04  -0.03
  23   1     0.11  -0.22  -0.15     0.04  -0.10  -0.06    -0.00   0.00  -0.00
  24   1     0.01  -0.00   0.02    -0.05   0.02  -0.10    -0.10   0.05  -0.14
                     31                     32                     33
                        a                      a                      a 
 Frequencies --  1080.8996              1111.1930              1112.4550
 Red. masses --     7.4714                10.1334                10.1791
 Frc consts  --     0.0000                 0.0000                 0.0000
 IR Inten    --    27.0754               115.8902                43.3080
 Raman Activ --     0.0000                 0.0000                 0.0000
 Depolar     --     0.0000                 0.0000                 0.0000
 Atom AN      X      Y      Z        X      Y      Z        X      Y      Z
   1   6     0.09   0.17  -0.05     0.06   0.01   0.12     0.09   0.07  -0.03
   2   6    -0.05  -0.42   0.14    -0.08   0.03   0.03    -0.13  -0.09   0.21
   3   1    -0.21  -0.24   0.08    -0.01   0.02   0.01    -0.11  -0.10   0.07
   4   6     0.23   0.13  -0.33     0.03   0.09   0.06    -0.30   0.45  -0.04
   5   1     0.06   0.07  -0.08     0.00   0.09   0.01     0.01   0.16  -0.04
   6   6    -0.03   0.06   0.06    -0.16  -0.61   0.13     0.05  -0.07   0.01
   7   1    -0.19   0.02   0.04    -0.15  -0.08   0.03     0.26  -0.13  -0.02
   8   6     0.10  -0.06  -0.10     0.09   0.08   0.02    -0.36   0.03   0.03
   9   1     0.03   0.02  -0.03    -0.04   0.35  -0.01    -0.10  -0.08   0.02
  10   6    -0.10  -0.01   0.05    -0.07  -0.15   0.02     0.08  -0.04  -0.05
  11   1    -0.03   0.04   0.01    -0.04   0.04   0.01     0.08  -0.11  -0.02
  12   8    -0.06   0.18   0.07     0.11  -0.02  -0.01     0.07  -0.07  -0.07
  13   8     0.06  -0.05  -0.03    -0.00   0.03   0.03    -0.08   0.09   0.04
  14   8    -0.04  -0.01   0.00    -0.06  -0.01  -0.03     0.23   0.06   0.06
  15   8    -0.05  -0.03   0.01     0.12   0.37  -0.23     0.02   0.02  -0.04
  16   8    -0.08   0.13   0.11     0.04   0.03   0.01     0.18  -0.27  -0.15
  17   8    -0.04  -0.04  -0.03    -0.01  -0.01  -0.10    -0.02  -0.02   0.00
  18   1     0.17  -0.04   0.31     0.01   0.01   0.02     0.06  -0.01   0.08
  19   1     0.02  -0.05  -0.23     0.01   0.01   0.04    -0.02  -0.02  -0.09
  20   1    -0.01   0.02  -0.01    -0.08   0.12   0.01     0.06  -0.10   0.01
  21   1    -0.05   0.00  -0.02     0.04  -0.01  -0.00     0.13   0.01   0.04
  22   1     0.03   0.04  -0.03    -0.04  -0.01   0.02    -0.05  -0.08   0.04
  23   1     0.01  -0.07  -0.03     0.08  -0.21  -0.12     0.01   0.04   0.02
  24   1     0.12  -0.08   0.27    -0.01   0.01  -0.05     0.03  -0.03   0.08
                     34                     35                     36
                        a                      a                      a 
 Frequencies --  1121.9097              1135.6760              1146.1598
 Red. masses --    11.5234                 5.5970                11.2197
 Frc consts  --     0.0000                 0.0000                 0.0000
 IR Inten    --   161.7991               130.5559                77.1037
 Raman Activ --     0.0000                 0.0000                 0.0000
 Depolar     --     0.0000                 0.0000                 0.0000
 Atom AN      X      Y      Z        X      Y      Z        X      Y      Z
   1   6    -0.26  -0.01  -0.42    -0.09  -0.04  -0.11    -0.08   0.02  -0.21
   2   6     0.39  -0.07  -0.10     0.16   0.01  -0.10     0.16  -0.05   0.04
   3   1     0.11  -0.03  -0.02     0.05  -0.12  -0.02     0.11  -0.02   0.00
   4   6     0.05  -0.11  -0.02    -0.15   0.20   0.12    -0.24   0.23   0.08
   5   1     0.02  -0.03  -0.01    -0.24  -0.04   0.06     0.03   0.13  -0.00
   6   6    -0.05  -0.14   0.07     0.13   0.07  -0.06    -0.03  -0.09   0.04
   7   1    -0.01  -0.05   0.01    -0.14   0.18  -0.01     0.12  -0.07   0.00
   8   6    -0.16   0.01  -0.09    -0.11  -0.16   0.01     0.50   0.16   0.15
   9   1    -0.06   0.09  -0.02    -0.06   0.30  -0.01     0.18  -0.13   0.03
  10   6     0.10  -0.27  -0.04    -0.06   0.09   0.06    -0.04   0.19   0.02
  11   1     0.07  -0.15  -0.01    -0.04   0.41   0.01    -0.15  -0.05   0.03
  12   8    -0.12   0.18   0.11    -0.10   0.05   0.05    -0.10  -0.03   0.06
  13   8    -0.12   0.20   0.09     0.15  -0.20  -0.06     0.07  -0.11  -0.05
  14   8     0.10   0.04   0.04     0.13  -0.01   0.05    -0.37  -0.08  -0.14
  15   8     0.04   0.10  -0.07     0.03  -0.05   0.01    -0.02   0.03  -0.01
  16   8    -0.05   0.06   0.03     0.10  -0.14  -0.10     0.11  -0.17  -0.12
  17   8     0.05  -0.00   0.35     0.01   0.00   0.08     0.01  -0.01   0.15
  18   1    -0.10  -0.06  -0.08     0.01   0.00   0.01    -0.03  -0.03  -0.01
  19   1    -0.03  -0.03  -0.15    -0.04  -0.02  -0.04    -0.05  -0.03  -0.13
  20   1     0.02  -0.05   0.02    -0.17   0.25  -0.01     0.00  -0.01  -0.01
  21   1     0.10  -0.00   0.02    -0.22   0.02  -0.08     0.02  -0.02   0.02
  22   1    -0.02  -0.02   0.02    -0.13  -0.20   0.16     0.04   0.07  -0.05
  23   1    -0.03   0.07   0.03     0.03  -0.04  -0.04    -0.01   0.07   0.03
  24   1     0.04  -0.01   0.14     0.03  -0.00   0.07     0.03  -0.02   0.09
                     37                     38                     39
                        a                      a                      a 
 Frequencies --  1157.2451              1183.5055              1200.0055
 Red. masses --     9.3200                 4.7293                 4.5296
 Frc consts  --     0.0000                 0.0000                 0.0000
 IR Inten    --    59.0138                23.9929                19.6313
 Raman Activ --     0.0000                 0.0000                 0.0000
 Depolar     --     0.0000                 0.0000                 0.0000
 Atom AN      X      Y      Z        X      Y      Z        X      Y      Z
   1   6     0.02  -0.09   0.03    -0.00   0.15   0.21    -0.03  -0.09  -0.08
   2   6    -0.06   0.16  -0.03     0.05  -0.29  -0.13     0.05   0.18  -0.04
   3   1    -0.16  -0.05   0.02     0.09  -0.37  -0.02     0.00  -0.02  -0.01
   4   6    -0.09   0.13   0.07    -0.07   0.15  -0.06    -0.01  -0.00  -0.05
   5   1    -0.27  -0.12   0.07    -0.15   0.04   0.00    -0.43  -0.20   0.08
   6   6     0.14   0.22  -0.01     0.09   0.04   0.09     0.14  -0.08   0.26
   7   1    -0.17   0.15   0.02    -0.13   0.04   0.04    -0.18  -0.09   0.10
   8   6     0.30  -0.02  -0.10     0.09  -0.01  -0.10    -0.03  -0.04  -0.12
   9   1     0.05   0.18  -0.04    -0.04  -0.04  -0.02    -0.26  -0.35   0.02
  10   6     0.13  -0.41  -0.10    -0.08  -0.02   0.07    -0.04   0.27   0.07
  11   1     0.04  -0.24  -0.02     0.12  -0.12   0.00    -0.02  -0.05   0.02
  12   8     0.09  -0.06  -0.01    -0.07   0.16   0.13    -0.04  -0.09  -0.03
  13   8    -0.19   0.30   0.15    -0.01   0.05  -0.02     0.04  -0.08  -0.09
  14   8    -0.19  -0.02  -0.04    -0.05   0.01   0.00     0.02   0.07   0.05
  15   8    -0.04  -0.12   0.07     0.01  -0.01  -0.02    -0.01   0.08  -0.09
  16   8     0.07  -0.09  -0.05     0.04  -0.04  -0.03     0.03   0.06   0.04
  17   8    -0.02   0.02  -0.06     0.06  -0.01  -0.03    -0.02   0.01   0.02
  18   1     0.14   0.06   0.09    -0.33  -0.12  -0.23     0.11   0.05   0.06
  19   1    -0.07  -0.01   0.01     0.24   0.07   0.18    -0.09  -0.02  -0.02
  20   1    -0.00   0.01   0.03     0.11  -0.15  -0.01     0.10  -0.16  -0.02
  21   1    -0.02  -0.01  -0.01     0.05  -0.00   0.02     0.22  -0.01   0.08
  22   1    -0.02  -0.04   0.03    -0.04  -0.07   0.05     0.02   0.05  -0.03
  23   1     0.03  -0.06  -0.05     0.02  -0.04  -0.04     0.09  -0.24  -0.16
  24   1     0.05  -0.02   0.10    -0.15   0.07  -0.33     0.06  -0.01   0.11
                     40                     41                     42
                        a                      a                      a 
 Frequencies --  1216.9319              1221.3808              1239.7972
 Red. masses --     2.6330                 4.1709                 4.2042
 Frc consts  --     0.0000                 0.0000                 0.0000
 IR Inten    --    33.2875                47.7718                22.7310
 Raman Activ --     0.0000                 0.0000                 0.0000
 Depolar     --     0.0000                 0.0000                 0.0000
 Atom AN      X      Y      Z        X      Y      Z        X      Y      Z
   1   6    -0.03  -0.03   0.03     0.09   0.16  -0.10     0.04  -0.04  -0.07
   2   6     0.07   0.03  -0.06    -0.15  -0.24   0.07    -0.11   0.14   0.03
   3   1    -0.07  -0.17   0.01     0.24   0.41  -0.05     0.23  -0.07  -0.03
   4   6     0.01   0.03  -0.15    -0.18  -0.19   0.02     0.03   0.02   0.05
   5   1    -0.27  -0.20   0.02    -0.19   0.36   0.00     0.11  -0.04  -0.00
   6   6     0.14  -0.02   0.00     0.11   0.12  -0.02    -0.02  -0.06  -0.02
   7   1     0.31  -0.44   0.01     0.11   0.09  -0.02    -0.10   0.06  -0.00
   8   6    -0.09   0.12   0.15     0.00   0.00  -0.03     0.04   0.08  -0.09
   9   1     0.15   0.24   0.01    -0.03   0.09  -0.01     0.12   0.17  -0.04
  10   6     0.02  -0.02   0.03     0.00  -0.04   0.03    -0.18   0.12   0.35
  11   1     0.07  -0.01   0.00     0.03  -0.06   0.00     0.55  -0.08  -0.00
  12   8    -0.04   0.02   0.01     0.02   0.04  -0.02    -0.06  -0.08  -0.12
  13   8     0.01  -0.02   0.01    -0.01   0.02   0.01    -0.01   0.01  -0.09
  14   8     0.05  -0.08  -0.00     0.02  -0.02   0.02     0.03  -0.06   0.01
  15   8    -0.14  -0.01   0.03    -0.02  -0.05   0.06     0.03   0.01  -0.01
  16   8    -0.01   0.04   0.04     0.07   0.11   0.02    -0.01  -0.03  -0.01
  17   8     0.01   0.01  -0.02     0.01  -0.06   0.10    -0.01  -0.01   0.02
  18   1    -0.02   0.00  -0.02    -0.07  -0.06  -0.02     0.10   0.04   0.05
  19   1     0.03   0.01   0.06    -0.05  -0.02  -0.18    -0.10  -0.03  -0.08
  20   1    -0.02   0.04   0.00     0.02  -0.03   0.00     0.25  -0.32  -0.02
  21   1    -0.32   0.02  -0.11    -0.12   0.01  -0.04    -0.24   0.01  -0.08
  22   1     0.20   0.32  -0.27     0.03   0.05  -0.04    -0.03  -0.05   0.04
  23   1     0.03  -0.09  -0.06     0.15  -0.38  -0.25    -0.03   0.07   0.05
  24   1    -0.00   0.01  -0.02    -0.04   0.01  -0.06     0.02  -0.02   0.06
                     43                     44                     45
                        a                      a                      a 
 Frequencies --  1266.2240              1282.1082              1288.6791
 Red. masses --     3.9061                 3.8336                 3.7746
 Frc consts  --     0.0000                 0.0000                 0.0000
 IR Inten    --    23.5292                64.8050                64.8095
 Raman Activ --     0.0000                 0.0000                 0.0000
 Depolar     --     0.0000                 0.0000                 0.0000
 Atom AN      X      Y      Z        X      Y      Z        X      Y      Z
   1   6    -0.05  -0.03   0.04    -0.00  -0.00  -0.02    -0.08  -0.06   0.03
   2   6     0.20  -0.05   0.02    -0.03   0.04  -0.03     0.33  -0.08   0.06
   3   1    -0.34   0.20   0.06     0.07  -0.09  -0.02    -0.51   0.25   0.09
   4   6    -0.00   0.01   0.04    -0.12  -0.02  -0.13    -0.06  -0.08   0.02
   5   1    -0.00   0.06   0.01     0.07  -0.26  -0.03    -0.11   0.23   0.01
   6   6    -0.08   0.01   0.05    -0.20   0.13   0.21     0.02   0.00   0.04
   7   1    -0.06  -0.02   0.02     0.19  -0.02   0.02     0.02   0.01   0.01
   8   6    -0.04   0.13  -0.20    -0.11   0.09   0.01     0.01  -0.02   0.09
   9   1     0.02   0.08  -0.05     0.55  -0.20  -0.04     0.18  -0.05   0.01
  10   6     0.11   0.22   0.13    -0.01  -0.07  -0.04    -0.15  -0.07   0.08
  11   1    -0.38  -0.39   0.11     0.02   0.04  -0.01     0.38   0.27  -0.06
  12   8    -0.01  -0.04  -0.03     0.03   0.01   0.03    -0.06  -0.02  -0.16
  13   8    -0.00  -0.04  -0.06     0.00  -0.00   0.02    -0.01   0.02  -0.02
  14   8     0.12  -0.11   0.08    -0.01  -0.03  -0.07    -0.07   0.03  -0.06
  15   8     0.07   0.01  -0.06     0.13   0.02  -0.11     0.00   0.01  -0.01
  16   8     0.01  -0.01  -0.02     0.05   0.11   0.12     0.02   0.01  -0.04
  17   8    -0.01   0.03  -0.04     0.00  -0.00   0.01    -0.03   0.06  -0.06
  18   1    -0.04  -0.01  -0.04     0.02   0.01   0.02    -0.05  -0.01  -0.05
  19   1     0.07   0.02   0.10    -0.01   0.01   0.01     0.13   0.05   0.19
  20   1     0.08  -0.15  -0.01    -0.04   0.07   0.01     0.06  -0.06  -0.01
  21   1    -0.40   0.02  -0.13    -0.02   0.00  -0.01     0.15  -0.01   0.05
  22   1    -0.10  -0.16   0.12    -0.18  -0.29   0.23     0.00   0.00  -0.00
  23   1    -0.00   0.01   0.01     0.11  -0.28  -0.17     0.01  -0.03  -0.02
  24   1     0.02  -0.01   0.04     0.00   0.01  -0.01     0.04  -0.02   0.10
                     46                     47                     48
                        a                      a                      a 
 Frequencies --  1304.6325              1307.5314              1332.8251
 Red. masses --     3.3271                 3.3780                 4.7172
 Frc consts  --     0.0000                 0.0000                 0.0000
 IR Inten    --    31.7622                15.8125                57.4126
 Raman Activ --     0.0000                 0.0000                 0.0000
 Depolar     --     0.0000                 0.0000                 0.0000
 Atom AN      X      Y      Z        X      Y      Z        X      Y      Z
   1   6     0.04   0.15   0.14    -0.03  -0.12  -0.14    -0.12   0.04   0.07
   2   6    -0.01  -0.04  -0.08    -0.12   0.05   0.10     0.20   0.28   0.01
   3   1    -0.11   0.20  -0.01     0.26  -0.16  -0.01    -0.22  -0.35   0.07
   4   6     0.15   0.05   0.15     0.01  -0.15   0.06    -0.20  -0.22  -0.06
   5   1    -0.14   0.01   0.07    -0.05   0.43  -0.00     0.19   0.25  -0.08
   6   6     0.10   0.05   0.05     0.16   0.06   0.02     0.02  -0.01  -0.03
   7   1    -0.34  -0.32   0.11    -0.32  -0.26   0.09     0.05   0.07  -0.02
   8   6    -0.11   0.09   0.02    -0.11   0.16  -0.01     0.09   0.16  -0.04
   9   1     0.25  -0.15  -0.01     0.15  -0.20  -0.01    -0.26  -0.16   0.02
  10   6    -0.00  -0.05  -0.05     0.01  -0.05  -0.10    -0.07  -0.01  -0.08
  11   1     0.06   0.03  -0.02     0.02  -0.06  -0.03     0.17  -0.09  -0.05
  12   8     0.01   0.01  -0.03     0.03   0.02   0.04    -0.01  -0.04  -0.01
  13   8     0.01  -0.01   0.03     0.02  -0.03   0.06     0.03  -0.04   0.07
  14   8     0.01  -0.01  -0.02     0.04  -0.03   0.01     0.04  -0.04   0.06
  15   8     0.01   0.02  -0.09     0.01   0.01  -0.07     0.02  -0.01   0.02
  16   8    -0.03  -0.08  -0.08    -0.01  -0.03  -0.07     0.02   0.07   0.04
  17   8     0.08  -0.12   0.07    -0.06   0.09  -0.05     0.09  -0.09   0.03
  18   1    -0.07  -0.07   0.07     0.10   0.07  -0.02     0.07   0.01   0.18
  19   1    -0.28  -0.11  -0.38     0.23   0.08   0.29    -0.13  -0.05  -0.16
  20   1    -0.05   0.08   0.01    -0.10   0.16   0.02    -0.10   0.17   0.02
  21   1    -0.03   0.00  -0.01    -0.13   0.01  -0.05    -0.18   0.01  -0.05
  22   1    -0.02  -0.04   0.03    -0.02  -0.02   0.01    -0.01  -0.01   0.00
  23   1    -0.07   0.18   0.11    -0.03   0.06   0.03     0.05  -0.13  -0.08
  24   1    -0.12   0.05  -0.28     0.09  -0.04   0.21    -0.10   0.05  -0.26
                     49                     50                     51
                        a                      a                      a 
 Frequencies --  1335.8332              1338.8068              1346.2005
 Red. masses --     4.3271                 3.7803                 4.7475
 Frc consts  --     0.0000                 0.0000                 0.0000
 IR Inten    --    46.5960                29.5437                22.7526
 Raman Activ --     0.0000                 0.0000                 0.0000
 Depolar     --     0.0000                 0.0000                 0.0000
 Atom AN      X      Y      Z        X      Y      Z        X      Y      Z
   1   6     0.28  -0.03   0.16    -0.21   0.02  -0.07     0.12  -0.02   0.08
   2   6     0.05   0.15  -0.06     0.02   0.13   0.07    -0.03   0.13  -0.00
   3   1    -0.08  -0.24   0.02     0.02  -0.16   0.03    -0.01  -0.21   0.01
   4   6    -0.16  -0.12  -0.00     0.00  -0.10  -0.03     0.30  -0.15  -0.06
   5   1     0.17   0.11  -0.05    -0.09   0.23  -0.01    -0.41   0.34   0.05
   6   6     0.20  -0.07  -0.04     0.10  -0.08   0.01    -0.27   0.04   0.08
   7   1    -0.16   0.10   0.00    -0.03   0.18  -0.01     0.30   0.08  -0.04
   8   6    -0.13   0.03   0.00    -0.18  -0.12   0.02     0.00  -0.19   0.01
   9   1     0.17  -0.00  -0.02     0.35   0.15  -0.04     0.10   0.15  -0.02
  10   6     0.08  -0.06   0.06     0.14   0.01   0.13    -0.04   0.18  -0.03
  11   1    -0.19   0.14   0.05    -0.30   0.13   0.09     0.07  -0.25  -0.01
  12   8     0.00  -0.00   0.03     0.01  -0.02   0.01    -0.00  -0.01   0.01
  13   8    -0.04   0.03  -0.07    -0.06   0.06  -0.11     0.04  -0.05   0.04
  14   8    -0.00   0.01  -0.02    -0.03   0.04  -0.06    -0.02   0.03  -0.04
  15   8    -0.04  -0.00   0.04    -0.04   0.00   0.05     0.05   0.02  -0.02
  16   8     0.01   0.04   0.03    -0.01  -0.01  -0.03    -0.04  -0.03  -0.08
  17   8    -0.13   0.06  -0.03     0.12  -0.08   0.03    -0.04   0.01  -0.01
  18   1    -0.27  -0.09  -0.35     0.21   0.07   0.29    -0.08  -0.02  -0.12
  19   1    -0.29  -0.06  -0.17     0.09   0.01   0.02    -0.16  -0.04  -0.11
  20   1     0.09  -0.14  -0.02     0.17  -0.26  -0.03    -0.07   0.11   0.01
  21   1     0.01  -0.00  -0.00     0.15  -0.01   0.04     0.12  -0.00   0.04
  22   1     0.06   0.10  -0.08     0.05   0.09  -0.07    -0.05  -0.09   0.07
  23   1     0.03  -0.08  -0.05    -0.01   0.02   0.01    -0.05   0.13   0.07
  24   1     0.11  -0.06   0.29    -0.12   0.05  -0.29     0.03  -0.02   0.09
                     52                     53                     54
                        a                      a                      a 
 Frequencies --  1351.3459              1354.6885              1463.3267
 Red. masses --     4.7250                 5.1036                 1.8025
 Frc consts  --     0.0000                 0.0000                 0.0000
 IR Inten    --    20.6660                49.8163                 1.8965
 Raman Activ --     0.0000                 0.0000                 0.0000
 Depolar     --     0.0000                 0.0000                 0.0000
 Atom AN      X      Y      Z        X      Y      Z        X      Y      Z
   1   6     0.00   0.00  -0.00     0.03  -0.00   0.01     0.16   0.06  -0.20
   2   6    -0.02  -0.07  -0.01    -0.07   0.03   0.01     0.01   0.01  -0.01
   3   1     0.00   0.07  -0.01     0.04  -0.06  -0.00     0.01  -0.00  -0.01
   4   6     0.12   0.12  -0.03     0.18  -0.03  -0.03     0.01  -0.01   0.00
   5   1    -0.19  -0.08   0.04    -0.22   0.12   0.03    -0.01  -0.00   0.00
   6   6     0.09  -0.36   0.04    -0.22   0.03   0.05    -0.00  -0.00  -0.00
   7   1     0.05   0.60  -0.07     0.20  -0.06  -0.02    -0.00  -0.00   0.00
   8   6    -0.15   0.30  -0.06     0.17   0.26  -0.02    -0.00  -0.00   0.00
   9   1     0.17  -0.31  -0.02    -0.24  -0.22   0.04    -0.00  -0.00   0.00
  10   6    -0.02  -0.04  -0.08     0.07  -0.33   0.07     0.00   0.00  -0.00
  11   1     0.08  -0.08  -0.03    -0.16   0.48   0.03    -0.01   0.00   0.00
  12   8     0.01   0.02   0.01     0.02   0.02   0.01    -0.01   0.00   0.01
  13   8     0.02  -0.04   0.06    -0.08   0.11  -0.09    -0.00  -0.00  -0.00
  14   8     0.06  -0.05   0.03     0.03  -0.07   0.06     0.00  -0.00   0.00
  15   8    -0.06   0.00   0.11     0.06  -0.00  -0.04    -0.00  -0.00   0.00
  16   8    -0.03  -0.04  -0.03    -0.02  -0.03  -0.04    -0.00  -0.00  -0.00
  17   8    -0.00   0.01  -0.00    -0.01  -0.00  -0.00     0.01   0.01  -0.03
  18   1    -0.01  -0.00  -0.01    -0.00   0.00  -0.02    -0.18  -0.52   0.40
  19   1     0.03   0.01   0.02    -0.03  -0.01  -0.03    -0.45   0.23   0.46
  20   1    -0.09   0.14   0.01     0.15  -0.23  -0.02     0.00   0.00  -0.00
  21   1    -0.17   0.01  -0.06    -0.22   0.01  -0.06    -0.00  -0.00  -0.00
  22   1     0.09   0.15  -0.10    -0.06  -0.10   0.08     0.00   0.00  -0.00
  23   1    -0.04   0.09   0.06    -0.03   0.08   0.05    -0.01   0.03   0.00
  24   1     0.01   0.00   0.01     0.00  -0.00   0.01    -0.01   0.01  -0.02
                     55                     56                     57
                        a                      a                      a 
 Frequencies --  2823.6677              2858.8039              2862.4760
 Red. masses --     1.6917                 1.7249                 1.6864
 Frc consts  --     0.0000                 0.0000                 0.0000
 IR Inten    --    42.8677                 3.0639                66.3264
 Raman Activ --     0.0000                 0.0000                 0.0000
 Depolar     --     0.0000                 0.0000                 0.0000
 Atom AN      X      Y      Z        X      Y      Z        X      Y      Z
   1   6     0.00   0.00  -0.00    -0.00  -0.01  -0.00     0.00   0.00   0.00
   2   6    -0.00  -0.00  -0.01    -0.04  -0.01  -0.20     0.03   0.00   0.14
   3   1     0.00   0.00   0.02     0.12   0.05   0.76    -0.08  -0.03  -0.54
   4   6    -0.00  -0.00  -0.01     0.00   0.00   0.00    -0.01  -0.00  -0.06
   5   1     0.00   0.00   0.03    -0.00  -0.00  -0.02     0.05   0.02   0.29
   6   6    -0.01  -0.00  -0.02     0.02   0.02   0.15     0.03   0.03   0.18
   7   1     0.02   0.02   0.12    -0.08  -0.06  -0.57    -0.11  -0.08  -0.72
   8   6     0.01   0.01   0.25     0.00   0.00   0.02     0.00   0.00   0.03
   9   1    -0.10  -0.05  -0.95    -0.01  -0.00  -0.05    -0.01  -0.00  -0.09
  10   6    -0.00   0.00  -0.01    -0.00  -0.00  -0.01    -0.00   0.00  -0.02
  11   1     0.01   0.00   0.08     0.01   0.00   0.05     0.01   0.00   0.07
  12   8    -0.00  -0.00  -0.00     0.01  -0.01  -0.01    -0.01   0.01   0.01
  13   8     0.00  -0.00  -0.00     0.00  -0.00  -0.00     0.00  -0.00  -0.00
  14   8     0.02   0.00   0.01     0.00  -0.00   0.00     0.00  -0.00  -0.00
  15   8     0.00   0.00  -0.00    -0.00  -0.01   0.01    -0.00  -0.01   0.01
  16   8     0.00  -0.00  -0.00    -0.00   0.00   0.00     0.00  -0.00  -0.00
  17   8    -0.00   0.00  -0.00    -0.00  -0.00   0.00     0.00   0.00  -0.00
  18   1    -0.00   0.00   0.00     0.01  -0.01  -0.01    -0.01   0.01   0.00
  19   1     0.00  -0.00   0.00     0.00   0.03  -0.01    -0.00  -0.02   0.01
  20   1     0.00  -0.00  -0.00    -0.00  -0.00  -0.00     0.00  -0.00  -0.00
  21   1     0.00   0.00  -0.00    -0.00   0.00   0.00     0.00   0.00   0.00
  22   1    -0.00   0.00   0.00    -0.00  -0.00  -0.00    -0.00  -0.00  -0.00
  23   1    -0.00  -0.00   0.00     0.00   0.00  -0.00     0.00  -0.00   0.00
  24   1    -0.00  -0.00  -0.00     0.00   0.00   0.00    -0.00  -0.00  -0.00
                     58                     59                     60
                        a                      a                      a 
 Frequencies --  2886.8026              2893.8356              2909.8749
 Red. masses --     1.7645                 1.7375                 1.7569
 Frc consts  --     0.0000                 0.0000                 0.0000
 IR Inten    --    52.1992                96.3940                47.8532
 Raman Activ --     0.0000                 0.0000                 0.0000
 Depolar     --     0.0000                 0.0000                 0.0000
 Atom AN      X      Y      Z        X      Y      Z        X      Y      Z
   1   6    -0.00  -0.01   0.00    -0.00  -0.00   0.00     0.00   0.25  -0.08
   2   6    -0.01   0.00  -0.05    -0.00  -0.00  -0.01     0.00   0.01  -0.01
   3   1     0.03   0.01   0.17     0.00   0.01   0.05     0.01   0.00   0.05
   4   6    -0.05  -0.01  -0.23    -0.01  -0.00  -0.07    -0.00  -0.00  -0.01
   5   1     0.15   0.06   0.87     0.04   0.01   0.24     0.01   0.00   0.05
   6   6    -0.01  -0.01  -0.06    -0.01  -0.01  -0.04    -0.00  -0.00  -0.00
   7   1     0.03   0.02   0.18     0.02   0.02   0.13     0.00   0.00   0.01
   8   6    -0.00  -0.00  -0.01    -0.00   0.00  -0.04    -0.00  -0.00  -0.00
   9   1     0.00   0.00   0.04     0.01   0.01   0.10     0.00   0.00   0.01
  10   6     0.01   0.00   0.07    -0.03  -0.00  -0.24     0.00   0.00  -0.00
  11   1    -0.04  -0.01  -0.27     0.15   0.02   0.91     0.00  -0.00   0.00
  12   8     0.00  -0.00   0.00    -0.01  -0.00  -0.01     0.00  -0.00  -0.00
  13   8    -0.00   0.00   0.00     0.00  -0.00  -0.01    -0.00  -0.00   0.00
  14   8    -0.00   0.00  -0.00    -0.00  -0.00   0.00     0.00  -0.00   0.00
  15   8     0.00   0.00  -0.00     0.00   0.00  -0.00     0.00   0.00  -0.00
  16   8     0.01  -0.01  -0.01     0.00  -0.00  -0.00     0.00  -0.00  -0.00
  17   8    -0.00  -0.00   0.00    -0.00  -0.00   0.00    -0.00   0.00  -0.01
  18   1     0.00  -0.00  -0.00     0.00  -0.00  -0.00     0.06  -0.01  -0.05
  19   1     0.00   0.05  -0.02     0.00   0.02  -0.01    -0.07  -0.89   0.36
  20   1     0.00   0.00   0.00    -0.00   0.00  -0.01     0.00   0.00   0.00
  21   1    -0.00  -0.00  -0.00     0.00   0.00  -0.00    -0.00   0.00  -0.00
  22   1    -0.00   0.00  -0.00    -0.00   0.00  -0.00    -0.00  -0.00  -0.00
  23   1    -0.00  -0.00   0.00    -0.00  -0.00  -0.00    -0.00  -0.00  -0.00
  24   1     0.00   0.00   0.00     0.00   0.00   0.00    -0.00  -0.00  -0.00
                     61                     62                     63
                        a                      a                      a 
 Frequencies --  2982.9377              3509.3540              3514.2033
 Red. masses --     1.6906                 1.8715                 1.8641
 Frc consts  --     0.0000                 0.0000                 0.0000
 IR Inten    --    25.5806                35.5451                12.9385
 Raman Activ --     0.0000                 0.0000                 0.0000
 Depolar     --     0.0000                 0.0000                 0.0000
 Atom AN      X      Y      Z        X      Y      Z        X      Y      Z
   1   6    -0.17   0.14   0.12    -0.00  -0.00  -0.00    -0.00  -0.00  -0.00
   2   6    -0.00   0.01   0.01    -0.00   0.00   0.00     0.00   0.00   0.00
   3   1    -0.00  -0.00  -0.02    -0.00  -0.00  -0.00     0.00  -0.00  -0.00
   4   6    -0.00   0.00   0.00    -0.00  -0.00   0.00    -0.00   0.00  -0.00
   5   1    -0.00   0.00  -0.00     0.00   0.00   0.00    -0.00   0.00  -0.00
   6   6     0.00   0.00   0.00     0.00   0.00  -0.00    -0.00  -0.00   0.00
   7   1    -0.00  -0.00  -0.00    -0.00  -0.00   0.00     0.00  -0.00  -0.00
   8   6     0.00   0.00   0.00    -0.00  -0.00  -0.00     0.00   0.00  -0.00
   9   1    -0.00  -0.00  -0.00     0.00   0.00   0.00     0.00   0.00   0.00
  10   6     0.00   0.00   0.00    -0.00  -0.00   0.00    -0.00   0.00   0.01
  11   1    -0.00   0.00  -0.00    -0.00   0.00  -0.00    -0.00   0.00  -0.00
  12   8     0.00  -0.00  -0.00     0.00  -0.00  -0.00     0.00  -0.00  -0.00
  13   8    -0.00  -0.00  -0.00     0.00   0.00   0.02     0.02   0.01   0.24
  14   8     0.00  -0.00  -0.00    -0.04  -0.23   0.06     0.00   0.02  -0.00
  15   8     0.00   0.00  -0.00     0.01  -0.01  -0.00    -0.00   0.00   0.00
  16   8     0.00   0.00  -0.00     0.00  -0.00   0.00    -0.00  -0.00  -0.00
  17   8     0.00   0.00   0.01    -0.00   0.00   0.00     0.00  -0.00  -0.00
  18   1     0.64  -0.58  -0.42    -0.00  -0.00  -0.00     0.00  -0.00  -0.00
  19   1    -0.02   0.09  -0.02     0.00   0.00  -0.00    -0.00  -0.00   0.00
  20   1     0.00  -0.00   0.00    -0.00  -0.00  -0.07    -0.07  -0.04  -0.97
  21   1     0.00   0.00   0.00     0.18   0.92  -0.23    -0.01  -0.07   0.02
  22   1     0.00  -0.00   0.00    -0.02   0.02   0.01     0.00  -0.00  -0.00
  23   1     0.00  -0.00   0.00    -0.00  -0.00  -0.00     0.00   0.00   0.00
  24   1    -0.01   0.01   0.00     0.00  -0.00  -0.00    -0.00   0.00   0.00
                     64                     65                     66
                        a                      a                      a 
 Frequencies --  3529.0144              3535.4301              3550.3881
 Red. masses --     1.8728                 1.8726                 1.8738
 Frc consts  --     0.0000                 0.0000                 0.0000
 IR Inten    --    33.5362                20.8622                22.0275
 Raman Activ --     0.0000                 0.0000                 0.0000
 Depolar     --     0.0000                 0.0000                 0.0000
 Atom AN      X      Y      Z        X      Y      Z        X      Y      Z
   1   6     0.00  -0.00   0.00    -0.00   0.00   0.01     0.00  -0.00  -0.00
   2   6    -0.00   0.00  -0.00     0.00  -0.00   0.00    -0.00   0.00  -0.00
   3   1     0.00  -0.00   0.00    -0.00   0.00  -0.00    -0.00  -0.00   0.00
   4   6     0.00  -0.00  -0.00    -0.00   0.00   0.00    -0.01   0.00  -0.00
   5   1     0.00   0.00   0.00     0.00   0.00  -0.00     0.00   0.00   0.00
   6   6    -0.00   0.01  -0.00     0.00  -0.00  -0.00    -0.00   0.00   0.00
   7   1     0.00  -0.00   0.00    -0.00  -0.00  -0.00     0.00   0.00   0.00
   8   6    -0.00   0.00  -0.00     0.00  -0.00  -0.00    -0.00  -0.00   0.00
   9   1    -0.00  -0.00  -0.00     0.00  -0.00   0.00    -0.00   0.00   0.00
  10   6    -0.00   0.00   0.00    -0.00  -0.00  -0.00    -0.00   0.00  -0.00
  11   1     0.00   0.00  -0.00    -0.00   0.00   0.00     0.00  -0.00   0.00
  12   8    -0.00  -0.00  -0.00     0.00   0.00   0.00     0.00  -0.00  -0.00
  13   8     0.00  -0.00  -0.00     0.00   0.00   0.00     0.00  -0.00  -0.00
  14   8    -0.00  -0.01   0.00     0.00   0.00  -0.00    -0.00  -0.00   0.00
  15   8    -0.17   0.16   0.06     0.00  -0.00  -0.00     0.01  -0.01  -0.00
  16   8    -0.01  -0.00  -0.00    -0.00  -0.00  -0.00    -0.23  -0.04  -0.06
  17   8    -0.00   0.00   0.00    -0.16   0.14   0.11     0.00  -0.00  -0.00
  18   1    -0.00   0.00   0.00     0.01  -0.01  -0.00    -0.00   0.00   0.00
  19   1    -0.00  -0.00   0.00     0.00   0.00  -0.00     0.00  -0.00   0.00
  20   1     0.00   0.00   0.00    -0.00  -0.00  -0.01     0.00   0.00   0.00
  21   1     0.01   0.03  -0.01    -0.00  -0.00   0.00     0.00   0.00  -0.00
  22   1     0.67  -0.66  -0.22    -0.01   0.01   0.00    -0.03   0.03   0.01
  23   1     0.04   0.01   0.01     0.01   0.00   0.00     0.93   0.15   0.25
  24   1     0.01  -0.01  -0.00     0.64  -0.57  -0.45    -0.00   0.00   0.00
