      -----------------------------------------------------------      
     |                   =====================                   |     
     |                           x T B                           |     
     |                   =====================                   |     
     |                         S. Grimme                         |     
     |          Mulliken Center for Theoretical Chemistry        |     
     |                    University of Bonn                     |     
      -----------------------------------------------------------      

   * xtb version 6.7.1 (edcfbbe) compiled by 'albert@albert-system' on 2024-07-22

   xtb is free software: you can redistribute it and/or modify it under
   the terms of the GNU Lesser General Public License as published by
   the Free Software Foundation, either version 3 of the License, or
   (at your option) any later version.
   
   xtb is distributed in the hope that it will be useful,
   but WITHOUT ANY WARRANTY; without even the implied warranty of
   MERCHANTABILITY or FITNESS FOR A PARTICULAR PURPOSE.  See the
   GNU Lesser General Public License for more details.
   
   Cite this work as:
   * C. Bannwarth, E. Caldeweyher, S. Ehlert, A. Hansen, P. Pracht,
     J. Seibert, S. Spicher, S. Grimme, WIREs Comput. Mol. Sci., 2020, 11,
     e01493. DOI: 10.1002/wcms.1493
   
   for GFN2-xTB:
   * C. Bannwarth, S. Ehlert and S. Grimme., J. Chem. Theory Comput., 2019,
     15, 1652-1671. DOI: 10.1021/acs.jctc.8b01176
   for GFN1-xTB:
   * S. Grimme, C. Bannwarth, P. Shushkov, J. Chem. Theory Comput., 2017,
     13, 1989-2009. DOI: 10.1021/acs.jctc.7b00118
   for GFN0-xTB:
   * P. Pracht, E. Caldeweyher, S. Ehlert, S. Grimme, ChemRxiv, 2019, preprint.
     DOI: 10.26434/chemrxiv.8326202.v1
   for GFN-FF:
   * S. Spicher and S. Grimme, Angew. Chem. Int. Ed., 2020, 59, 15665-15673.
     DOI: 10.1002/anie.202004239
   
   for ALPB and GBSA implicit solvation:
   * S. Ehlert, M. Stahn, S. Spicher, S. Grimme, J. Chem. Theory Comput.,
     2021, 17, 4250-4261. DOI: 10.1021/acs.jctc.1c00471
   
   for ddCOSMO and CPCM-X implicit solvation:
   * M. Stahn, S. Ehlert, S. Grimme, J. Phys. Chem. A,
     2023, XX, XXXX-XXXX. DOI: 10.1021/acs.jpca.3c04382
   
   for DFT-D4:
   * E. Caldeweyher, C. Bannwarth and S. Grimme, J. Chem. Phys., 2017,
     147, 034112. DOI: 10.1063/1.4993215
   * E. Caldeweyher, S. Ehlert, A. Hansen, H. Neugebauer, S. Spicher,
     C. Bannwarth and S. Grimme, J. Chem. Phys., 2019, 150, 154122.
     DOI: 10.1063/1.5090222
   * E. Caldeweyher, J.-M. Mewes, S. Ehlert and S. Grimme, Phys. Chem. Chem. Phys.
     2020, 22, 8499-8512. DOI: 10.1039/D0CP00502A
   
   for sTDA-xTB:
   * S. Grimme and C. Bannwarth, J. Chem. Phys., 2016, 145, 054103.
     DOI: 10.1063/1.4959605
   
   in the mass-spec context:
   * V. Asgeirsson, C. Bauer and S. Grimme, Chem. Sci., 2017, 8, 4879.
     DOI: 10.1039/c7sc00601b
   * J. Koopman and S. Grimme, ACS Omega 2019, 4, 12, 15120-15133.
     DOI: 10.1021/acsomega.9b02011
   
   for metadynamics refer to:
   * S. Grimme, J. Chem. Theory Comput., 2019, 155, 2847-2862
     DOI: 10.1021/acs.jctc.9b00143
   
   for SPH calculations refer to:
   * S. Spicher and S. Grimme, J. Chem. Theory Comput., 2021, 17, 1701-1714
     DOI: 10.1021/acs.jctc.0c01306
   
   for ONIOM refer to:
   * C. Plett, A. Katbashev, S. Ehlert, S. Grimme, M. Bursch,
     Phys. Chem. Chem. Phys., 2023, 25, 17860-17868. DOI: 10.1039/D3CP02178E
   
   for DIPRO refer to:
   * J. Kohn, N. Gildemeister, S. Grimme, D. Fazzi, A. Hansen,
     J. Chem. Phys., 2023, just accepted.
   
   for PTB refer to:
   * S. Grimme, M. Mueller, A. Hansen, J. Chem. Phys., 2023, 158, 124111.
     DOI: 10.1063/5.0137838
   
   with help from (in alphabetical order)
   P. Atkinson, C. Bannwarth, F. Bohle, G. Brandenburg, E. Caldeweyher
   M. Checinski, S. Dohm, S. Ehlert, S. Ehrlich, I. Gerasimov, C. Hölzer
   A. Katbashev, J. Kohn, J. Koopman, C. Lavigne, S. Lehtola, F. März, M. Müller,
   F. Musil, H. Neugebauer, J. Pisarek, C. Plett, P. Pracht, F. Pultar,
   J. Seibert, P. Shushkov, S. Spicher, M. Stahn, M. Steiner, T. Strunk,
   J. Stückrath, T. Rose, and J. Unsleber
   
 * started run on 2025/04/15 at 19:17:33.216     
   ID    Z sym.   atoms
    1    6 C      1-11
    2    1 H      12-21

           -------------------------------------------------
          |                Calculation Setup                |
           -------------------------------------------------

          program call               : /software/projects/pawsey0265/mwang1/xtb/bin/xtb xtb_opt.coord --opt normal --orca -I xtb_opt-xcontrol-inp
          hostname                   : nid002793
          coordinate file            : xtb_opt.coord
          omp threads                :                     6

           -------------------------------------------------
          |                   Orca driver                   |
           -------------------------------------------------
orca executable           : /software/projects/pawsey0265/mwang1/orca_avx2/orca
orca input file           : xtb_opt.inp
orca input line           : 
orca parallel             : true
orca number of threads    : 6
                         * ORCA takes the control...
  ------------------------------------------------------------------------

                                 *****************
                                 * O   R   C   A *
                                 *****************

                                            #,                                       
                                            ###                                      
                                            ####                                     
                                            #####                                    
                                            ######                                   
                                           ########,                                 
                                     ,,################,,,,,                         
                               ,,#################################,,                 
                          ,,##########################################,,             
                       ,#########################################, ''#####,          
                    ,#############################################,,   '####,        
                  ,##################################################,,,,####,       
                ,###########''''           ''''###############################       
              ,#####''   ,,,,##########,,,,          '''####'''          '####       
            ,##' ,,,,###########################,,,                        '##       
           ' ,,###''''                  '''############,,,                           
         ,,##''                                '''############,,,,        ,,,,,,###''
      ,#''                                            '''#######################'''  
     '                                                          ''''####''''         
             ,#######,   #######,   ,#######,      ##                                
            ,#'     '#,  ##    ##  ,#'     '#,    #''#        ,####,   ,####,        
            ##       ##  ##   ,#'  ##            #'  '#       #'       #'  '#        
            ##       ##  #######   ##           ,######,      #####,   #    #        
            '#,     ,#'  ##    ##  '#,     ,#' ,#      #,     #,   #   #,  ,#        
             '#######'   ##     ##  '#######'  #'      '#     '####' # '####'        



                #########################################################
                #                        -***-                          #
                #          Department of theory and spectroscopy        #
                #                                                       #
                #                      Frank Neese                      #
                #                                                       #
                #     Directorship, Architecture, Infrastructure        #
                #                    SHARK, DRIVERS                     #
                #        Core code/Algorithms in most modules           #
                #                                                       #
                #        Max Planck Institute fuer Kohlenforschung      #
                #                Kaiser Wilhelm Platz 1                 #
                #                 D-45470 Muelheim/Ruhr                 #
                #                      Germany                          #
                #                                                       #
                #                  All rights reserved                  #
                #                        -***-                          #
                #########################################################


                         Program Version 6.0.1  -  RELEASE   -


 With contributions from (in alphabetic order):
[Max-Planck-Institut fuer Kohlenforschung]                               
  Daniel Aravena         : Magnetic Suceptibility                        
  Michael Atanasov       : Ab Initio Ligand Field Theory (pilot matlab implementation)
  Alexander A. Auer      : GIAO ZORA, VPT2 properties, NMR spectrum      
  Ute Becker             : All parallelization in ORCA, NUMFREQ, NUMCALC 
  Giovanni Bistoni       : ED, misc. LED, open-shell LED, HFLD           
  Martin Brehm           : Molecular dynamics                            
  Dmytro Bykov           : pre 5.0 version of the SCF Hessian            
  Marcos Casanova-Páez   : Triplet and SCS-CIS(D). UHF-(DLPNO)-IP/EA/STEOM-CCSD. UHF-CVS-IP/STEOM-CCSD   
  Vijay G. Chilkuri      : MRCI spin determinant printing, contributions to CSF-ICE 
  Pauline Colinet        : FMM embedding                                 
  Dipayan Datta          : RHF DLPNO-CCSD density                        
  Achintya Kumar Dutta   : EOM-CC, STEOM-CC                              
  Nicolas Foglia         : Exact transition moments, OPA infrastructure, MCD improvements    
  Dmitry Ganyushin       : Spin-Orbit,Spin-Spin,Magnetic field MRCI      
  Miquel Garcia-Rates    : C-PCM and meta-GGA Hessian, CCSD/C-PCM, Gaussian charge scheme 
  Tiago L. C. Gouveia    : GS-ROHF, GS-ROCIS                             
  Yang Guo               : DLPNO-NEVPT2, F12-NEVPT2, CIM, IAO-localization        
  Andreas Hansen         : Spin unrestricted coupled pair/coupled cluster methods 
  Ingolf Harden          : AUTO-CI MPn and infrastructure                
  Benjamin Helmich-Paris : MC-RPA, TRAH-(SCF,CASSCF), AVAS, COSX integrals, SCF dyn. polar. 
  Lee Huntington         : MR-EOM, pCC                                   
  Robert Izsak           : Overlap fitted RIJCOSX, COSX-SCS-MP3, EOM     
  Riya Kayal             : Wick's Theorem for AUTO-CI, AUTO-CI UHF-CCSDT 
  Emily Kempfer          : AUTO-CI, RHF CISDT and CCSDT                  
  Christian Kollmar      : KDIIS, OOCD, Brueckner-CCSD(T), CCSD density, CASPT2, CASPT2-K, improved NEVPT2 
  Axel Koslowski         : Symmetry handling                             
  Simone Kossmann        : meta-GGA functionals, TD-DFT gradient, OOMP2, (MP2 Hessian; deprecated post 5.0) 
  Lucas Lang             : DCDCAS                                        
  Marvin Lechner         : AUTO-CI (C++ implementation), FIC-MRCC        
  Spencer Leger          : CASSCF response                               
  Dagmar Lenk            : GEPOL surface, SMD, ORCA-2-JSON               
  Dimitrios Liakos       : Extrapolation schemes; Compound Job, initial MDCI parallelization 
  Dimitrios Manganas     : Further ROCIS development; embedding schemes. LFT, Crystal Embedding 
  Dimitrios Pantazis     : SARC Basis sets                               
  Anastasios Papadopoulos: AUTO-CI, single reference methods and gradients 
  Taras Petrenko         : pre 6.0 DFT Hessian and TD-DFT gradient, (ASA, deprecated), ECA, 1-Electron XAS/XES, NRVS 
  Peter Pinski           : DLPNO-MP2, DLPNO-MP2 Gradient                 
  Christoph Reimann      : Effective Core Potentials                     
  Marius Retegan         : Local ZFS, SOC                                
  Christoph Riplinger    : Optimizer, TS searches, QM/MM, DLPNO-CCSD(T), (RO)-DLPNO pert. Triples 
  Michael Roemelt        : Original ROCIS implementation                 
  Masaaki Saitow         : Open-shell DLPNO-CCSD energy and density      
  Barbara Sandhoefer     : DKH picture change effects                    
  Kantharuban Sivalingam : CASSCF convergence/infrastructure, NEVPT2 and variants, FIC-MRCI 
  Bernardo de Souza      : ESD, SOC TD-DFT                               
  Georgi L. Stoychev     : AutoAux, RI-MP2 NMR, DLPNO-MP2 response, X2C  
  Van Anh Tran           : RI-MP2 g-tensors                              
  Willem Van den Heuvel  : Paramagnetic NMR                              
  Zikuan Wang            : NOTCH, Electric field optimization            
  Frank Wennmohs         : Technical directorship and infrastructure     
  Hang Xu                : AUTO-CI-Response properties                   
                                                                         
[FACCTs GmbH]                                                            
  Markus Bursch, Miquel Garcia-Rates, Christoph Riplinger, Bernardo de Souza, Georgi L. Stoychev 
                                                                 
  APM, Basis sets (HGBS, AHGBS, def-TZVP (Ac-Lr), def2-XVPD (La-Lu)), CI-OPT, improved COSX, DLPNO-Multilevel,           
  DOCKER, DRACO, updates on ESD, GOAT, IRC, LR-CPCM, MBIS, meta-GGA TD-DFT gradient, ML-optimized integration grids, 
  MM, NACMEs, nearIR, NEB, NEB-TS, NL-DFT gradient (VV10), 2- and 3-layer-ONIOM, interface openCOSMO-RS, QMMM,   
  Crystal-QMMM, SF, symmetry and pop. for TD-DFT, r2SCAN hybrids, SOLVATOR                                   
                                                                         
[Other institutions]                                                     
  V. Asgeirsson          : NEB                                           
  Christoph Bannwarth    : sTDA-DFT, sTD-DFT, PBEh-3c, B97-3c, D3        
  Sebastian Ehlert       : rSCAN, r2SCAN, r2SCAN-3c, D4, dhf basis sets  
  Marvin Friede          : D4 for Fr, Ra, Ac-Lr                          
  Lars Goerigk           : TD-DFT with DH, B97 family of functionals     
  Stefan Grimme          : VdW corrections, initial TS optimization, DFT functionals, gCP, sTDA/sTD-DF 
  Waldemar Hujo          : DFT-NL                                        
  H. Jonsson             : NEB                                           
  Holger Kruse           : gCP                                           
  Marcel Mueller         : wB97X-3c, vDZP basis set                      
  Hagen Neugebauer       : wr2SCAN                                       
  Tobias Risthaus        : range-separated hybrid DFT                    
  Lukas Wittmann         : regularized MP2, r2SCAN double-hybrids, wr2SCAN        
                                                                         
We gratefully acknowledge several colleagues who have allowed us to      
interface, adapt or use parts of their codes:                            
  Ed Valeev, F. Pavosevic, A. Kumar             : LibInt (2-el integral package), F12 methods 
  Garnet Chan, S. Sharma, J. Yang, R. Olivares  : DMRG                   
  Ulf Ekstrom                                   : XCFun DFT Library      
  Mihaly Kallay                                 : mrcc  (arbitrary order and MRCC methods)
  Frank Weinhold                                : gennbo (NPA and NBO analysis)           
  Simon Mueller                                 : openCOSMO-RS                            
  Christopher J. Cramer and Donald G. Truhlar   : smd solvation model                     
  S Lehtola, MJT Oliveira, MAL Marques          : LibXC Library                           
  Liviu Ungur et al                             : ANISO software                          


 Your calculation uses the libint2 library for the computation of 2-el integrals
 For citations please refer to: http://libint.valeyev.net

 Your ORCA version has been built with support for libXC version: 6.2.2
 For citations please refer to: https://libxc.gitlab.io

 This ORCA versions uses:
   CBLAS   interface :  Fast vector & matrix operations
   LAPACKE interface :  Fast linear algebra routines
   SCALAPACK package :  Parallel linear algebra routines
   Shared memory     :  Shared parallel matrices
   BLAS/LAPACK       :  OpenBLAS 0.3.27  USE64BITINT DYNAMIC_ARCH NO_AFFINITY Zen SINGLE_THREADED
        Core in use  :  Zen
   Copyright (c) 2011-2014, The OpenBLAS Project




***************************************
The coordinates will be read from file: xtb_opt.xyz
***************************************


Your calculation utilizes the geometrical counterpoise correction gCP
Please cite in your paper:
H.Kruse, S. Grimme J.Chem.Phys., 136, (2012), 154101 
   

Your calculation utilizes the atom-pairwise dispersion correction
based on EEQ partial charges (D4)


================================================================================

----- Orbital basis set information -----
Your calculation utilizes the basis: def2-mTZVPP
   Stefan Grimme, Andreas Hansen, Sebastian Ehlert, and Jan-Michael Mewes 
   J. Chem. Phys. 154, 064103 (2021). DOI: 10.1063/5.0040021

----- AuxJ basis set information -----
Your calculation utilizes the auxiliary basis: def2/J
   F. Weigend, Phys. Chem. Chem. Phys. 8, 1057 (2006).

================================================================================
                                        WARNINGS
                       Please study these warnings very carefully!
================================================================================



WARNING: SCAN, rSCAN, or r2SCAN functional requested.
  ===> : libXC variant has now been activated.



================================================================================
                                       INPUT FILE
================================================================================
NAME = xtb_opt.inp
|  1> ! r2scan-3c def2/J RI DEFGRID2 scfconv7 ENGRAD tightSCF miniprint
|  2> * xyzfile 0 1 xtb_opt.xyz
|  3> 
|  4>                          ****END OF INPUT****
================================================================================

                     *******************************
                     * Energy+Gradient Calculation *
                     *******************************

---------------------------------
CARTESIAN COORDINATES (ANGSTROEM)
---------------------------------
  C     -1.856634   -2.173334   -0.000054
  C     -1.390009   -0.748291   -0.000022
  C     -2.301949    0.275693    0.000204
  C     -1.899360    1.618766    0.000116
  C     -0.572368    1.937464   -0.000135
  C      0.405086    0.920634   -0.000165
  C     -0.002058   -0.440871   -0.000156
  C      0.999555   -1.435881   -0.000113
  C      2.325967   -1.104396    0.000132
  C      2.723689    0.240187    0.000185
  C      1.781526    1.229048   -0.000062
  H     -1.491540   -2.698679    0.881872
  H     -2.943141   -2.216045    0.000885
  H     -1.492891   -2.698170   -0.882817
  H     -3.359091    0.049057    0.000433
  H     -2.650667    2.395149    0.000339
  H     -0.250015    2.968958   -0.000234
  H      0.713023   -2.476171   -0.000131
  H      3.078600   -1.879766    0.000321
  H      3.775983    0.484774    0.000334
  H      2.076143    2.269205   -0.000161

----------------------------
CARTESIAN COORDINATES (A.U.)
----------------------------
  NO LB      ZA    FRAG     MASS         X           Y           Z
   0 C     6.0000    0    12.011   -3.508529   -4.107006   -0.000102
   1 C     6.0000    0    12.011   -2.626737   -1.414066   -0.000041
   2 C     6.0000    0    12.011   -4.350053    0.520983    0.000385
   3 C     6.0000    0    12.011   -3.589271    3.059025    0.000219
   4 C     6.0000    0    12.011   -1.081618    3.661276   -0.000256
   5 C     6.0000    0    12.011    0.765501    1.739747   -0.000313
   6 C     6.0000    0    12.011   -0.003889   -0.833126   -0.000295
   7 C     6.0000    0    12.011    1.888885   -2.713422   -0.000214
   8 C     6.0000    0    12.011    4.395440   -2.087007    0.000249
   9 C     6.0000    0    12.011    5.147025    0.453887    0.000350
  10 C     6.0000    0    12.011    3.366597    2.322564   -0.000116
  11 H     1.0000    0     1.008   -2.818601   -5.099764    1.666497
  12 H     1.0000    0     1.008   -5.561731   -4.187718    0.001673
  13 H     1.0000    0     1.008   -2.821156   -5.098802   -1.668283
  14 H     1.0000    0     1.008   -6.347762    0.092704    0.000818
  15 H     1.0000    0     1.008   -5.009034    4.526176    0.000640
  16 H     1.0000    0     1.008   -0.472461    5.610517   -0.000442
  17 H     1.0000    0     1.008    1.347419   -4.679285   -0.000247
  18 H     1.0000    0     1.008    5.817712   -3.552243    0.000608
  19 H     1.0000    0     1.008    7.135573    0.916090    0.000632
  20 H     1.0000    0     1.008    3.923341    4.288176   -0.000304

------------------------------------------------------------------------------
                   ___                                                        
                  /   \      - P O W E R E D   B Y -                         
                 /     \                                                     
                 |  |  |   _    _      __       _____    __    __             
                 |  |  |  | |  | |    /  \     |  _  \  |  |  /  |          
                  \  \/   | |  | |   /    \    | | | |  |  | /  /          
                 / \  \   | |__| |  /  /\  \   | |_| |  |  |/  /          
                |  |  |   |  __  | /  /__\  \  |    /   |      \           
                |  |  |   | |  | | |   __   |  |    \   |  |\   \          
                \     /   | |  | | |  |  |  |  | |\  \  |  | \   \       
                 \___/    |_|  |_| |__|  |__|  |_| \__\ |__|  \__/        
                                                                              
                      - O R C A' S   B I G   F R I E N D -                    
                                      &                                       
                       - I N T E G R A L  F E E D E R -                       
                                                                              
 v1 FN, 2020, v2 2021, v3 2022-2024                                           
------------------------------------------------------------------------------


----------------------
SHARK INTEGRAL PACKAGE
----------------------

Number of atoms                             ...     21
Number of basis functions                   ...    259
Number of shells                            ...    129
Maximum angular momentum                    ...      2
Integral batch strategy                     ... SHARK/LIBINT Hybrid
RI-J (if used) integral strategy            ... SPLIT-RIJ (Revised 2003 algorithm where possible)
Printlevel                                  ...      1
Contraction scheme used                     ... SEGMENTED contraction
Prescreening option                         ... SCHWARTZ
   Thresh                                   ... 3.000e-11
   Tcut                                     ... 1.000e-12
   Tpresel                                  ... 1.000e-12 
Coulomb Range Separation                    ... NOT USED
Exchange Range Separation                   ... NOT USED
Multipole approximations                    ... NOT USED
Finite Nucleus Model                        ... NOT USED
CABS basis                                  ... NOT available
Auxiliary Coulomb fitting basis             ... AVAILABLE
   # of basis functions in Aux-J            ...    649
   # of shells in Aux-J                     ...    215
   Maximum angular momentum in Aux-J        ...      4
Auxiliary J/K fitting basis                 ... NOT available
Auxiliary Correlation fitting basis         ... NOT available
Auxiliary 'external' fitting basis          ... NOT available

Checking pre-screening integrals            ... done (  0.0 sec) Dimension = 129
Check shell pair data                       ... done (  0.0 sec)
Shell pair information
Shell pair cut-off parameter TPreSel        ...   1.0e-12
Total number of shell pairs                 ...      8385
Shell pairs after pre-screening             ...      7411
Total number of primitive shell pairs       ...     31148
Primitive shell pairs kept                  ...     19070
          la=0 lb=0:   2446 shell pairs
          la=1 lb=0:   2881 shell pairs
          la=1 lb=1:    871 shell pairs
          la=2 lb=0:    728 shell pairs
          la=2 lb=1:    423 shell pairs
          la=2 lb=2:     62 shell pairs

Calculating one electron integrals          ... done (  0.0 sec)
Calculating RI/J V-Matrix + Cholesky decomp.... done (  0.0 sec)
Calculating Nuclear repulsion               ... done (  0.0 sec) ENN=    551.652108426001 Eh

Diagonalization of the overlap matrix:
Smallest eigenvalue                        ... 1.554e-05
Time for diagonalization                   ...    0.006 sec
Threshold for overlap eigenvalues          ... 1.000e-07
Number of eigenvalues below threshold      ... 0
Time for construction of square roots      ...    0.005 sec
Total time needed                          ...    0.012 sec

-------------------
DFT GRID GENERATION
-------------------

General Integration Accuracy     IntAcc      ... 4.388
Radial Grid Type                 RadialGrid  ... OptM3 with GC (2021)
Angular Grid (max. ang.)         AngularGrid ... 4 (Lebedev-302)
Angular grid pruning method      GridPruning ... 4 (adaptive)
Weight generation scheme         WeightScheme... mBecke (2022)
Basis function cutoff            BFCut       ... 1.0000e-11
Integration weight cutoff        WCut        ... 1.0000e-14
Partially contracted basis set               ... off
Rotationally invariant grid construction     ... off
Angular grids for H and He will be reduced by one unit

Total number of grid points                  ...    97826
Total number of batches                      ...     1542
Average number of points per batch           ...       63
Average number of grid points per atom       ...     4658
Initializing property integral containers    ... done (  0.0 sec)

SHARK setup successfully completed in   1.1 seconds

Maximum memory used throughout the entire STARTUP-calculation: 45.9 MB
Occupation numbers will be reassigned to an Aufbau configuration
             **** ENERGY FILE WAS UPDATED (xtb_opt.en.tmp) ****
Finished Guess after   0.1 sec
Maximum memory used throughout the entire GUESS-calculation: 20.2 MB
----------------------------------------D-I-I-S--------------------------------------------
Iteration    Energy (Eh)           Delta-E    RMSDP     MaxDP     DIISErr   Damp  Time(sec)
-------------------------------------------------------------------------------------------
               ***  Starting incremental Fock matrix formation  ***
                              *** Initializing SOSCF ***
---------------------------------------S-O-S-C-F--------------------------------------
Iteration    Energy (Eh)           Delta-E    RMSDP     MaxDP     MaxGrad    Time(sec)
--------------------------------------------------------------------------------------
    1    -425.0832034326077746     0.00e+00  4.89e-06  1.50e-04  2.60e-05     2.8
               *** Restarting incremental Fock matrix formation ***
    2    -425.0832034358945748    -3.29e-09  5.54e-06  1.18e-04  3.24e-05     2.8
    3    -425.0832032807629730     1.55e-07  4.10e-06  8.68e-05  1.11e-04     2.0
    4    -425.0832034721020136    -1.91e-07  2.27e-06  7.70e-05  1.38e-05     2.0
                  *** Gradient check signals convergence ***

               *****************************************************
               *                     SUCCESS                       *
               *           SCF CONVERGED AFTER   4 CYCLES          *
               *****************************************************

             **** ENERGY FILE WAS UPDATED (xtb_opt.en.tmp) ****

----------------
TOTAL SCF ENERGY
----------------

Total Energy       :       -425.08320347210201 Eh          -11567.10203 eV

Components:
Nuclear Repulsion  :        551.65210842600106 Eh           15011.21703 eV
Electronic Energy  :       -976.73531189810308 Eh          -26578.31905 eV
One Electron Energy:      -1666.01273584523074 Eh          -45334.51130 eV
Two Electron Energy:        689.27742394712766 Eh           18756.19225 eV

Virial components:
Potential Energy   :       -848.46499465203203 Eh          -23087.90627 eV
Kinetic Energy     :        423.38179117993002 Eh           11520.80424 eV
Virial Ratio       :          2.00401862415346

DFT components:
N(Alpha)           :       38.000033841437 electrons
N(Beta)            :       38.000033841437 electrons
N(Total)           :       76.000067682873 electrons
E(X)               :      -60.895850081883 Eh       
E(C)               :       -2.444195952042 Eh       
E(XC)              :      -63.340046033924 Eh       

---------------
SCF CONVERGENCE
---------------

  Last Energy change         ...    1.9134e-07  Tolerance :   1.0000e-07
  Last MAX-Density change    ...    7.7043e-05  Tolerance :   1.0000e-07
  Last RMS-Density change    ...    2.2701e-06  Tolerance :   5.0000e-09
  Last DIIS Error            ...    8.3343e-05  Tolerance :   1.0000e-07
  Last Orbital Gradient      ...    1.3761e-05  Tolerance :   1.0000e-04
  Last Orbital Rotation      ...    7.0437e-05  Tolerance :   1.0000e-04


----------------
ORBITAL ENERGIES
----------------

  NO   OCC          E(Eh)            E(eV) 
   0   2.0000     -10.045473      -273.3512 
   1   2.0000     -10.043581      -273.2997 
   2   2.0000     -10.042885      -273.2808 
   3   2.0000     -10.035834      -273.0889 
   4   2.0000     -10.035701      -273.0853 
   5   2.0000     -10.035092      -273.0687 
   6   2.0000     -10.034887      -273.0631 
   7   2.0000     -10.033609      -273.0284 
   8   2.0000     -10.032384      -272.9951 
   9   2.0000     -10.031193      -272.9626 
  10   2.0000     -10.029618      -272.9198 
  11   2.0000      -0.847055       -23.0495 
  12   2.0000      -0.794788       -21.6273 
  13   2.0000      -0.757143       -20.6029 
  14   2.0000      -0.711487       -19.3605 
  15   2.0000      -0.704626       -19.1739 
  16   2.0000      -0.653721       -17.7886 
  17   2.0000      -0.592899       -16.1336 
  18   2.0000      -0.583192       -15.8695 
  19   2.0000      -0.547869       -14.9083 
  20   2.0000      -0.484147       -13.1743 
  21   2.0000      -0.475841       -12.9483 
  22   2.0000      -0.464639       -12.6435 
  23   2.0000      -0.420467       -11.4415 
  24   2.0000      -0.405906       -11.0453 
  25   2.0000      -0.399200       -10.8628 
  26   2.0000      -0.389388       -10.5958 
  27   2.0000      -0.380580       -10.3561 
  28   2.0000      -0.368466       -10.0265 
  29   2.0000      -0.358048        -9.7430 
  30   2.0000      -0.352725        -9.5981 
  31   2.0000      -0.336753        -9.1635 
  32   2.0000      -0.306240        -8.3332 
  33   2.0000      -0.303830        -8.2676 
  34   2.0000      -0.295890        -8.0516 
  35   2.0000      -0.260398        -7.0858 
  36   2.0000      -0.231400        -6.2967 
  37   2.0000      -0.199886        -5.4392 
  38   0.0000      -0.065666        -1.7869 
  39   0.0000      -0.035507        -0.9662 
  40   0.0000       0.002417         0.0658 
  41   0.0000       0.066056         1.7975 
  42   0.0000       0.076797         2.0897 
  43   0.0000       0.086409         2.3513 
  44   0.0000       0.101809         2.7704 
  45   0.0000       0.115922         3.1544 
  46   0.0000       0.128132         3.4867 
  47   0.0000       0.137290         3.7359 
  48   0.0000       0.148487         4.0405 
*Only the first 10 virtual orbitals were printed.
Total SCF time: 0 days 0 hours 0 min 10 sec 
Finished LeanSCF after  13.5 sec

Maximum memory used throughout the entire LEANSCF-calculation: 31.5 MB


-------------------------------------------------------------------------------
                          DFT DISPERSION CORRECTION                            
                                                                               
                                DFTD4 V3.4.0                                   
-------------------------------------------------------------------------------
-------------------------   ----------------
Dispersion correction           -0.008329582
-------------------------   ----------------

------------------   -----------------
gCP correction             0.005388358
------------------   -----------------

-------------------------   --------------------
FINAL SINGLE POINT ENERGY      -425.086144695594
-------------------------   --------------------

------------------------------------------------------------------------------
                         ORCA SCF GRADIENT CALCULATION
------------------------------------------------------------------------------

Nuc. rep. gradient        (SHARK) ... done (  0.0 sec)
HCore & Overlap gradient  (SHARK) ... done (  0.4 sec)
Split-RIJ-J gradient      (SHARK) ... done (  2.3 sec)
XC gradient                       ... done (  7.6 sec)
Dispersion correction             ... done (  0.0 sec)

-------------------
DISPERSION GRADIENT
-------------------

   1   C   :   -0.000077467   -0.000111495   -0.000000002
   2   C   :   -0.000091803   -0.000049169   -0.000000003
   3   C   :   -0.000123526    0.000023502    0.000000013
   4   C   :   -0.000097870    0.000100819    0.000000008
   5   C   :   -0.000038610    0.000127705   -0.000000010
   6   C   :    0.000030819    0.000069584   -0.000000012
   7   C   :    0.000004428   -0.000023783   -0.000000011
   8   C   :    0.000074182   -0.000093958   -0.000000006
   9   C   :    0.000127356   -0.000056194    0.000000008
  10   C   :    0.000130024    0.000008315    0.000000010
  11   C   :    0.000104815    0.000071496   -0.000000006
  12   H   :   -0.000028226   -0.000046927    0.000013233
  13   H   :   -0.000034201   -0.000035145    0.000000011
  14   H   :   -0.000028232   -0.000046916   -0.000013248
  15   H   :   -0.000048539    0.000004622    0.000000009
  16   H   :   -0.000033699    0.000035916    0.000000006
  17   H   :   -0.000007447    0.000054365   -0.000000005
  18   H   :    0.000018008   -0.000051381   -0.000000004
  19   H   :    0.000040181   -0.000027327    0.000000006
  20   H   :    0.000043946    0.000006138    0.000000006
  21   H   :    0.000035859    0.000039831   -0.000000003

Difference to translation invariance:
           :   -0.0000000000    0.0000000000    0.0000000000

Difference to rotation invariance:
           :   -0.0000000000   -0.0000000000   -0.0000000000

Norm of the Dispersion gradient    ...    0.0004272265
RMS gradient                       ...    0.0000538255
MAX gradient                       ...    0.0001300240
gCP correction                   ... done

------------------
CARTESIAN GRADIENT
------------------

   1   C   :   -0.000875172   -0.003715199   -0.000026313
   2   C   :    0.001500992    0.004994788   -0.000002870
   3   C   :    0.002200822   -0.000858585    0.000003077
   4   C   :    0.001972582   -0.002192169   -0.000003156
   5   C   :   -0.001790597   -0.002082051   -0.000000580
   6   C   :   -0.000993945   -0.004207634    0.000001277
   7   C   :    0.000790018    0.002277105   -0.000001197
   8   C   :    0.003186136    0.002383817   -0.000006550
   9   C   :   -0.003563307    0.001809639   -0.000001347
  10   C   :   -0.003477978    0.000168623    0.000008387
  11   C   :    0.001211167   -0.002831237    0.000002796
  12   H   :   -0.000968148    0.003431960   -0.002452656
  13   H   :    0.002868701    0.000932371    0.000009908
  14   H   :   -0.000962981    0.003439515    0.002468535
  15   H   :    0.003361083    0.001562244    0.000000056
  16   H   :    0.002049563   -0.002942898    0.000004348
  17   H   :   -0.001051822   -0.003745394   -0.000002596
  18   H   :    0.001020294    0.003669048    0.000001994
  19   H   :   -0.001994802    0.002854402    0.000002204
  20   H   :   -0.003282160   -0.001315414   -0.000001320
  21   H   :   -0.001200447   -0.003632932   -0.000003997

Difference to translation invariance:
           :   -0.0000000000    0.0000000000    0.0000000000

Difference to rotation invariance:
           :   -0.0000002679    0.0000011533   -0.0011380632

Norm of the Cartesian gradient     ...    0.0168431128
RMS gradient                       ...    0.0021220327
MAX gradient                       ...    0.0049947882

-------
TIMINGS
-------

Total SCF gradient time     ....       10.342 sec

Densities                   ....       0.001 sec  (  0.0%)
One electron gradient       ....       0.377 sec  (  3.6%)
RI-J Coulomb gradient       ....       2.340 sec  ( 22.6%)
XC gradient                 ....       7.591 sec  ( 73.4%)

Maximum memory used throughout the entire SCFGRAD-calculation: 40.5 MB

------------------------------------------------------------------------------
                              ORCA PROPERTY CALCULATIONS
------------------------------------------------------------------------------

GBWName                                 ... xtb_opt.gbw
Number of atoms                         ...     21
Number of basis functions               ...    259
Max core memory                         ...   1024 MB

Electric properties:
Dipole moment                           ... YES
Quadrupole moment                       ...  NO
Static polarizability (Dipole/Dipole)   ...  NO
Static polarizability (Dipole/Quad.)    ...  NO
Static polarizability (Quad./Quad.)     ...  NO
Static polarizability (Velocity)        ...  NO

Atomic electric properties:
Dipole moment                           ...  NO
Quadrupole moment                       ...  NO
Static polarizability                   ...  NO

Choice of electric origin               ... Center of mass
Position of electric origin             ...    -0.000003    -0.000005     0.000000

General magnetic properties:
Magnetizability                         ...  NO

EPR properties:
g-Tensor (aka g-matrix)                 ...  NO
Zero-Field splitting spin-orbit         ...  NO
Zero-field splitting spin-spin          ...  NO
Hyperfine couplings                     ...  NO (   0 nuclei)
Quadrupole couplings                    ...  NO (   0 nuclei)
Contact density                         ...  NO (   0 nuclei)

NMR properties:
Chemical shifts                         ...  NO (   0 nuclei)
Spin-rotation constants                 ...  NO (   0 nuclei)
Spin-spin couplings                     ...  NO (   0 nuclei,    0 pairs)

Choice of magnetic origin               ... GIAO
Position of magnetic origin             ...     0.000000     0.000000     0.000000

Properties with geometric perturbations:
SCF Hessian                             ...  NO
IR spectrum                             ...  NO
VCD spectrum                            ...  NO
X-ray spectroscopy properties:
SCF XES/XAS/RIXS spectra                ...  NO


-------------
DIPOLE MOMENT
-------------

Method             : SCF
Type of density    : Electron Density
Multiplicity       :   1
Irrep              :   0
Energy             :  -425.0832034721020136 Eh
Relativity type    : 
Basis              : AO
                                X                 Y                 Z
Electronic contribution:      2.329648904       3.419245806      -0.000683032
Nuclear contribution   :     -2.386325185      -3.566628557       0.000789719
                        -----------------------------------------
Total Dipole Moment    :     -0.056676281      -0.147382752       0.000106687
                        -----------------------------------------
Magnitude (a.u.)       :      0.157904679
Magnitude (Debye)      :      0.401361798



--------------------
Rotational spectrum 
--------------------
 
Rotational constants in cm-1:             0.064162             0.037986             0.023966 
Rotational constants in MHz :          1923.537160          1138.781711           718.496242 

Dipole components along the rotational axes: 
x,y,z [a.u.] :    -0.056677     0.147383     0.000107 
x,y,z [Debye]:    -0.144061     0.374617     0.000271 

 

Dipole moment calculation done in   0.8 sec 

Maximum memory used throughout the entire PROP-calculation: 19.3 MB

--------------------------------
SUGGESTED CITATIONS FOR THIS RUN
--------------------------------

Below you find a list of papers that are relevant to this ORCA run
We neither can nor want to force you to cite these papers, but we appreciate if you do
You receive ORCA, which is the product of decades of hard work by many enthusiastic individuals, for free
The only thing we kindly ask in return is that you cite our papers,
We deeply appreciate it, if you show your appreciation for ORCA by not just citing the generic ORCA reference.

Please note that relegating all ORCA citations to the supporting information does *not* help us.
SI sections are not indexed - citations you put there will not count into any citation statistics
But we need these citations in order to attract the funding resources that allow us to do what we are doing

Therefore, if you are a happy ORCA user, please consider citing a few of the papers listed below in the main body of your paper

In addition to the list printed below, the program has created the file xtb_opt.bibtex that contains the list in bibtex format
You can import this file easily into all common literature databanks and citation aid programs


List of essential papers. We consider these as the minimum necessary citations

  1. Neese,F.
     Software update: the ORCA program system, version 5.0
     WIRES Comput. Molec. Sci., 2022 12(1)e1606
     doi.org/10.1002/wcms.1606
  2. Grimme,S.; Hansen,A.; Ehlert,S.; Mewes,J.
     r2SCAN-3c: A 'Swiss army knife' composite electronic-structure method
     J. Chem. Phys., 2021 154 064103
     doi.org/10.1063/5.0040021

List of papers to cite with high priority. The work reported in these papers was absolutely
necessary for this run to complete.
Our perspective: the developers of density functionals and basis sets usually get cited in chemistry papers
Good! But without the algorithms to do something with them, the functionals or basis sets would not do anything.
Hence, in our opinion, the algorithm design and method developments papers are equally worthy of getting cited

  1. Neese,F.
     An improvement of the resolution of the identity approximation for the formation of the Coulomb matrix
     J. Comp. Chem., 2003 24(14)1740-1747
     doi.org/10.1002/jcc.10318
  2. Neese,F.
     The SHARK Integral Generation and Digestion System
     J. Comp. Chem., 2022  1-16
     doi.org/10.1002/jcc.26942
  3. Lehtola,S.; Steigemann,C.; Oliveira,M.; Marques,M.
     Recent developments in Libxc - A comprehensive library of functionals for density functional theory
     Software X, 2018 7 
     doi.org/10.1016/j.softx.2017.11.002
  4. Caldeweyher,E.; Bannwarth,C.; Grimme,S.
     Extension of the D3 dispersion coefficient model
     J. Chem. Phys., 2017 147 034112
     doi.org/10.1063/1.4993215
  5. Caldeweyher,E.; Ehlert,S.; Hansen,A.; Neugebauer,H.; Spicher,S.; Bannwarth,C.; Grimme,S.
     A generally applicable atomic-charge dependent London dispersion correction
     J. Chem. Phys., 2019 150 154122
     doi.org/10.1063/1.5090222
  6. Caldeweyher,E.; Mewes,J.; Ehlert,S.; Grimme,S.
     Extension and evaluation of the D4 London-dispersion model for periodic systems
     Phys. Chem. Chem. Phys., 2020 22(16)8499-8512
     doi.org/10.1039/D0CP00502A
  7. Wittmann,L.; Gordiy,I.; Friede,M.; Helmich-Paris,B.; Grimme,S.; Hansen,A.; Bursch,M.
     Extension of the D3 and D4 London Dispersion Corrections to the full Actinides Series
     Phys. Chem. Chem. Phys., 2024 26(32)21379-21394
     doi.org/https://doi.org/10.1039/D4CP01514B 

List of suggested additional citations. These are papers that are important in the 'surrounding' of 
of this run, or papers that preceded the highly important papers. If you like your results we are grateful for a citation.

  1. Neese,F.
     The ORCA program system
     WIRES Comput. Molec. Sci., 2012 2(1)73-78
     doi.org/10.1002/wcms.81
  2. Neese,F.
     Software update: the ORCA program system, version 4.0
     WIRES Comput. Molec. Sci., 2018 8(1)1-6
     doi.org/10.1002/wcms.1327
  3. Neese,F.; Wennmohs,F.; Becker,U.; Riplinger,C.
     The ORCA quantum chemistry program package
     J. Chem. Phys., 2020 152 Art. No. L224108
     doi.org/10.1063/5.0004608

List of optional additional citations

  1. Neese,F.
     Approximate second-order SCF convergence for spin unrestricted wavefunctions
     Chem. Phys. Lett., 2000 325(1-3)93-98
     doi.org/10.1016/s0009-2614(00)00662-x

Timings for individual modules:

Sum of individual times          ...       26.766 sec (=   0.446 min)
Startup calculation              ...        1.094 sec (=   0.018 min)   4.1 %
SCF iterations                   ...       13.675 sec (=   0.228 min)  51.1 %
Property calculations            ...        0.896 sec (=   0.015 min)   3.3 %
SCF Gradient evaluation          ...       11.100 sec (=   0.185 min)  41.5 %
                             ****ORCA TERMINATED NORMALLY****
TOTAL RUN TIME: 0 days 0 hours 0 minutes 30 seconds 126 msec
  ------------------------------------------------------------------------
          * successful ORCA run, taking over control again...

         :::::::::::::::::::::::::::::::::::::::::::::::::::::
         ::                  ORCA SUMMARY                   ::
         :::::::::::::::::::::::::::::::::::::::::::::::::::::
         :: total energy            -425.086144695594 Eh    ::
         :: gradient norm              0.016843112756 Eh/a0 ::
         :: HOMO-LUMO gap              0.000000000000 eV    ::
         :::::::::::::::::::::::::::::::::::::::::::::::::::::

      ----------------------------------------------------------- 
     |                       L-ANC optimizer                     |
      ----------------------------------------------------------- 
          low memory version by Sebastian Ehlert

          ...................................................
          :                      SETUP                      :
          :.................................................:
          :   energy convergence        0.5000000E-05 Eh    :
          :   grad. convergence         0.1000000E-02 Eh/a0 :
          :   optimization log               true           :
          :   writing optlog all                1     steps :
          :   Hessian reset                    20     steps :
          :   maximium step len.        1.0000000     a0    :
          :   LBFGS images                     20           :
          ...................................................
 * calculating model hessian...
Using Lindh-Hessian (1995)
 Shifting diagonal of input Hessian by   1.000000000000000E-002
 Lowest  eigenvalues of input Hessian
    0.000000    0.000000    0.000000    0.000000    0.000000    0.000000
    0.012978    0.015839    0.018596    0.020616    0.021256    0.026853
    0.030937    0.032773    0.043502    0.043613    0.053416    0.057245
 Highest eigenvalues
    1.775182    1.820256    1.892644    1.975856    2.035702    2.106146
 

........................................................................
.............................. CYCLE    1 ..............................
........................................................................
                         * ORCA takes the control...
  ------------------------------------------------------------------------

                                 *****************
                                 * O   R   C   A *
                                 *****************

                                            #,                                       
                                            ###                                      
                                            ####                                     
                                            #####                                    
                                            ######                                   
                                           ########,                                 
                                     ,,################,,,,,                         
                               ,,#################################,,                 
                          ,,##########################################,,             
                       ,#########################################, ''#####,          
                    ,#############################################,,   '####,        
                  ,##################################################,,,,####,       
                ,###########''''           ''''###############################       
              ,#####''   ,,,,##########,,,,          '''####'''          '####       
            ,##' ,,,,###########################,,,                        '##       
           ' ,,###''''                  '''############,,,                           
         ,,##''                                '''############,,,,        ,,,,,,###''
      ,#''                                            '''#######################'''  
     '                                                          ''''####''''         
             ,#######,   #######,   ,#######,      ##                                
            ,#'     '#,  ##    ##  ,#'     '#,    #''#        ,####,   ,####,        
            ##       ##  ##   ,#'  ##            #'  '#       #'       #'  '#        
            ##       ##  #######   ##           ,######,      #####,   #    #        
            '#,     ,#'  ##    ##  '#,     ,#' ,#      #,     #,   #   #,  ,#        
             '#######'   ##     ##  '#######'  #'      '#     '####' # '####'        



                #########################################################
                #                        -***-                          #
                #          Department of theory and spectroscopy        #
                #                                                       #
                #                      Frank Neese                      #
                #                                                       #
                #     Directorship, Architecture, Infrastructure        #
                #                    SHARK, DRIVERS                     #
                #        Core code/Algorithms in most modules           #
                #                                                       #
                #        Max Planck Institute fuer Kohlenforschung      #
                #                Kaiser Wilhelm Platz 1                 #
                #                 D-45470 Muelheim/Ruhr                 #
                #                      Germany                          #
                #                                                       #
                #                  All rights reserved                  #
                #                        -***-                          #
                #########################################################


                         Program Version 6.0.1  -  RELEASE   -


 With contributions from (in alphabetic order):
[Max-Planck-Institut fuer Kohlenforschung]                               
  Daniel Aravena         : Magnetic Suceptibility                        
  Michael Atanasov       : Ab Initio Ligand Field Theory (pilot matlab implementation)
  Alexander A. Auer      : GIAO ZORA, VPT2 properties, NMR spectrum      
  Ute Becker             : All parallelization in ORCA, NUMFREQ, NUMCALC 
  Giovanni Bistoni       : ED, misc. LED, open-shell LED, HFLD           
  Martin Brehm           : Molecular dynamics                            
  Dmytro Bykov           : pre 5.0 version of the SCF Hessian            
  Marcos Casanova-Páez   : Triplet and SCS-CIS(D). UHF-(DLPNO)-IP/EA/STEOM-CCSD. UHF-CVS-IP/STEOM-CCSD   
  Vijay G. Chilkuri      : MRCI spin determinant printing, contributions to CSF-ICE 
  Pauline Colinet        : FMM embedding                                 
  Dipayan Datta          : RHF DLPNO-CCSD density                        
  Achintya Kumar Dutta   : EOM-CC, STEOM-CC                              
  Nicolas Foglia         : Exact transition moments, OPA infrastructure, MCD improvements    
  Dmitry Ganyushin       : Spin-Orbit,Spin-Spin,Magnetic field MRCI      
  Miquel Garcia-Rates    : C-PCM and meta-GGA Hessian, CCSD/C-PCM, Gaussian charge scheme 
  Tiago L. C. Gouveia    : GS-ROHF, GS-ROCIS                             
  Yang Guo               : DLPNO-NEVPT2, F12-NEVPT2, CIM, IAO-localization        
  Andreas Hansen         : Spin unrestricted coupled pair/coupled cluster methods 
  Ingolf Harden          : AUTO-CI MPn and infrastructure                
  Benjamin Helmich-Paris : MC-RPA, TRAH-(SCF,CASSCF), AVAS, COSX integrals, SCF dyn. polar. 
  Lee Huntington         : MR-EOM, pCC                                   
  Robert Izsak           : Overlap fitted RIJCOSX, COSX-SCS-MP3, EOM     
  Riya Kayal             : Wick's Theorem for AUTO-CI, AUTO-CI UHF-CCSDT 
  Emily Kempfer          : AUTO-CI, RHF CISDT and CCSDT                  
  Christian Kollmar      : KDIIS, OOCD, Brueckner-CCSD(T), CCSD density, CASPT2, CASPT2-K, improved NEVPT2 
  Axel Koslowski         : Symmetry handling                             
  Simone Kossmann        : meta-GGA functionals, TD-DFT gradient, OOMP2, (MP2 Hessian; deprecated post 5.0) 
  Lucas Lang             : DCDCAS                                        
  Marvin Lechner         : AUTO-CI (C++ implementation), FIC-MRCC        
  Spencer Leger          : CASSCF response                               
  Dagmar Lenk            : GEPOL surface, SMD, ORCA-2-JSON               
  Dimitrios Liakos       : Extrapolation schemes; Compound Job, initial MDCI parallelization 
  Dimitrios Manganas     : Further ROCIS development; embedding schemes. LFT, Crystal Embedding 
  Dimitrios Pantazis     : SARC Basis sets                               
  Anastasios Papadopoulos: AUTO-CI, single reference methods and gradients 
  Taras Petrenko         : pre 6.0 DFT Hessian and TD-DFT gradient, (ASA, deprecated), ECA, 1-Electron XAS/XES, NRVS 
  Peter Pinski           : DLPNO-MP2, DLPNO-MP2 Gradient                 
  Christoph Reimann      : Effective Core Potentials                     
  Marius Retegan         : Local ZFS, SOC                                
  Christoph Riplinger    : Optimizer, TS searches, QM/MM, DLPNO-CCSD(T), (RO)-DLPNO pert. Triples 
  Michael Roemelt        : Original ROCIS implementation                 
  Masaaki Saitow         : Open-shell DLPNO-CCSD energy and density      
  Barbara Sandhoefer     : DKH picture change effects                    
  Kantharuban Sivalingam : CASSCF convergence/infrastructure, NEVPT2 and variants, FIC-MRCI 
  Bernardo de Souza      : ESD, SOC TD-DFT                               
  Georgi L. Stoychev     : AutoAux, RI-MP2 NMR, DLPNO-MP2 response, X2C  
  Van Anh Tran           : RI-MP2 g-tensors                              
  Willem Van den Heuvel  : Paramagnetic NMR                              
  Zikuan Wang            : NOTCH, Electric field optimization            
  Frank Wennmohs         : Technical directorship and infrastructure     
  Hang Xu                : AUTO-CI-Response properties                   
                                                                         
[FACCTs GmbH]                                                            
  Markus Bursch, Miquel Garcia-Rates, Christoph Riplinger, Bernardo de Souza, Georgi L. Stoychev 
                                                                 
  APM, Basis sets (HGBS, AHGBS, def-TZVP (Ac-Lr), def2-XVPD (La-Lu)), CI-OPT, improved COSX, DLPNO-Multilevel,           
  DOCKER, DRACO, updates on ESD, GOAT, IRC, LR-CPCM, MBIS, meta-GGA TD-DFT gradient, ML-optimized integration grids, 
  MM, NACMEs, nearIR, NEB, NEB-TS, NL-DFT gradient (VV10), 2- and 3-layer-ONIOM, interface openCOSMO-RS, QMMM,   
  Crystal-QMMM, SF, symmetry and pop. for TD-DFT, r2SCAN hybrids, SOLVATOR                                   
                                                                         
[Other institutions]                                                     
  V. Asgeirsson          : NEB                                           
  Christoph Bannwarth    : sTDA-DFT, sTD-DFT, PBEh-3c, B97-3c, D3        
  Sebastian Ehlert       : rSCAN, r2SCAN, r2SCAN-3c, D4, dhf basis sets  
  Marvin Friede          : D4 for Fr, Ra, Ac-Lr                          
  Lars Goerigk           : TD-DFT with DH, B97 family of functionals     
  Stefan Grimme          : VdW corrections, initial TS optimization, DFT functionals, gCP, sTDA/sTD-DF 
  Waldemar Hujo          : DFT-NL                                        
  H. Jonsson             : NEB                                           
  Holger Kruse           : gCP                                           
  Marcel Mueller         : wB97X-3c, vDZP basis set                      
  Hagen Neugebauer       : wr2SCAN                                       
  Tobias Risthaus        : range-separated hybrid DFT                    
  Lukas Wittmann         : regularized MP2, r2SCAN double-hybrids, wr2SCAN        
                                                                         
We gratefully acknowledge several colleagues who have allowed us to      
interface, adapt or use parts of their codes:                            
  Ed Valeev, F. Pavosevic, A. Kumar             : LibInt (2-el integral package), F12 methods 
  Garnet Chan, S. Sharma, J. Yang, R. Olivares  : DMRG                   
  Ulf Ekstrom                                   : XCFun DFT Library      
  Mihaly Kallay                                 : mrcc  (arbitrary order and MRCC methods)
  Frank Weinhold                                : gennbo (NPA and NBO analysis)           
  Simon Mueller                                 : openCOSMO-RS                            
  Christopher J. Cramer and Donald G. Truhlar   : smd solvation model                     
  S Lehtola, MJT Oliveira, MAL Marques          : LibXC Library                           
  Liviu Ungur et al                             : ANISO software                          


 Your calculation uses the libint2 library for the computation of 2-el integrals
 For citations please refer to: http://libint.valeyev.net

 Your ORCA version has been built with support for libXC version: 6.2.2
 For citations please refer to: https://libxc.gitlab.io

 This ORCA versions uses:
   CBLAS   interface :  Fast vector & matrix operations
   LAPACKE interface :  Fast linear algebra routines
   SCALAPACK package :  Parallel linear algebra routines
   Shared memory     :  Shared parallel matrices
   BLAS/LAPACK       :  OpenBLAS 0.3.27  USE64BITINT DYNAMIC_ARCH NO_AFFINITY Zen SINGLE_THREADED
        Core in use  :  Zen
   Copyright (c) 2011-2014, The OpenBLAS Project




***************************************
The coordinates will be read from file: xtb_opt.xyz
***************************************


Your calculation utilizes the geometrical counterpoise correction gCP
Please cite in your paper:
H.Kruse, S. Grimme J.Chem.Phys., 136, (2012), 154101 
   

Your calculation utilizes the atom-pairwise dispersion correction
based on EEQ partial charges (D4)


================================================================================

----- Orbital basis set information -----
Your calculation utilizes the basis: def2-mTZVPP
   Stefan Grimme, Andreas Hansen, Sebastian Ehlert, and Jan-Michael Mewes 
   J. Chem. Phys. 154, 064103 (2021). DOI: 10.1063/5.0040021

----- AuxJ basis set information -----
Your calculation utilizes the auxiliary basis: def2/J
   F. Weigend, Phys. Chem. Chem. Phys. 8, 1057 (2006).

================================================================================
                                        WARNINGS
                       Please study these warnings very carefully!
================================================================================

WARNING: Old DensityContainer found on disk!
         Will remove this file - 
         If you want to keep old densities, please start your calculation with a different basename. 



WARNING: SCAN, rSCAN, or r2SCAN functional requested.
  ===> : libXC variant has now been activated.



================================================================================
                                       INPUT FILE
================================================================================
NAME = xtb_opt.inp
|  1> ! r2scan-3c def2/J RI DEFGRID2 scfconv7 ENGRAD tightSCF miniprint
|  2> * xyzfile 0 1 xtb_opt.xyz
|  3> 
|  4>                          ****END OF INPUT****
================================================================================

                     *******************************
                     * Energy+Gradient Calculation *
                     *******************************

---------------------------------
CARTESIAN COORDINATES (ANGSTROEM)
---------------------------------
  C     -1.857935   -2.180031   -0.000016
  C     -1.395096   -0.750698    0.000023
  C     -2.308523    0.278896    0.000182
  C     -1.904058    1.627768    0.000114
  C     -0.572634    1.948681   -0.000090
  C      0.406652    0.928442   -0.000131
  C     -0.003515   -0.439977   -0.000096
  C      0.998853   -1.440007   -0.000051
  C      2.331319   -1.108740    0.000107
  C      2.731723    0.241062    0.000107
  C      1.787227    1.235478   -0.000068
  H     -1.493242   -2.715092    0.882035
  H     -2.947695   -2.228145    0.000789
  H     -1.494511   -2.714599   -0.882888
  H     -3.368890    0.048221    0.000376
  H     -2.656585    2.408276    0.000242
  H     -0.249147    2.984230   -0.000168
  H      0.709703   -2.483967   -0.000110
  H      3.083942   -1.889363    0.000242
  H      3.787432    0.487751    0.000271
  H      2.084830    2.279143   -0.000098

----------------------------
CARTESIAN COORDINATES (A.U.)
----------------------------
  NO LB      ZA    FRAG     MASS         X           Y           Z
   0 C     6.0000    0    12.011   -3.510988   -4.119662   -0.000031
   1 C     6.0000    0    12.011   -2.636349   -1.418613    0.000044
   2 C     6.0000    0    12.011   -4.362477    0.527037    0.000344
   3 C     6.0000    0    12.011   -3.598148    3.076036    0.000216
   4 C     6.0000    0    12.011   -1.082121    3.682474   -0.000171
   5 C     6.0000    0    12.011    0.768462    1.754501   -0.000248
   6 C     6.0000    0    12.011   -0.006643   -0.831436   -0.000181
   7 C     6.0000    0    12.011    1.887559   -2.721218   -0.000096
   8 C     6.0000    0    12.011    4.405554   -2.095216    0.000202
   9 C     6.0000    0    12.011    5.162209    0.455540    0.000201
  10 C     6.0000    0    12.011    3.377370    2.334715   -0.000129
  11 H     1.0000    0     1.008   -2.821819   -5.130779    1.666805
  12 H     1.0000    0     1.008   -5.570336   -4.210583    0.001491
  13 H     1.0000    0     1.008   -2.824217   -5.129848   -1.668416
  14 H     1.0000    0     1.008   -6.366279    0.091125    0.000711
  15 H     1.0000    0     1.008   -5.020218    4.550982    0.000457
  16 H     1.0000    0     1.008   -0.470820    5.639377   -0.000317
  17 H     1.0000    0     1.008    1.341145   -4.694018   -0.000209
  18 H     1.0000    0     1.008    5.827805   -3.570379    0.000458
  19 H     1.0000    0     1.008    7.157210    0.921716    0.000512
  20 H     1.0000    0     1.008    3.939757    4.306956   -0.000185

------------------------------------------------------------------------------
                   ___                                                        
                  /   \      - P O W E R E D   B Y -                         
                 /     \                                                     
                 |  |  |   _    _      __       _____    __    __             
                 |  |  |  | |  | |    /  \     |  _  \  |  |  /  |          
                  \  \/   | |  | |   /    \    | | | |  |  | /  /          
                 / \  \   | |__| |  /  /\  \   | |_| |  |  |/  /          
                |  |  |   |  __  | /  /__\  \  |    /   |      \           
                |  |  |   | |  | | |   __   |  |    \   |  |\   \          
                \     /   | |  | | |  |  |  |  | |\  \  |  | \   \       
                 \___/    |_|  |_| |__|  |__|  |_| \__\ |__|  \__/        
                                                                              
                      - O R C A' S   B I G   F R I E N D -                    
                                      &                                       
                       - I N T E G R A L  F E E D E R -                       
                                                                              
 v1 FN, 2020, v2 2021, v3 2022-2024                                           
------------------------------------------------------------------------------


----------------------
SHARK INTEGRAL PACKAGE
----------------------

Number of atoms                             ...     21
Number of basis functions                   ...    259
Number of shells                            ...    129
Maximum angular momentum                    ...      2
Integral batch strategy                     ... SHARK/LIBINT Hybrid
RI-J (if used) integral strategy            ... SPLIT-RIJ (Revised 2003 algorithm where possible)
Printlevel                                  ...      1
Contraction scheme used                     ... SEGMENTED contraction
Prescreening option                         ... SCHWARTZ
   Thresh                                   ... 3.000e-11
   Tcut                                     ... 1.000e-12
   Tpresel                                  ... 1.000e-12 
Coulomb Range Separation                    ... NOT USED
Exchange Range Separation                   ... NOT USED
Multipole approximations                    ... NOT USED
Finite Nucleus Model                        ... NOT USED
CABS basis                                  ... NOT available
Auxiliary Coulomb fitting basis             ... AVAILABLE
   # of basis functions in Aux-J            ...    649
   # of shells in Aux-J                     ...    215
   Maximum angular momentum in Aux-J        ...      4
Auxiliary J/K fitting basis                 ... NOT available
Auxiliary Correlation fitting basis         ... NOT available
Auxiliary 'external' fitting basis          ... NOT available

Checking pre-screening integrals            ... done (  0.0 sec) Dimension = 129
Check shell pair data                       ... done (  0.0 sec)
Shell pair information
Shell pair cut-off parameter TPreSel        ...   1.0e-12
Total number of shell pairs                 ...      8385
Shell pairs after pre-screening             ...      7405
Total number of primitive shell pairs       ...     31148
Primitive shell pairs kept                  ...     19055
          la=0 lb=0:   2446 shell pairs
          la=1 lb=0:   2881 shell pairs
          la=1 lb=1:    869 shell pairs
          la=2 lb=0:    724 shell pairs
          la=2 lb=1:    423 shell pairs
          la=2 lb=2:     62 shell pairs

Calculating one electron integrals          ... done (  0.0 sec)
Calculating RI/J V-Matrix + Cholesky decomp.... done (  0.0 sec)
Calculating Nuclear repulsion               ... done (  0.0 sec) ENN=    549.729946768787 Eh

Diagonalization of the overlap matrix:
Smallest eigenvalue                        ... 1.611e-05
Time for diagonalization                   ...    0.006 sec
Threshold for overlap eigenvalues          ... 1.000e-07
Number of eigenvalues below threshold      ... 0
Time for construction of square roots      ...    0.005 sec
Total time needed                          ...    0.012 sec

-------------------
DFT GRID GENERATION
-------------------

General Integration Accuracy     IntAcc      ... 4.388
Radial Grid Type                 RadialGrid  ... OptM3 with GC (2021)
Angular Grid (max. ang.)         AngularGrid ... 4 (Lebedev-302)
Angular grid pruning method      GridPruning ... 4 (adaptive)
Weight generation scheme         WeightScheme... mBecke (2022)
Basis function cutoff            BFCut       ... 1.0000e-11
Integration weight cutoff        WCut        ... 1.0000e-14
Partially contracted basis set               ... off
Rotationally invariant grid construction     ... off
Angular grids for H and He will be reduced by one unit

Total number of grid points                  ...    97844
Total number of batches                      ...     1540
Average number of points per batch           ...       63
Average number of grid points per atom       ...     4659
Initializing property integral containers    ... done (  0.0 sec)

SHARK setup successfully completed in   1.1 seconds

Maximum memory used throughout the entire STARTUP-calculation: 45.9 MB
Occupation numbers will be reassigned to an Aufbau configuration
             **** ENERGY FILE WAS UPDATED (xtb_opt.en.tmp) ****
Finished Guess after   0.1 sec
Maximum memory used throughout the entire GUESS-calculation: 20.2 MB
----------------------------------------D-I-I-S--------------------------------------------
Iteration    Energy (Eh)           Delta-E    RMSDP     MaxDP     DIISErr   Damp  Time(sec)
-------------------------------------------------------------------------------------------
               ***  Starting incremental Fock matrix formation  ***
                              *** Initializing SOSCF ***
---------------------------------------S-O-S-C-F--------------------------------------
Iteration    Energy (Eh)           Delta-E    RMSDP     MaxDP     MaxGrad    Time(sec)
--------------------------------------------------------------------------------------
    1    -425.0837958851953999     0.00e+00  2.22e-04  9.08e-03  3.19e-04     2.8
               *** Restarting incremental Fock matrix formation ***
    2    -425.0838881052133047    -9.22e-05  8.25e-05  1.72e-03  3.19e-04     2.7
    3    -425.0838869464790832     1.16e-06  5.11e-05  1.13e-03  3.86e-04     2.2
    4    -425.0838963808910194    -9.43e-06  1.84e-05  3.24e-04  1.45e-04     2.1
    5    -425.0838949714338924     1.41e-06  1.29e-05  2.13e-04  3.21e-04     2.1
    6    -425.0838967692787946    -1.80e-06  4.48e-06  7.50e-05  2.89e-05     2.1
    7    -425.0838966949897895     7.43e-08  2.87e-06  6.11e-05  5.17e-05     2.0
                 **** Energy Check signals convergence ****

               *****************************************************
               *                     SUCCESS                       *
               *           SCF CONVERGED AFTER   7 CYCLES          *
               *****************************************************

             **** ENERGY FILE WAS UPDATED (xtb_opt.en.tmp) ****

----------------
TOTAL SCF ENERGY
----------------

Total Energy       :       -425.08389669498979 Eh          -11567.12089 eV

Components:
Nuclear Repulsion  :        549.72994676878750 Eh           14958.91235 eV
Electronic Energy  :       -974.81384346377729 Eh          -26526.03324 eV
One Electron Energy:      -1662.19848002490903 Eh          -45230.72013 eV
Two Electron Energy:        687.38463656113174 Eh           18704.68689 eV

Virial components:
Potential Energy   :       -848.26083665936449 Eh          -23082.35085 eV
Kinetic Energy     :        423.17693996437475 Eh           11515.22996 eV
Virial Ratio       :          2.00450628697012

DFT components:
N(Alpha)           :       38.000027710758 electrons
N(Beta)            :       38.000027710758 electrons
N(Total)           :       76.000055421516 electrons
E(X)               :      -60.848196759789 Eh       
E(C)               :       -2.441799596133 Eh       
E(XC)              :      -63.289996355922 Eh       

---------------
SCF CONVERGENCE
---------------

  Last Energy change         ...   -7.4289e-08  Tolerance :   1.0000e-07
  Last MAX-Density change    ...    6.1072e-05  Tolerance :   1.0000e-07
  Last RMS-Density change    ...    2.8694e-06  Tolerance :   5.0000e-09
  Last DIIS Error            ...    2.3003e-03  Tolerance :   1.0000e-07
  Last Orbital Gradient      ...    5.1687e-05  Tolerance :   1.0000e-04
  Last Orbital Rotation      ...    7.3804e-05  Tolerance :   1.0000e-04


----------------
ORBITAL ENERGIES
----------------

  NO   OCC          E(Eh)            E(eV) 
   0   2.0000     -10.047438      -273.4047 
   1   2.0000     -10.046036      -273.3665 
   2   2.0000     -10.045205      -273.3439 
   3   2.0000     -10.037912      -273.1455 
   4   2.0000     -10.037771      -273.1416 
   5   2.0000     -10.037138      -273.1244 
   6   2.0000     -10.036896      -273.1178 
   7   2.0000     -10.035825      -273.0887 
   8   2.0000     -10.034415      -273.0503 
   9   2.0000     -10.033525      -273.0261 
  10   2.0000     -10.031536      -272.9720 
  11   2.0000      -0.844635       -22.9837 
  12   2.0000      -0.792544       -21.5662 
  13   2.0000      -0.755983       -20.5714 
  14   2.0000      -0.709922       -19.3180 
  15   2.0000      -0.703417       -19.1409 
  16   2.0000      -0.653024       -17.7697 
  17   2.0000      -0.591668       -16.1001 
  18   2.0000      -0.582453       -15.8493 
  19   2.0000      -0.546875       -14.8812 
  20   2.0000      -0.483182       -13.1481 
  21   2.0000      -0.475548       -12.9403 
  22   2.0000      -0.463057       -12.6004 
  23   2.0000      -0.419474       -11.4145 
  24   2.0000      -0.405931       -11.0460 
  25   2.0000      -0.397254       -10.8098 
  26   2.0000      -0.388491       -10.5714 
  27   2.0000      -0.380732       -10.3602 
  28   2.0000      -0.368316       -10.0224 
  29   2.0000      -0.356472        -9.7001 
  30   2.0000      -0.351994        -9.5782 
  31   2.0000      -0.337167        -9.1748 
  32   2.0000      -0.305026        -8.3002 
  33   2.0000      -0.303716        -8.2645 
  34   2.0000      -0.296596        -8.0708 
  35   2.0000      -0.260086        -7.0773 
  36   2.0000      -0.230738        -6.2787 
  37   2.0000      -0.199885        -5.4392 
  38   0.0000      -0.066640        -1.8134 
  39   0.0000      -0.036892        -1.0039 
  40   0.0000       0.001100         0.0299 
  41   0.0000       0.063750         1.7347 
  42   0.0000       0.076360         2.0779 
  43   0.0000       0.085652         2.3307 
  44   0.0000       0.101150         2.7524 
  45   0.0000       0.115541         3.1440 
  46   0.0000       0.128069         3.4849 
  47   0.0000       0.136448         3.7129 
  48   0.0000       0.147102         4.0029 
*Only the first 10 virtual orbitals were printed.
Total SCF time: 0 days 0 hours 0 min 16 sec 
Finished LeanSCF after  19.2 sec

Maximum memory used throughout the entire LEANSCF-calculation: 31.3 MB


-------------------------------------------------------------------------------
                          DFT DISPERSION CORRECTION                            
                                                                               
                                DFTD4 V3.4.0                                   
-------------------------------------------------------------------------------
-------------------------   ----------------
Dispersion correction           -0.008300702
-------------------------   ----------------

------------------   -----------------
gCP correction             0.005338891
------------------   -----------------

-------------------------   --------------------
FINAL SINGLE POINT ENERGY      -425.086858505658
-------------------------   --------------------

------------------------------------------------------------------------------
                         ORCA SCF GRADIENT CALCULATION
------------------------------------------------------------------------------

Nuc. rep. gradient        (SHARK) ... done (  0.0 sec)
HCore & Overlap gradient  (SHARK) ... done (  0.4 sec)
Split-RIJ-J gradient      (SHARK) ... done (  2.3 sec)
XC gradient                       ... done (  7.6 sec)
Dispersion correction             ... done (  0.0 sec)

-------------------
DISPERSION GRADIENT
-------------------

   1   C   :   -0.000077042   -0.000111727   -0.000000002
   2   C   :   -0.000091951   -0.000049523   -0.000000000
   3   C   :   -0.000123395    0.000023946    0.000000011
   4   C   :   -0.000097618    0.000100582    0.000000007
   5   C   :   -0.000038572    0.000127621   -0.000000007
   6   C   :    0.000030800    0.000070061   -0.000000010
   7   C   :    0.000004388   -0.000023918   -0.000000007
   8   C   :    0.000074011   -0.000094179   -0.000000003
   9   C   :    0.000126919   -0.000056204    0.000000005
  10   C   :    0.000129620    0.000008168    0.000000006
  11   C   :    0.000104715    0.000071518   -0.000000006
  12   H   :   -0.000028042   -0.000046590    0.000012989
  13   H   :   -0.000033754   -0.000034978    0.000000009
  14   H   :   -0.000028048   -0.000046580   -0.000013002
  15   H   :   -0.000048498    0.000004618    0.000000008
  16   H   :   -0.000033528    0.000035753    0.000000004
  17   H   :   -0.000007320    0.000054159   -0.000000004
  18   H   :    0.000017792   -0.000051263   -0.000000003
  19   H   :    0.000039986   -0.000027388    0.000000004
  20   H   :    0.000043828    0.000006171    0.000000005
  21   H   :    0.000035707    0.000039751   -0.000000002

Difference to translation invariance:
           :    0.0000000000    0.0000000000   -0.0000000000

Difference to rotation invariance:
           :    0.0000000000    0.0000000000   -0.0000000000

Norm of the Dispersion gradient    ...    0.0004266642
RMS gradient                       ...    0.0000537546
MAX gradient                       ...    0.0001296201
gCP correction                   ... done

------------------
CARTESIAN GRADIENT
------------------

   1   C   :   -0.000088390   -0.001419444   -0.000009573
   2   C   :    0.000507642    0.001675169    0.000000214
   3   C   :    0.000636622   -0.000477691   -0.000000297
   4   C   :    0.000501694   -0.000317035    0.000001506
   5   C   :   -0.000256343   -0.000391057   -0.000000323
   6   C   :   -0.000601644   -0.001753756   -0.000002309
   7   C   :    0.000012181    0.001099208   -0.000001520
   8   C   :    0.000784859    0.000312018    0.000000740
   9   C   :   -0.001116955    0.000135720    0.000001830
  10   C   :   -0.000835822    0.000417265   -0.000000517
  11   C   :    0.000381419   -0.000502412   -0.000000035
  12   H   :   -0.000206536    0.000882272   -0.000614741
  13   H   :    0.000743809    0.000439032    0.000004344
  14   H   :   -0.000208356    0.000885363    0.000618313
  15   H   :    0.000764946    0.000437807    0.000001375
  16   H   :    0.000406239   -0.000713860    0.000001246
  17   H   :   -0.000125074   -0.000880866   -0.000001563
  18   H   :    0.000192332    0.000679953   -0.000001657
  19   H   :   -0.000348704    0.000683050    0.000001627
  20   H   :   -0.000706167   -0.000420098    0.000002209
  21   H   :   -0.000437750   -0.000770637   -0.000000868

Difference to translation invariance:
           :   -0.0000000000   -0.0000000000    0.0000000000

[...]


----------------
ORBITAL ENERGIES
----------------

  NO   OCC          E(Eh)            E(eV) 
   0   2.0000     -10.048412      -273.4312 
   1   2.0000     -10.046680      -273.3841 
   2   2.0000     -10.045916      -273.3633 
   3   2.0000     -10.038498      -273.1614 
   4   2.0000     -10.038353      -273.1575 
   5   2.0000     -10.037734      -273.1406 
   6   2.0000     -10.037558      -273.1358 
   7   2.0000     -10.036571      -273.1090 
   8   2.0000     -10.035155      -273.0704 
   9   2.0000     -10.034332      -273.0480 
  10   2.0000     -10.032414      -272.9959 
  11   2.0000      -0.843709       -22.9585 
  12   2.0000      -0.791885       -21.5483 
  13   2.0000      -0.755585       -20.5605 
  14   2.0000      -0.709410       -19.3040 
  15   2.0000      -0.703102       -19.1324 
  16   2.0000      -0.652832       -17.7645 
  17   2.0000      -0.591264       -16.0891 
  18   2.0000      -0.582241       -15.8436 
  19   2.0000      -0.546470       -14.8702 
  20   2.0000      -0.482953       -13.1418 
  21   2.0000      -0.475548       -12.9403 
  22   2.0000      -0.462500       -12.5853 
  23   2.0000      -0.419150       -11.4057 
  24   2.0000      -0.405923       -11.0457 
  25   2.0000      -0.396598       -10.7920 
  26   2.0000      -0.388204       -10.5636 
  27   2.0000      -0.380856       -10.3636 
  28   2.0000      -0.368263       -10.0209 
  29   2.0000      -0.355892        -9.6843 
  30   2.0000      -0.351822        -9.5736 
  31   2.0000      -0.337347        -9.1797 
  32   2.0000      -0.304682        -8.2908 
  33   2.0000      -0.303752        -8.2655 
  34   2.0000      -0.296720        -8.0742 
  35   2.0000      -0.259954        -7.0737 
  36   2.0000      -0.230505        -6.2724 
  37   2.0000      -0.199859        -5.4384 
  38   0.0000      -0.067033        -1.8241 
  39   0.0000      -0.037342        -1.0161 
  40   0.0000       0.000778         0.0212 
  41   0.0000       0.063024         1.7150 
  42   0.0000       0.076202         2.0736 
  43   0.0000       0.085439         2.3249 
  44   0.0000       0.100957         2.7472 
  45   0.0000       0.115421         3.1408 
  46   0.0000       0.128037         3.4841 
  47   0.0000       0.136183         3.7057 
  48   0.0000       0.146605         3.9893 
*Only the first 10 virtual orbitals were printed.
Total SCF time: 0 days 0 hours 0 min 6 sec 
Finished LeanSCF after   9.0 sec

Maximum memory used throughout the entire LEANSCF-calculation: 31.4 MB


-------------------------------------------------------------------------------
                          DFT DISPERSION CORRECTION                            
                                                                               
                                DFTD4 V3.4.0                                   
-------------------------------------------------------------------------------
-------------------------   ----------------
Dispersion correction           -0.008289675
-------------------------   ----------------

------------------   -----------------
gCP correction             0.005322385
------------------   -----------------

-------------------------   --------------------
FINAL SINGLE POINT ENERGY      -425.086909896773
-------------------------   --------------------

------------------------------------------------------------------------------
                         ORCA SCF GRADIENT CALCULATION
------------------------------------------------------------------------------

Nuc. rep. gradient        (SHARK) ... done (  0.0 sec)
HCore & Overlap gradient  (SHARK) ... done (  0.4 sec)
Split-RIJ-J gradient      (SHARK) ... done (  2.5 sec)
XC gradient                       ... done (  7.6 sec)
Dispersion correction             ... done (  0.0 sec)

-------------------
DISPERSION GRADIENT
-------------------

   1   C   :   -0.000076962   -0.000111793   -0.000000002
   2   C   :   -0.000091994   -0.000049660    0.000000002
   3   C   :   -0.000123305    0.000024053    0.000000007
   4   C   :   -0.000097519    0.000100479    0.000000003
   5   C   :   -0.000038624    0.000127568   -0.000000003
   6   C   :    0.000030818    0.000070233   -0.000000003
   7   C   :    0.000004432   -0.000023905   -0.000000002
   8   C   :    0.000074055   -0.000094148   -0.000000002
   9   C   :    0.000126710   -0.000056195    0.000000000
  10   C   :    0.000129425    0.000008102    0.000000001
  11   C   :    0.000104690    0.000071453   -0.000000003
  12   H   :   -0.000027998   -0.000046452    0.000012897
  13   H   :   -0.000033576   -0.000034903    0.000000007
  14   H   :   -0.000028003   -0.000046445   -0.000012907
  15   H   :   -0.000048458    0.000004586    0.000000004
  16   H   :   -0.000033454    0.000035699    0.000000002
  17   H   :   -0.000007329    0.000054082   -0.000000002
  18   H   :    0.000017764   -0.000051206   -0.000000002
  19   H   :    0.000039890   -0.000027418    0.000000001
  20   H   :    0.000043760    0.000006191    0.000000001
  21   H   :    0.000035679    0.000039681   -0.000000001

Difference to translation invariance:
           :   -0.0000000000   -0.0000000000    0.0000000000

Difference to rotation invariance:
           :   -0.0000000000   -0.0000000000   -0.0000000000

Norm of the Dispersion gradient    ...    0.0004263862
RMS gradient                       ...    0.0000537196
MAX gradient                       ...    0.0001294250
gCP correction                   ... done

------------------
CARTESIAN GRADIENT
------------------

   1   C   :   -0.000045512    0.000019959    0.000000774
   2   C   :    0.000016060   -0.000035779    0.000000061
   3   C   :   -0.000042497   -0.000025365   -0.000000460
   4   C   :    0.000012700    0.000078627    0.000000399
   5   C   :   -0.000023371    0.000047713   -0.000000272
   6   C   :   -0.000023715   -0.000086281   -0.000000807
   7   C   :   -0.000018354    0.000131422   -0.000000121
   8   C   :    0.000058768   -0.000078583    0.000000216
   9   C   :   -0.000053970   -0.000083809    0.000000844
  10   C   :    0.000008650    0.000124790   -0.000000135
  11   C   :    0.000121657   -0.000017315    0.000000033
  12   H   :    0.000002619   -0.000013877    0.000018432
  13   H   :   -0.000021783   -0.000011151    0.000001325
  14   H   :    0.000000043   -0.000013185   -0.000021288
  15   H   :   -0.000027405    0.000019284    0.000000782
  16   H   :   -0.000018343    0.000013986    0.000000299
  17   H   :    0.000050707    0.000002393   -0.000000703
  18   H   :   -0.000018916   -0.000020205   -0.000000521
  19   H   :    0.000029450   -0.000008897    0.000000626
  20   H   :    0.000024191   -0.000055798    0.000000939
  21   H   :   -0.000030978    0.000012071   -0.000000422

Difference to translation invariance:
           :   -0.0000000000   -0.0000000000    0.0000000000

Difference to rotation invariance:
           :   -0.0000000241    0.0000007468   -0.0011468466

Norm of the Cartesian gradient     ...    0.0003226029
RMS gradient                       ...    0.0000406441
MAX gradient                       ...    0.0001314224

-------
TIMINGS
-------

Total SCF gradient time     ....       10.509 sec

Densities                   ....       0.001 sec  (  0.0%)
One electron gradient       ....       0.382 sec  (  3.6%)
RI-J Coulomb gradient       ....       2.495 sec  ( 23.7%)
XC gradient                 ....       7.594 sec  ( 72.3%)

Maximum memory used throughout the entire SCFGRAD-calculation: 40.5 MB

------------------------------------------------------------------------------
                              ORCA PROPERTY CALCULATIONS
------------------------------------------------------------------------------

GBWName                                 ... xtb_opt.gbw
Number of atoms                         ...     21
Number of basis functions               ...    259
Max core memory                         ...   1024 MB

Electric properties:
Dipole moment                           ... YES
Quadrupole moment                       ...  NO
Static polarizability (Dipole/Dipole)   ...  NO
Static polarizability (Dipole/Quad.)    ...  NO
Static polarizability (Quad./Quad.)     ...  NO
Static polarizability (Velocity)        ...  NO

Atomic electric properties:
Dipole moment                           ...  NO
Quadrupole moment                       ...  NO
Static polarizability                   ...  NO

Choice of electric origin               ... Center of mass
Position of electric origin             ...     0.000559     0.004493     0.000061

General magnetic properties:
Magnetizability                         ...  NO

EPR properties:
g-Tensor (aka g-matrix)                 ...  NO
Zero-Field splitting spin-orbit         ...  NO
Zero-field splitting spin-spin          ...  NO
Hyperfine couplings                     ...  NO (   0 nuclei)
Quadrupole couplings                    ...  NO (   0 nuclei)
Contact density                         ...  NO (   0 nuclei)

NMR properties:
Chemical shifts                         ...  NO (   0 nuclei)
Spin-rotation constants                 ...  NO (   0 nuclei)
Spin-spin couplings                     ...  NO (   0 nuclei,    0 pairs)

Choice of magnetic origin               ... GIAO
Position of magnetic origin             ...     0.000000     0.000000     0.000000

Properties with geometric perturbations:
SCF Hessian                             ...  NO
IR spectrum                             ...  NO
VCD spectrum                            ...  NO
X-ray spectroscopy properties:
SCF XES/XAS/RIXS spectra                ...  NO


-------------
DIPOLE MOMENT
-------------

Method             : SCF
Type of density    : Electron Density
Multiplicity       :   1
Irrep              :   0
Energy             :  -425.0839426068829425 Eh
Relativity type    : 
Basis              : AO
                                X                 Y                 Z
Electronic contribution:      2.333393742       3.466800894      -0.000095784
Nuclear contribution   :     -2.392722870      -3.617820986       0.000096262
                        -----------------------------------------
Total Dipole Moment    :     -0.059329128      -0.151020093       0.000000479
                        -----------------------------------------
Magnitude (a.u.)       :      0.162256013
Magnitude (Debye)      :      0.412422010



--------------------
Rotational spectrum 
--------------------
 
Rotational constants in cm-1:             0.063406             0.037711             0.023751 
Rotational constants in MHz :          1900.867867          1130.543299           712.050474 

Dipole components along the rotational axes: 
x,y,z [a.u.] :    -0.059370     0.151004    -0.000000 
x,y,z [Debye]:    -0.150907     0.383822    -0.000001 

 

Dipole moment calculation done in   0.7 sec 

Maximum memory used throughout the entire PROP-calculation: 19.3 MB

--------------------------------
SUGGESTED CITATIONS FOR THIS RUN
--------------------------------

Below you find a list of papers that are relevant to this ORCA run
We neither can nor want to force you to cite these papers, but we appreciate if you do
You receive ORCA, which is the product of decades of hard work by many enthusiastic individuals, for free
The only thing we kindly ask in return is that you cite our papers,
We deeply appreciate it, if you show your appreciation for ORCA by not just citing the generic ORCA reference.

Please note that relegating all ORCA citations to the supporting information does *not* help us.
SI sections are not indexed - citations you put there will not count into any citation statistics
But we need these citations in order to attract the funding resources that allow us to do what we are doing

Therefore, if you are a happy ORCA user, please consider citing a few of the papers listed below in the main body of your paper

In addition to the list printed below, the program has created the file xtb_opt.bibtex that contains the list in bibtex format
You can import this file easily into all common literature databanks and citation aid programs


List of essential papers. We consider these as the minimum necessary citations

  1. Neese,F.
     Software update: the ORCA program system, version 5.0
     WIRES Comput. Molec. Sci., 2022 12(1)e1606
     doi.org/10.1002/wcms.1606
  2. Grimme,S.; Hansen,A.; Ehlert,S.; Mewes,J.
     r2SCAN-3c: A 'Swiss army knife' composite electronic-structure method
     J. Chem. Phys., 2021 154 064103
     doi.org/10.1063/5.0040021

List of papers to cite with high priority. The work reported in these papers was absolutely
necessary for this run to complete.
Our perspective: the developers of density functionals and basis sets usually get cited in chemistry papers
Good! But without the algorithms to do something with them, the functionals or basis sets would not do anything.
Hence, in our opinion, the algorithm design and method developments papers are equally worthy of getting cited

  1. Neese,F.
     An improvement of the resolution of the identity approximation for the formation of the Coulomb matrix
     J. Comp. Chem., 2003 24(14)1740-1747
     doi.org/10.1002/jcc.10318
  2. Neese,F.
     The SHARK Integral Generation and Digestion System
     J. Comp. Chem., 2022  1-16
     doi.org/10.1002/jcc.26942
  3. Lehtola,S.; Steigemann,C.; Oliveira,M.; Marques,M.
     Recent developments in Libxc - A comprehensive library of functionals for density functional theory
     Software X, 2018 7 
     doi.org/10.1016/j.softx.2017.11.002
  4. Caldeweyher,E.; Bannwarth,C.; Grimme,S.
     Extension of the D3 dispersion coefficient model
     J. Chem. Phys., 2017 147 034112
     doi.org/10.1063/1.4993215
  5. Caldeweyher,E.; Ehlert,S.; Hansen,A.; Neugebauer,H.; Spicher,S.; Bannwarth,C.; Grimme,S.
     A generally applicable atomic-charge dependent London dispersion correction
     J. Chem. Phys., 2019 150 154122
     doi.org/10.1063/1.5090222
  6. Caldeweyher,E.; Mewes,J.; Ehlert,S.; Grimme,S.
     Extension and evaluation of the D4 London-dispersion model for periodic systems
     Phys. Chem. Chem. Phys., 2020 22(16)8499-8512
     doi.org/10.1039/D0CP00502A
  7. Wittmann,L.; Gordiy,I.; Friede,M.; Helmich-Paris,B.; Grimme,S.; Hansen,A.; Bursch,M.
     Extension of the D3 and D4 London Dispersion Corrections to the full Actinides Series
     Phys. Chem. Chem. Phys., 2024 26(32)21379-21394
     doi.org/https://doi.org/10.1039/D4CP01514B 

List of suggested additional citations. These are papers that are important in the 'surrounding' of 
of this run, or papers that preceded the highly important papers. If you like your results we are grateful for a citation.

  1. Neese,F.
     The ORCA program system
     WIRES Comput. Molec. Sci., 2012 2(1)73-78
     doi.org/10.1002/wcms.81
  2. Neese,F.
     Software update: the ORCA program system, version 4.0
     WIRES Comput. Molec. Sci., 2018 8(1)1-6
     doi.org/10.1002/wcms.1327
  3. Neese,F.; Wennmohs,F.; Becker,U.; Riplinger,C.
     The ORCA quantum chemistry program package
     J. Chem. Phys., 2020 152 Art. No. L224108
     doi.org/10.1063/5.0004608

List of optional additional citations

  1. Neese,F.
     Approximate second-order SCF convergence for spin unrestricted wavefunctions
     Chem. Phys. Lett., 2000 325(1-3)93-98
     doi.org/10.1016/s0009-2614(00)00662-x

Timings for individual modules:

Sum of individual times          ...       22.268 sec (=   0.371 min)
Startup calculation              ...        1.087 sec (=   0.018 min)   4.9 %
SCF iterations                   ...        9.102 sec (=   0.152 min)  40.9 %
Property calculations            ...        0.747 sec (=   0.012 min)   3.4 %
SCF Gradient evaluation          ...       11.332 sec (=   0.189 min)  50.9 %
                             ****ORCA TERMINATED NORMALLY****
TOTAL RUN TIME: 0 days 0 hours 0 minutes 25 seconds 852 msec
  ------------------------------------------------------------------------
          * successful ORCA run, taking over control again...

         :::::::::::::::::::::::::::::::::::::::::::::::::::::
         ::                  ORCA SUMMARY                   ::
         :::::::::::::::::::::::::::::::::::::::::::::::::::::
         :: total energy            -425.086909896773 Eh    ::
         :: gradient norm              0.000322602897 Eh/a0 ::
         :: HOMO-LUMO gap              0.000000000000 eV    ::
         :::::::::::::::::::::::::::::::::::::::::::::::::::::

           -------------------------------------------------
          |                Property Printout                |
           -------------------------------------------------
           -------------------------------------------------
          |                Geometry Summary                 |
           -------------------------------------------------

      molecular mass/u    :      142.1975024
   center of mass at/Å    :        0.0002964       0.0023786       0.0000322
  moments of inertia/u·Å² :        0.2658601E+03   0.4470115E+03   0.7097328E+03
rotational constants/cm⁻¹ :        0.6340792E-01   0.3771185E-01   0.2375208E-01

 * 21 selected distances

     #   Z          #   Z                                           value/Å
     2   6 C        3   6 C                                       1.3783422
     3   6 C        4   6 C                                       1.4098670
     4   6 C        5   6 C                                       1.3710784
     5   6 C        6   6 C                                       1.4154040
     2   6 C        7   6 C                                       1.4280413
     6   6 C        7   6 C                                       1.4321114 (max)
     7   6 C        8   6 C                                       1.4167362
     8   6 C        9   6 C                                       1.3750350
     9   6 C       10   6 C                                       1.4090373
     6   6 C       11   6 C                                       1.4153748
    10   6 C       11   6 C                                       1.3733906
     1   6 C       12   1 H                                       1.0959409
     1   6 C       13   1 H                                       1.0921024
     1   6 C       14   1 H                                       1.0959494
     3   6 C       15   1 H                                       1.0864263
     4   6 C       16   1 H                                       1.0853728
     5   6 C       17   1 H                                       1.0861989
     8   6 C       18   1 H                                       1.0843563 (min)
     9   6 C       19   1 H                                       1.0854071
    10   6 C       20   1 H                                       1.0852637
    11   6 C       21   1 H                                       1.0865277

 * 2 distinct bonds (by element types)

   Z      Z             #   av. dist./Å        max./Å        min./Å
   1 H    6 C          10     1.0883545     1.0959494     1.0843563
   6 C    6 C          11     1.4022198     1.4321114     1.3710784


optimized geometry written to: xtbopt.coord


           -------------------------------------------------
          | TOTAL ENERGY             -425.086909896773 Eh   |
          | GRADIENT NORM               0.000322602897 Eh/α |
           -------------------------------------------------

------------------------------------------------------------------------
 * finished run on 2025/04/15 at 19:20:21.613     
------------------------------------------------------------------------
 total:
 * wall-time:     0 d,  0 h,  2 min, 48.396 sec
 *  cpu-time:     0 d,  0 h,  0 min,  1.584 sec
 * ratio c/w:     0.009 speedup
 SCF:
 * wall-time:     0 d,  0 h,  0 min, 30.157 sec
 *  cpu-time:     0 d,  0 h,  0 min,  0.761 sec
 * ratio c/w:     0.025 speedup
 ANC optimizer:
 * wall-time:     0 d,  0 h,  2 min, 18.226 sec
 *  cpu-time:     0 d,  0 h,  0 min,  0.789 sec
 * ratio c/w:     0.006 speedup

