21
 energy: -425.086144695594 gnorm: 0.016843112756 xtb: 6.7.1 (edcfbbe)
C           -1.85663374972272       -2.17333379096306       -0.00005398860002
C           -1.39000937941595       -0.74829129963159       -0.00002190280001
C           -2.30194874842005        0.27569257442217        0.00020394100009
C           -1.89936016404166        1.61876609701732        0.00011602410005
C           -0.57236764855363        1.93746393845854       -0.00013548350006
C            0.40508577617950        0.92063435820796       -0.00016543560007
C           -0.00205780140091       -0.44087104229536       -0.00015586030007
C            0.99955508824293       -1.43588106193628       -0.00011323270005
C            2.32596680913070       -1.10439633918939        0.00013186000006
C            2.72368856330694        0.24018651290643        0.00018501240008
C            1.78152648078944        1.22904769694462       -0.00006157050003
H           -1.49153962736094       -2.69867895609586        0.88187204769078
H           -2.94314112360418       -2.21604476458199        0.00088549470039
H           -1.49289136156154       -2.69816954659563       -0.88281719929120
H           -3.35909123118850        0.04905679212174        0.00043267080019
H           -2.65066669757458        2.39514937936135        0.00033852210015
H           -0.25001542391079        2.96895789391562       -0.00023393500010
H            0.71302344641596       -2.47617084889726       -0.00013080400006
H            3.07860035026421       -1.87976617413297        0.00032147770014
H            3.77598283677324        0.48477373631482        0.00033448290015
H            2.07614263261999        2.26920489880554       -0.00016099190007
21
 energy: -425.086858505658 gnorm: 0.004704541967 xtb: 6.7.1 (edcfbbe)
C           -1.85793508049583       -2.18003145556132       -0.00001640071960
C           -1.39509571321064       -0.75069773851268        0.00002345655791
C           -2.30852344655352        0.27889578493577        0.00018201330882
C           -1.90405817802732        1.62776813511319        0.00011432845748
C           -0.57263374567892        1.94868129224709       -0.00009034636937
C            0.40665239591392        0.92844217678309       -0.00013147132797
C           -0.00351528806788       -0.43997698860348       -0.00009579199714
C            0.99885317639527       -1.44000664907106       -0.00005058050505
C            2.33131886678696       -1.10874031513654        0.00010675617066
C            2.73172313372163        0.24106159568964        0.00010651297325
C            1.78722736868609        1.23547784232359       -0.00006831770968
H           -1.49324246646001       -2.71509154749559        0.88203502320399
H           -2.94769502626403       -2.22814450822170        0.00078876054562
H           -1.49451140227543       -2.71459873875540       -0.88288767145287
H           -3.36888976563195        0.04822140232103        0.00037621866395
H           -2.65658510330407        2.40827613995720        0.00024201819917
H           -0.24914744455205        2.98422986479651       -0.00016781034825
H            0.70970323408565       -2.48396734262705       -0.00011042207625
H            3.08394182049676       -1.88936341834928        0.00024210332833
H            3.78743214316321        0.48775121613994        0.00027068409582
H            2.08482957291677        2.27914314567782       -0.00009802939196
21
 energy: -425.086908694320 gnorm: 0.001000811621 xtb: 6.7.1 (edcfbbe)
C           -1.85962241317181       -2.18186918134478        0.00001137491858
C           -1.39681689729646       -0.75183855021294        0.00005198933211
C           -2.31077159947415        0.27965581021595        0.00015891259677
C           -1.90566241772192        1.63015382184717        0.00009221946247
C           -0.57300434598216        1.95225573700862       -0.00004931652354
C            0.40774140039767        0.93170094166094       -0.00007086095333
C           -0.00367425718415       -0.43952757377782       -0.00004143633272
C            0.99929270822061       -1.44038692106080       -0.00002855414432
C            2.33379472500247       -1.10972957803461        0.00006647205494
C            2.73506379272166        0.24123926166473        0.00007901443459
C            1.78984902142120        1.23742524987692       -0.00003436551939
H           -1.49516419312866       -2.72049266594285        0.88197583155322
H           -2.95043754044508       -2.23330609199181        0.00070214017097
H           -1.49629983216941       -2.72003449769471       -0.88270986060555
H           -3.37206765589021        0.04739349519117        0.00030082402900
H           -2.65830315683456        2.41216504311744        0.00017499621194
H           -0.25025150386899        2.98937857305512       -0.00010746041801
H            0.70929812585521       -2.48524275274628       -0.00006687431669
H            3.08566470748808       -1.89258239886779        0.00014951631419
H            3.79164261071195        0.48917251764155        0.00017634250641
H            2.08957775861644        2.28179960257820       -0.00005988153616
21
 energy: -425.086909896096 gnorm: 0.000302473801 xtb: 6.7.1 (edcfbbe)
C           -1.85992412915008       -2.18181432536263        0.00002933681548
C           -1.39686182810805       -0.75210722852876        0.00006755349858
C           -2.31092796352787        0.27954675637452        0.00013411209602
C           -1.90578069413603        1.62994676884925        0.00008277258604
C           -0.57316617738596        1.95242817812764       -0.00001041933047
C            0.40802958535452        0.93231891465691       -0.00002190942536
C           -0.00347984265827       -0.43939632387328       -0.00000062112370
C            0.99952210432912       -1.43996021763303       -0.00000765500902
C            2.33429172442653       -1.10964094360713        0.00003795906756
C            2.73544782835749        0.24108457211522        0.00004443440148
C            1.79013914266476        1.23737415237090       -0.00000953247466
H           -1.49585403866368       -2.72089664745307        0.88203241982278
H           -2.95080859574687       -2.23337089826903        0.00062586090211
H           -1.49684018853188       -2.72048786138992       -0.88264029974945
H           -3.37216436659862        0.04695453050651        0.00023204277905
H           -2.65816514401381        2.41222009929679        0.00012619386078
H           -0.25144847995724        2.98988925144323       -0.00005650385980
H            0.70949898588967       -2.48481182687499       -0.00004222352823
H            3.08551082173648       -1.89308087961548        0.00007181956567
H            3.79184815065460        0.48971186176079        0.00009905314027
H            2.09098213279863        2.28142191376340       -0.00002335511659
21
 energy: -425.086909896096 gnorm: 0.000302473801 xtb: 6.7.1 (edcfbbe)
C           -1.85992412915008       -2.18181432536263        0.00002933681548
C           -1.39686182810805       -0.75210722852876        0.00006755349858
C           -2.31092796352787        0.27954675637452        0.00013411209602
C           -1.90578069413603        1.62994676884925        0.00008277258604
C           -0.57316617738596        1.95242817812764       -0.00001041933047
C            0.40802958535452        0.93231891465691       -0.00002190942536
C           -0.00347984265827       -0.43939632387328       -0.00000062112370
C            0.99952210432912       -1.43996021763303       -0.00000765500902
C            2.33429172442653       -1.10964094360713        0.00003795906756
C            2.73544782835749        0.24108457211522        0.00004443440148
C            1.79013914266476        1.23737415237090       -0.00000953247466
H           -1.49585403866368       -2.72089664745307        0.88203241982278
H           -2.95080859574687       -2.23337089826903        0.00062586090211
H           -1.49684018853188       -2.72048786138992       -0.88264029974945
H           -3.37216436659862        0.04695453050651        0.00023204277905
H           -2.65816514401381        2.41222009929679        0.00012619386078
H           -0.25144847995724        2.98988925144323       -0.00005650385980
H            0.70949898588967       -2.48481182687499       -0.00004222352823
H            3.08551082173648       -1.89308087961548        0.00007181956567
H            3.79184815065460        0.48971186176079        0.00009905314027
H            2.09098213279863        2.28142191376340       -0.00002335511659
