17
 energy: -22.480506417181 gnorm: 0.017778373093 xtb: 6.7.1 (edcfbbe)
C           -2.85468590142920       -0.40880970206505        0.10672353107567
N           -1.83264605428665        0.58957037847864       -0.15018166863526
C           -0.48607846545483        0.26933398589979       -0.05541613706332
C           -0.03509903232390       -1.05936493071889       -0.04429531510955
C            1.32812643816063       -1.33594471097629       -0.00011456065571
C            2.26838621674164       -0.31341155422374        0.04298589741080
C            1.82281968567360        1.00834804866565        0.04002153769415
C            0.46951699832273        1.30026028206692       -0.00911342538715
H           -3.83426760514405        0.07407512943580        0.07868485225121
H           -2.73714014480437       -0.90890285269331        1.08190746048385
H           -2.84663141996754       -1.17827120762273       -0.67368182902049
H           -2.05659380310662        1.51384468630900        0.18134265074568
H           -0.74301476262500       -1.87933417496593       -0.07188348482163
H            1.65351400780979       -2.37183572257634        0.00566433099763
H            3.32838199207828       -0.53809242712689        0.08067515731807
H            2.53940039387276        1.82325975424458        0.07619749623215
H            0.13707977998449        2.33522552748046       -0.02051779185180
17
 energy: -22.481210388365 gnorm: 0.004294775428 xtb: 6.7.1 (edcfbbe)
C           -2.85278110349526       -0.40367748081125        0.10802382908331
N           -1.82585001137448        0.57981227646214       -0.14706990320051
C           -0.48379259567193        0.26006613612353       -0.04774199150031
C           -0.02909165457856       -1.06047179475305       -0.04399408238068
C            1.32703534408000       -1.33281215994937       -0.00124099749168
C            2.25805886214670       -0.31004575498902        0.04164623868151
C            1.81375320262740        1.00431093429803        0.03575272486940
C            0.46460638227960        1.28905633920165       -0.00734991460189
H           -3.82540803815814        0.08583044137709        0.07347278460730
H           -2.73899471474224       -0.89396712171241        1.08438598549226
H           -2.83187954221191       -1.16991081579024       -0.67036096854770
H           -2.04925711202064        1.50997685261233        0.17278114951449
H           -0.73141407012093       -1.87903209987717       -0.07545676888870
H            1.65564002343715       -2.36369577241581        0.00425095717380
H            3.31469101499445       -0.53069755174590        0.08042315102185
H            2.52717801658676        1.81689742366680        0.07249516196112
H            0.12857431972378        2.31831065791435       -0.01101865412926
17
 energy: -22.481268117004 gnorm: 0.001888936935 xtb: 6.7.1 (edcfbbe)
C           -2.85366735980779       -0.40083898216928        0.10940663835627
N           -1.82246037198193        0.57555795526772       -0.14513252612433
C           -0.48289439285997        0.25558344487225       -0.04598720303487
C           -0.02626462539356       -1.06294893908367       -0.04492612315550
C            1.32853945918435       -1.33331850491125       -0.00203103970597
C            2.25605080990816       -0.30834640552042        0.04071374227334
C            1.81128648542539        1.00416329548932        0.03739263268570
C            0.46226021985618        1.28514347324195       -0.00351629316665
H           -3.82283438400238        0.09200772845514        0.06714072794556
H           -2.74752769882231       -0.88570395472778        1.08831410182763
H           -2.82877680471994       -1.17002451555704       -0.66429299905168
H           -2.04377674484478        1.51085888001923        0.16325026902486
H           -0.72710780737808       -1.88162681170855       -0.07671180257807
H            1.65988937672189       -2.36210392398071        0.00175168927799
H            3.31223272746506       -0.52690128705424        0.07744293804145
H            2.52337775605389        1.81641741819629        0.07012053976100
H            0.12274167869756        2.31203163878273       -0.00393659071242
17
 energy: -22.481296634825 gnorm: 0.001933466072 xtb: 6.7.1 (edcfbbe)
C           -2.85715306013143       -0.39776085877066        0.11165604766110
N           -1.81948883821933        0.57046821441850       -0.14157083948664
C           -0.48209485804439        0.25069970485680       -0.04304343820381
C           -0.02292635478161       -1.06697102728534       -0.04535127082954
C            1.33206101217670       -1.33471226631914       -0.00460059064488
C            2.25665195562916       -0.30658934471557        0.03751968706329
C            1.81050295616236        1.00498614972202        0.03786293050539
C            0.46050992998278        1.28199930204199        0.00139142231758
H           -3.82287022652840        0.09933303814437        0.05475926035439
H           -2.76362938718925       -0.87309178334579        1.09657781854280
H           -2.82743060705519       -1.17507132113292       -0.65329363451605
H           -2.03819502487250        1.51303537160416        0.14745679364006
H           -0.72285395927479       -1.88642549557307       -0.07804808407025
H            1.66725996533652       -2.36166746740751       -0.00279667785919
H            3.31318842374962       -0.52302319868163        0.07241013759542
H            2.52107172015621        1.81767510718541        0.07179514384962
H            0.11646467640527        2.30706638487008        0.00627399574500
17
 energy: -22.481310322008 gnorm: 0.000865203790 xtb: 6.7.1 (edcfbbe)
C           -2.85974348526730       -0.39696235705808        0.11319556104220
N           -1.81917639108867        0.56836281569070       -0.13905137428366
C           -0.48179199142732        0.24940583722115       -0.04235304088650
C           -0.02162723650720       -1.06863098208550       -0.04580539648705
C            1.33416969245282       -1.33512373028011       -0.00684213375200
C            2.25852887545719       -0.30623343328656        0.03619839196214
C            1.81125574114308        1.00549520029114        0.03997942060959
C            0.46078694606058        1.28169480827035        0.00428865351757
H           -3.82462741954180        0.10127161979954        0.04579274881433
H           -2.77406848004045       -0.86548844543209        1.10253031381767
H           -2.82727924285760       -1.18082159645980       -0.64553814727751
H           -2.03728554977453        1.51392209173300        0.13809027089286
H           -0.72170161313719       -1.88856894274378       -0.07786893960429
H            1.67091396072595       -2.36192799393105       -0.00682395828904
H            3.31567642528526       -0.52226738644665        0.06841811084262
H            2.52144814861169        1.81899922583600        0.07437586183665
H            0.11558994340722        2.30682377849343        0.01041235890874
17
 energy: -22.481314238509 gnorm: 0.000343722142 xtb: 6.7.1 (edcfbbe)
C           -2.86049297336054       -0.39695161055331        0.11427622463537
N           -1.81920135564077        0.56747294553388       -0.13728741383316
C           -0.48162214835104        0.24932467413109       -0.04120106895633
C           -0.02120262049620       -1.06871890131121       -0.04533606158236
C            1.33475526217223       -1.33486231487305       -0.00842865629906
C            2.25940843360660       -0.30636573454491        0.03467639307700
C            1.81157238124404        1.00529940320424        0.04005816975044
C            0.46119964987704        1.28169393873072        0.00535475467824
H           -3.82530975658607        0.10060710452192        0.03904157329819
H           -2.77998300195103       -0.86012484668583        1.10653706904438
H           -2.82453074148661       -1.18507607904841       -0.63999658608713
H           -2.03827220057719        1.51433438905942        0.13262507524138
H           -0.72126824188653       -1.88867813448229       -0.07753053223126
H            1.67151238262070       -2.36187493437880       -0.01023831908247
H            3.31659981578108       -0.52242090707070        0.06645583390810
H            2.52150405392909        1.81918992427310        0.07742462767954
H            0.11639938460692        2.30710159310583        0.01256761842344
17
 energy: -22.481315555770 gnorm: 0.000332256486 xtb: 6.7.1 (edcfbbe)
C           -2.86048073356994       -0.39703625855123        0.11478539447687
N           -1.81917511779706        0.56729934902224       -0.13648130895917
C           -0.48158891952678        0.24951029102161       -0.04082480459394
C           -0.02115649452920       -1.06850179435297       -0.04550975262006
C            1.33476395704859       -1.33473232026978       -0.00949441833145
C            2.25961941090610       -0.30652922124894        0.03444059147182
C            1.81156401024757        1.00506374153731        0.04147858401096
C            0.46129505248110        1.28173702191071        0.00655801442805
H           -3.82542951371567        0.09940852205592        0.03430467308915
H           -2.78319547144319       -0.85652888180875        1.10890686308836
H           -2.82127717509005       -1.18777125532794       -0.63647860098611
H           -2.03919084121859        1.51463243583969        0.13032155730784
H           -0.72113723909861       -1.88846406880004       -0.07691922651891
H            1.67107377400634       -2.36192888870719       -0.01231985343047
H            3.31679373415863       -0.52256708142740        0.06467119528165
H            2.52148904416882        1.81905382500561        0.07774371216312
H            0.11710084647367        2.30730509371286        0.01381608178661
17
 energy: -22.481316307120 gnorm: 0.000242892936 xtb: 6.7.1 (edcfbbe)
C           -2.86038958364678       -0.39709459343570        0.11489458769803
N           -1.81916137601840        0.56744142951895       -0.13612943742115
C           -0.48163609962267        0.24970467096957       -0.04036307268207
C           -0.02122822276097       -1.06831447960572       -0.04532123964236
C            1.33466320298834       -1.33473989044208       -0.00985386525035
C            2.25964484389071       -0.30662312270958        0.03373020264958
C            1.81162384588531        1.00494794905465        0.04116249800461
C            0.46131303093182        1.28179857572064        0.00693155598197
H           -3.82549301013120        0.09837458571437        0.03076955594607
H           -2.78522249352871       -0.85407897820032        1.11030480513893
H           -2.81857440074300       -1.18950950715711       -0.63432745000115
H           -2.03976232138424        1.51476288081109        0.13026989704130
H           -0.72107998338407       -1.88835514038650       -0.07669558867413
H            1.67058567792096       -2.36203886517696       -0.01324215121470
H            3.31678036233854       -0.52264904997758        0.06381576282477
H            2.52155224870191        1.81887411059946        0.07814934996401
H            0.11745260206420        2.30744993431449        0.01490329130095
17
 energy: -22.481317150648 gnorm: 0.000215830260 xtb: 6.7.1 (edcfbbe)
C           -2.86042166502667       -0.39704202088214        0.11479060761833
N           -1.81916235862282        0.56767822780561       -0.13583145953098
C           -0.48168851528689        0.24979640242641       -0.03986929854468
C           -0.02123744055233       -1.06820168249785       -0.04514424156851
C            1.33462281873184       -1.33477509498590       -0.01040532144609
C            2.25961326374054       -0.30665979837400        0.03283687903885
C            1.81167456916037        1.00486437961347        0.04086630922828
C            0.46131296779464        1.28176969584707        0.00740385853884
H           -3.82561635137969        0.09733654451308        0.02568263771454
H           -2.78826399051380       -0.85079473079414        1.11190984141932
H           -2.81513892468349       -1.19159381745072       -0.63178053940896
H           -2.04002803385009        1.51460329056547        0.13200823257249
H           -0.72090022823782       -1.88839655886900       -0.07628308393899
H            1.67029380454398       -2.36210725078075       -0.01388259655871
H            3.31675805307844       -0.52267401317149        0.06251516599785
H            2.52163372252963        1.81870361734677        0.07810121743907
H            0.11761663207588        2.30744331929981        0.01608049309365
17
 energy: -22.481317906072 gnorm: 0.000219387435 xtb: 6.7.1 (edcfbbe)
C           -2.86070829045999       -0.39677191332094        0.11454252659909
N           -1.81915884490082        0.56785021354587       -0.13550885558276
C           -0.48168568205302        0.24960397735531       -0.03938809402517
C           -0.02109793717735       -1.06832671268160       -0.04491159375910
C            1.33478881645860       -1.33484544061638       -0.01079765078473
C            2.25969519152184       -0.30662546655983        0.03193474001408
C            1.81170557111902        1.00485264261718        0.04059624391495
C            0.46128116566002        1.28158839261270        0.00796360248892
H           -3.82582034548646        0.09656378551463        0.01881182026454
H           -2.79292537676337       -0.84643280346426        1.11385453818981
H           -2.81120564930431       -1.19413611854105       -0.62859267753292
H           -2.03973687572485        1.51413797699345        0.13531321297315
H           -0.72057324670275       -1.88870437717981       -0.07561053237573
H            1.67054871170195       -2.36212986846006       -0.01491291107476
H            3.31689124299889       -0.52258138799366        0.06068626409872
H            2.52162316115731        1.81870372172717        0.07770998769929
H            0.11744671145703        2.30720388806300        0.01730808055691
17
 energy: -22.481318130866 gnorm: 0.000126591897 xtb: 6.7.1 (edcfbbe)
C           -2.86110042124583       -0.39645906513212        0.11438123067371
N           -1.81914290225913        0.56778186617928       -0.13521983231458
C           -0.48162424631824        0.24923820809511       -0.03899877616814
C           -0.02086572874467       -1.06862057175035       -0.04487039386833
C            1.33511271983085       -1.33488217433147       -0.01149021434403
C            2.25987506948878       -0.30654056813017        0.03126453699184
C            1.81170362588331        1.00489778799450        0.04053582736365
C            0.46124563137334        1.28136799655681        0.00830776690330
H           -3.82599638603627        0.09658634893479        0.01485630580211
H           -2.79607396930734       -0.84390681677487        1.11488387139005
H           -2.80954971352743       -1.19542692209287       -0.62682757293821
H           -2.03913850579657        1.51372985061409        0.13749793593288
H           -0.72026837930291       -1.88909385361554       -0.07517954516180
H            1.67116893361132       -2.36206939162479       -0.01520823983132
H            3.31710103051239       -0.52240087108917        0.05981596572569
H            2.52151597744457        1.81885919466435        0.07748131376005
H            0.11710558789557        2.30688949111413        0.01776852174746
17
 energy: -22.481318169961 gnorm: 0.000046200532 xtb: 6.7.1 (edcfbbe)
C           -2.86128273903190       -0.39632001709428        0.11436150159871
N           -1.81912703219671        0.56765846663167       -0.13519344517852
C           -0.48157322718659        0.24902286923618       -0.03905787088545
C           -0.02074669492863       -1.06879847473976       -0.04482018100792
C            1.33526565273216       -1.33488918843199       -0.01125762774638
C            2.25995166642607       -0.30648435984046        0.03141552368328
C            1.81167751997615        1.00493888616622        0.04058083148072
C            0.46122112492935        1.28126150518597        0.00829192528736
H           -3.82603528200363        0.09690115857601        0.01433673719090
H           -2.79677392116723       -0.84353252390210        1.11499516713111
H           -2.80969292066532       -1.19551080982401       -0.62661003931513
H           -2.03875408482583        1.51358214364898        0.13790398968970
H           -0.72014698041723       -1.88928373374520       -0.07516407331633
H            1.67155047513637       -2.36202620406653       -0.01550657221357
H            3.31721397062144       -0.52227775634689        0.05957892659534
H            2.52142745812368        1.81897692433649        0.07737459669039
H            0.11689333797959        2.30673162382140        0.01776931198011
