 Entering Gaussian System
 *********************************************
 Gaussian 98:
 frequency output generated by the xtb code
 *********************************************
                         Standard orientation:
 --------------------------------------------------------------------
  Center     Atomic     Atomic              Coordinates (Angstroms)
  Number     Number      Type              X           Y           Z
 --------------------------------------------------------------------
    1          6             0       -2.833989   -0.568896    0.072168
    2          8             0       -1.495355   -0.865296    0.460315
    3          6             0       -0.538820   -0.164805   -0.157990
    4          8             0       -0.739932    0.669563   -0.990281
    5          6             0        0.818196   -0.604315    0.366912
    6         17             0        2.116197    0.329292   -0.394508
    7          1             0       -3.062754    0.478882    0.274500
    8          1             0       -3.470194   -1.221796    0.663264
    9          1             0       -2.969471   -0.760092   -0.993757
   10          1             0        0.972982   -1.660541    0.143976
   11          1             0        0.863527   -0.450092    1.445346
 --------------------------------------------------------------------
     1 basis functions        1 primitive gaussians
     1 alpha electrons        1 beta electrons
 
 Harmonic frequencies (cm**-1), IR intensities (km*mol⁻¹),
 Raman scattering activities (A**4/amu), Raman depolarization ratios,
 reduced masses (AMU), force constants (mDyne/A) and normal coordinates:
                      1                      2                      3
                        a                      a                      a 
 Frequencies --    14.7323                54.6801               151.3469
 Red. masses --    14.7316                 2.0082                19.1564
 Frc consts  --     0.0000                 0.0000                 0.0000
 IR Inten    --     0.8509                 0.1527                 0.2676
 Raman Activ --     0.0000                 0.0000                 0.0000
 Depolar     --     0.0000                 0.0000                 0.0000
 Atom AN      X      Y      Z        X      Y      Z        X      Y      Z
   1   6    -0.01   0.23   0.24    -0.00   0.06   0.06    -0.10  -0.30   0.23
   2   8    -0.00   0.11   0.11    -0.01   0.07   0.07     0.06   0.10  -0.04
   3   6     0.01  -0.16  -0.17     0.00  -0.02  -0.02    -0.13   0.22  -0.20
   4   8     0.02  -0.29  -0.30     0.01  -0.16  -0.16    -0.37   0.19  -0.22
   5   6     0.03  -0.33  -0.35    -0.00   0.02   0.02    -0.13   0.18  -0.19
   6  17    -0.03   0.29   0.31    -0.00   0.01   0.01     0.47  -0.21   0.23
   7   1     0.05   0.09   0.02    -0.18  -0.12   0.53    -0.11  -0.10   0.07
   8   1    -0.01   0.13   0.14     0.03  -0.37  -0.38     0.06  -0.13   0.11
   9   1    -0.06   0.01   0.09     0.14   0.54  -0.10    -0.08  -0.11   0.08
  10   1     0.03  -0.06  -0.28     0.00   0.00   0.02    -0.08   0.04  -0.05
  11   1    -0.00  -0.27  -0.08    -0.01   0.02   0.00    -0.07   0.03  -0.05
                      4                      5                      6
                        a                      a                      a 
 Frequencies --   172.8087               269.4685               368.6705
 Red. masses --    10.5988                16.6971                18.1378
 Frc consts  --     0.0000                 0.0000                 0.0000
 IR Inten    --     9.6933                18.1399                 1.1883
 Raman Activ --     0.0000                 0.0000                 0.0000
 Depolar     --     0.0000                 0.0000                 0.0000
 Atom AN      X      Y      Z        X      Y      Z        X      Y      Z
   1   6    -0.03   0.28   0.32     0.09   0.27  -0.26    -0.51  -0.08   0.04
   2   8     0.04  -0.43  -0.45    -0.12  -0.19   0.17    -0.45   0.03  -0.06
   3   6     0.00  -0.14  -0.18    -0.11  -0.13   0.12    -0.08  -0.13   0.13
   4   8    -0.02  -0.05  -0.08    -0.57  -0.22   0.17     0.32  -0.10   0.11
   5   6    -0.02   0.19   0.18     0.05   0.09  -0.09     0.10  -0.03   0.02
   6  17     0.03   0.03   0.06     0.41   0.07  -0.04     0.43   0.21  -0.16
   7   1     0.17   0.10   0.18     0.12   0.10  -0.10    -0.18  -0.03   0.02
   8   1    -0.01   0.14   0.16    -0.10   0.14  -0.15    -0.09  -0.05   0.04
   9   1    -0.20   0.15   0.11     0.12   0.11  -0.09    -0.19  -0.04   0.02
  10   1     0.04   0.03   0.21     0.03   0.03  -0.02     0.07   0.00  -0.01
  11   1    -0.07   0.21   0.03     0.03   0.02  -0.02     0.08  -0.00   0.00
                      7                      8                      9
                        a                      a                      a 
 Frequencies --   550.7586               658.5823               771.7279
 Red. masses --     9.2838                12.6947                15.1561
 Frc consts  --     0.0000                 0.0000                 0.0000
 IR Inten    --    10.7427                11.0981                11.3626
 Raman Activ --     0.0000                 0.0000                 0.0000
 Depolar     --     0.0000                 0.0000                 0.0000
 Atom AN      X      Y      Z        X      Y      Z        X      Y      Z
   1   6    -0.01  -0.01  -0.01    -0.15   0.03  -0.04    -0.17   0.02  -0.03
   2   8    -0.02   0.21   0.21     0.07   0.34  -0.33    -0.03  -0.01   0.02
   3   6     0.04  -0.47  -0.48     0.29   0.04   0.01     0.10  -0.06   0.06
   4   8    -0.03   0.21   0.22    -0.46  -0.09   0.05     0.05  -0.08   0.09
   5   6     0.02  -0.14  -0.12     0.41  -0.26   0.29     0.46   0.50  -0.44
   6  17     0.00   0.04   0.04    -0.07  -0.01   0.00    -0.27  -0.25   0.21
   7   1    -0.07  -0.01  -0.03    -0.14  -0.02   0.01    -0.05   0.00  -0.00
   8   1     0.00  -0.03  -0.03     0.12  -0.07   0.08    -0.02  -0.00   0.00
   9   1     0.06  -0.03  -0.01    -0.14  -0.02   0.01    -0.05  -0.00  -0.01
  10   1     0.19  -0.08   0.34     0.12  -0.07   0.06     0.15   0.13  -0.09
  11   1    -0.21   0.32  -0.07     0.13  -0.07   0.08     0.15   0.12  -0.11
                     10                     11                     12
                        a                      a                      a 
 Frequencies --   884.2502               905.8772              1013.9034
 Red. masses --     7.2865                11.5017                11.3643
 Frc consts  --     0.0000                 0.0000                 0.0000
 IR Inten    --    24.0280                17.2938                23.8844
 Raman Activ --     0.0000                 0.0000                 0.0000
 Depolar     --     0.0000                 0.0000                 0.0000
 Atom AN      X      Y      Z        X      Y      Z        X      Y      Z
   1   6     0.01   0.01   0.00     0.20   0.05  -0.03    -0.55   0.06  -0.10
   2   8    -0.00   0.07   0.05     0.04   0.31  -0.30     0.45  -0.14   0.17
   3   6     0.03  -0.35  -0.35     0.13  -0.18   0.20     0.47   0.06  -0.03
   4   8    -0.01   0.08   0.10     0.03  -0.34   0.33    -0.03  -0.06   0.06
   5   6    -0.04   0.35   0.37    -0.42   0.17  -0.21    -0.20   0.03  -0.04
   6  17     0.01  -0.07  -0.07     0.04   0.02  -0.01     0.01   0.03  -0.03
   7   1    -0.01  -0.00  -0.00    -0.11  -0.03   0.03    -0.04   0.03  -0.03
   8   1     0.01  -0.01  -0.00     0.30  -0.11   0.13    -0.20   0.05  -0.06
   9   1     0.01  -0.00   0.00    -0.11  -0.04   0.02    -0.04   0.02  -0.03
  10   1     0.05   0.21  -0.43    -0.15   0.03  -0.03    -0.22  -0.02  -0.00
  11   1    -0.04  -0.44   0.17    -0.15   0.05  -0.06    -0.23  -0.03   0.00
                     13                     14                     15
                        a                      a                      a 
 Frequencies --  1087.4526              1119.8524              1133.3572
 Red. masses --     2.0598                 3.8183                10.5926
 Frc consts  --     0.0000                 0.0000                 0.0000
 IR Inten    --     3.8245                 1.4348               268.1570
 Raman Activ --     0.0000                 0.0000                 0.0000
 Depolar     --     0.0000                 0.0000                 0.0000
 Atom AN      X      Y      Z        X      Y      Z        X      Y      Z
   1   6    -0.01   0.01   0.01    -0.02   0.30   0.30    -0.22   0.20  -0.21
   2   8     0.01   0.02   0.02     0.01  -0.16  -0.16     0.55  -0.01   0.05
   3   6     0.01  -0.19  -0.19     0.00   0.01   0.01    -0.54  -0.10   0.06
   4   8    -0.00   0.03   0.03     0.00  -0.01  -0.01     0.06   0.01  -0.00
   5   6    -0.00   0.03   0.03    -0.00   0.01   0.01    -0.08  -0.06   0.05
   6  17    -0.00   0.05   0.05     0.00  -0.00  -0.00     0.01  -0.01   0.01
   7   1    -0.02   0.00  -0.01    -0.51   0.03  -0.30    -0.14   0.01   0.03
   8   1    -0.00  -0.01  -0.01     0.01  -0.17  -0.17     0.23  -0.08   0.10
   9   1     0.01  -0.01   0.00     0.53  -0.26   0.06    -0.13  -0.04  -0.02
  10   1    -0.67  -0.11   0.05     0.01   0.00  -0.01     0.26   0.04  -0.02
  11   1     0.66   0.11  -0.04    -0.01  -0.01   0.00     0.24   0.04  -0.01
                     16                     17                     18
                        a                      a                      a 
 Frequencies --  1152.9385              1220.4748              1383.6550
 Red. masses --     7.2852                 6.2414                 1.9845
 Frc consts  --     0.0000                 0.0000                 0.0000
 IR Inten    --    53.8874                86.2973                24.1381
 Raman Activ --     0.0000                 0.0000                 0.0000
 Depolar     --     0.0000                 0.0000                 0.0000
 Atom AN      X      Y      Z        X      Y      Z        X      Y      Z
   1   6     0.12   0.25  -0.24     0.03   0.01  -0.01     0.14  -0.00   0.01
   2   8    -0.22  -0.33   0.31    -0.15  -0.10   0.09     0.04  -0.00   0.01
   3   6     0.16   0.08  -0.07     0.41   0.09  -0.06    -0.03   0.01  -0.01
   4   8    -0.00   0.12  -0.11    -0.06   0.04  -0.05     0.01  -0.02   0.02
   5   6     0.12  -0.00   0.02    -0.46  -0.04   0.00     0.08  -0.17   0.17
   6  17    -0.01   0.01  -0.01    -0.00  -0.03   0.03    -0.01  -0.01   0.01
   7   1    -0.30  -0.04   0.09    -0.05  -0.01   0.01    -0.21  -0.04  -0.02
   8   1     0.46  -0.15   0.18     0.01   0.00   0.00    -0.18   0.09  -0.11
   9   1    -0.30  -0.11   0.02    -0.05  -0.01   0.01    -0.21   0.01   0.03
  10   1    -0.16  -0.04   0.03     0.50   0.10  -0.07    -0.09   0.11  -0.61
  11   1    -0.16  -0.05   0.02     0.51   0.12  -0.05    -0.13   0.60  -0.07
                     19                     20                     21
                        a                      a                      a 
 Frequencies --  1384.7914              1438.3024              1458.5216
 Red. masses --     2.4012                 1.5216                 1.5886
 Frc consts  --     0.0000                 0.0000                 0.0000
 IR Inten    --     2.4510                 9.7539                 5.9182
 Raman Activ --     0.0000                 0.0000                 0.0000
 Depolar     --     0.0000                 0.0000                 0.0000
 Atom AN      X      Y      Z        X      Y      Z        X      Y      Z
   1   6    -0.30   0.01  -0.03     0.01  -0.15  -0.15    -0.01  -0.15   0.15
   2   8    -0.12  -0.01  -0.00     0.00  -0.03  -0.03     0.01  -0.04   0.04
   3   6     0.06   0.00   0.00     0.00  -0.00  -0.00     0.01  -0.01   0.01
   4   8    -0.00   0.02  -0.02    -0.00   0.00   0.00     0.00   0.02  -0.02
   5   6     0.02  -0.08   0.07    -0.00   0.00   0.00    -0.00  -0.00   0.00
   6  17    -0.00  -0.00   0.00     0.00  -0.00  -0.00    -0.00   0.00  -0.00
   7   1     0.46   0.10   0.05    -0.39  -0.14   0.22    -0.08   0.10  -0.65
   8   1     0.41  -0.22   0.24    -0.04   0.50   0.51     0.18  -0.10   0.11
   9   1     0.47  -0.01  -0.06     0.38   0.25  -0.11    -0.13   0.65  -0.10
  10   1    -0.03   0.05  -0.27    -0.00   0.00  -0.00     0.00  -0.00   0.00
  11   1    -0.05   0.27  -0.03     0.00  -0.00   0.00     0.00  -0.00   0.00
                     22                     23                     24
                        a                      a                      a 
 Frequencies --  1802.3544              2976.3679              2980.0041
 Red. masses --    13.4243                 1.9626                 1.5378
 Frc consts  --     0.0000                 0.0000                 0.0000
 IR Inten    --   345.0675                 0.2725                 1.0268
 Raman Activ --     0.0000                 0.0000                 0.0000
 Depolar     --     0.0000                 0.0000                 0.0000
 Atom AN      X      Y      Z        X      Y      Z        X      Y      Z
   1   6     0.01  -0.00   0.00    -0.00   0.01   0.01    -0.00   0.00  -0.01
   2   8     0.03   0.04  -0.04    -0.00   0.00   0.00    -0.00   0.00  -0.00
   3   6     0.15  -0.55   0.55     0.00  -0.01  -0.00     0.00  -0.00   0.01
   4   8    -0.11   0.42  -0.42    -0.00   0.00  -0.00    -0.00   0.00  -0.00
   5   6    -0.04   0.02  -0.02     0.03  -0.24  -0.16     0.03  -0.06   0.21
   6  17     0.00   0.00  -0.00    -0.00  -0.00   0.00    -0.00  -0.00   0.00
   7   1    -0.01  -0.01   0.02     0.01  -0.03  -0.01     0.00  -0.02  -0.01
   8   1    -0.03   0.01  -0.01     0.00   0.00   0.00     0.00   0.00  -0.00
   9   1    -0.01  -0.02   0.01    -0.00  -0.00  -0.01     0.00   0.01   0.05
  10   1    -0.03  -0.00  -0.02    -0.13   0.84   0.18    -0.06   0.40   0.12
  11   1    -0.03   0.02   0.00     0.03   0.03   0.39    -0.04  -0.15  -0.87
                     25                     26                     27
                        a                      a                      a 
 Frequencies --  2983.6555              2993.5984              3049.4949
 Red. masses --     1.9601                 1.3959                 1.7872
 Frc consts  --     0.0000                 0.0000                 0.0000
 IR Inten    --    10.6518                11.3184                 5.8677
 Raman Activ --     0.0000                 0.0000                 0.0000
 Depolar     --     0.0000                 0.0000                 0.0000
 Atom AN      X      Y      Z        X      Y      Z        X      Y      Z
   1   6    -0.02   0.21   0.21    -0.06   0.12  -0.13     0.14   0.17  -0.15
   2   8    -0.00   0.00   0.00    -0.01   0.00  -0.00     0.01   0.00  -0.00
   3   6     0.00  -0.00  -0.00     0.00   0.00  -0.00    -0.00   0.00  -0.00
   4   8    -0.00   0.00   0.00     0.00  -0.00   0.00     0.00  -0.00   0.00
   5   6    -0.00   0.01   0.01    -0.00   0.01  -0.01    -0.00   0.00  -0.00
   6  17    -0.00  -0.00   0.00     0.00   0.00  -0.00    -0.00  -0.00   0.00
   7   1     0.14  -0.65  -0.10     0.14  -0.66  -0.15     0.03  -0.04  -0.03
   8   1    -0.00   0.03   0.03     0.05   0.06  -0.06    -0.56  -0.58   0.52
   9   1    -0.08  -0.10  -0.66     0.08   0.15   0.67     0.02   0.04   0.04
  10   1     0.00  -0.02  -0.00     0.01  -0.03  -0.01     0.00  -0.00  -0.00
  11   1    -0.00  -0.00  -0.03     0.00   0.01   0.04     0.00   0.00   0.00
