10
 energy: -193.093972175744 gnorm: 0.030714843121 xtb: 6.7.1 (edcfbbe)
C            1.47954783805563       -0.36897283246350        0.41949463598589
C            0.66827112549613        0.54632145254209       -0.48664847401565
C           -0.81130951295951        0.33265092144741       -0.35331259115656
O           -1.34466377179586       -0.45792305830292        0.37073518316428
H            1.27058580976303       -1.40927849422449        0.18384934558147
H            1.21166509633692       -0.19904973908820        1.45910812794657
H            2.54375093872720       -0.18643776808262        0.29544855763092
H            0.87034018508567        1.59798832650811       -0.26378223861689
H            0.92989230961206        0.38998359097281       -1.53719097898117
H           -1.40803953832394        0.99827110164236       -1.01184317904837
10
 energy: -193.094625776314 gnorm: 0.006881158399 xtb: 6.7.1 (edcfbbe)
C            1.48694324420343       -0.37275701748816        0.42342992887481
C            0.66876454823032        0.54063124622531       -0.48117770002759
C           -0.81793502633857        0.34202601555586       -0.36253923414526
O           -1.35044229918294       -0.45622234342909        0.36866244767730
H            1.28151634006522       -1.41973453996272        0.19418621667835
H            1.22287745485568       -0.20913693113465        1.46958458120590
H            2.55558887485288       -0.18913300181818        0.29827558492509
H            0.86512538794175        1.60113639109936       -0.27391987916678
H            0.92447666424714        0.40018223540390       -1.54001693047726
H           -1.42687463304965        1.00656147829078       -1.02062659123812
10
 energy: -193.094662819323 gnorm: 0.001428261630 xtb: 6.7.1 (edcfbbe)
C            1.48561882168582       -0.37357842932916        0.42417276797856
C            0.66932270371489        0.53925287567816       -0.47980162997860
C           -0.81826085029801        0.34327338984963       -0.36384227075592
O           -1.35067680842881       -0.45658893515071        0.36871237421906
H            1.28290677749617       -1.42304985833561        0.19728874311138
H            1.22461248196456       -0.21200727302784        1.47287097668581
H            2.55519106235380       -0.18845091580785        0.29730982739234
H            0.86636055870001        1.60283997865863       -0.27856225153100
H            0.92565999545002        0.40510967904511       -1.54137004461055
H           -1.43069417970146        1.00675302252964       -1.02092006670237
10
 energy: -193.094665092929 gnorm: 0.000381186340 xtb: 6.7.1 (edcfbbe)
C            1.48509025677058       -0.37311890442069        0.42373564469778
C            0.66895097117982        0.53850190748809       -0.47902577722243
C           -0.81830769643075        0.34338981458693       -0.36394972788744
O           -1.35081754857019       -0.45664005653388        0.36840232135175
H            1.28261498259970       -1.42284987615321        0.19737189753882
H            1.22477289280683       -0.21171275587624        1.47273331223606
H            2.55489638301733       -0.18847501016103        0.29694223216995
H            0.86744442462711        1.60252996067588       -0.27902496757887
H            0.92676765234881        0.40580389051724       -1.54090219333304
H           -1.43137175726046        1.00612455969007       -1.02042431421167
10
 energy: -193.094665092929 gnorm: 0.000381186340 xtb: 6.7.1 (edcfbbe)
C            1.48509025677058       -0.37311890442069        0.42373564469778
C            0.66895097117982        0.53850190748809       -0.47902577722243
C           -0.81830769643075        0.34338981458693       -0.36394972788744
O           -1.35081754857019       -0.45664005653388        0.36840232135175
H            1.28261498259970       -1.42284987615321        0.19737189753882
H            1.22477289280683       -0.21171275587624        1.47273331223606
H            2.55489638301733       -0.18847501016103        0.29694223216995
H            0.86744442462711        1.60252996067588       -0.27902496757887
H            0.92676765234881        0.40580389051724       -1.54090219333304
H           -1.43137175726046        1.00612455969007       -1.02042431421167
