10
 energy: -15.446741094108 gnorm: 0.024380303617 xtb: 6.7.1 (edcfbbe)
C           -0.57344980128205        0.01313858591365        0.49520402037736
C            0.57345769293897       -0.01200703154869       -0.49523019013089
O            1.77907287024154        0.01330109983407        0.27195212773247
O           -1.77906079674655       -0.01368201376376       -0.27193389728232
H           -0.50209548575619        0.92411570651461        1.10792200722118
H           -0.49573878833975       -0.85972568000036        1.16039679857572
H            0.49653219055330        0.86139352250012       -1.15981219830208
H            0.50131174527571       -0.92248906225296       -1.10858829316107
H            2.52304872452857        0.00024766042546       -0.33738217855249
H           -2.52303224370324       -0.00119959241111        0.33741976311881
10
 energy: -15.447314469821 gnorm: 0.009960871856 xtb: 6.7.1 (edcfbbe)
C           -0.58251125257661        0.01285514908001        0.48886949518780
C            0.58251875502674       -0.01177778525572       -0.48889352570427
O            1.78633610293239        0.01314543329311        0.26034201794484
O           -1.78632448275085       -0.01344575917208       -0.26032597549940
H           -0.52210138443265        0.92180497802140        1.10072489001384
H           -0.51560328439253       -0.85813254416615        1.15300287573767
H            0.51630988193016        0.85969658120996       -1.15245767344809
H            0.52140642512220       -0.92027926981079       -1.10134541665017
H            2.52789726645972       -0.00028201102435       -0.35293826280425
H           -2.52788191960825       -0.00049157696435        0.35296953481873
10
 energy: -15.447385243901 gnorm: 0.003574758756 xtb: 6.7.1 (edcfbbe)
C           -0.58433282253140        0.01275678568783        0.48845880700310
C            0.58434043062455       -0.01173740224819       -0.48848106379466
O            1.78244644569612        0.01328362716539        0.25888848389413
O           -1.78243500597199       -0.01349625118760       -0.25887477647239
H           -0.52127645175827        0.92226861877847        1.09891250327175
H           -0.51469901363462       -0.85887326388652        1.15118286679225
H            0.51532301107873        0.86033316604152       -1.15068786549267
H            0.52066517250155       -0.92084364743813       -1.09947680220921
H            2.52576479818767       -0.00037305492952       -0.35244873907286
H           -2.52575045648204       -0.00022538277222        0.35247454567725
10
 energy: -15.447399829036 gnorm: 0.000574973688 xtb: 6.7.1 (edcfbbe)
C           -0.58528544568697        0.01267641167864        0.48859044993250
C            0.58529333451394       -0.01172347414104       -0.48861077531915
O            1.78043165564644        0.01349849235266        0.25888527111211
O           -1.78042032989533       -0.01360124856765       -0.25887463393476
H           -0.51870017246073        0.92196797454468        1.09974225975897
H           -0.51207119631905       -0.85871008156685        1.15193791579347
H            0.51260685145841        0.86004592986165       -1.15151192143485
H            0.51817813610724       -0.92066238671298       -1.10023040713785
H            2.52570516503639       -0.00039767867798       -0.35018243541538
H           -2.52569189069003       -0.00000074356011        0.35020223624163
10
 energy: -15.447400743973 gnorm: 0.000307341764 xtb: 6.7.1 (edcfbbe)
C           -0.58535628792487        0.01260917173918        0.48890408970295
C            0.58536447351403       -0.01172271396993       -0.48892241655404
O            1.77996292646160        0.01371662579848        0.25891944530407
O           -1.77995174484862       -0.01369649958739       -0.25891240185712
H           -0.51767751412500        0.92171049829013        1.10093955903011
H           -0.51101385016855       -0.85858602071194        1.15305264579060
H            0.51145724024489        0.85978795633006       -1.15270466513710
H            0.51724858528045       -0.92053347900212       -1.10134184528633
H            2.52628044834891       -0.00043256130863       -0.34889717804115
H           -2.52626816907254        0.00024021763319        0.34891072664470
10
 energy: -15.447400871621 gnorm: 0.000041146606 xtb: 6.7.1 (edcfbbe)
C           -0.58526177666111        0.01257701109391        0.48882666735662
C            0.58527007107770       -0.01171768710294       -0.48884416416941
O            1.78017128851449        0.01380001913018        0.25882706608753
O           -1.78016023636395       -0.01372513167520       -0.25882163689782
H           -0.51793413772227        0.92172744584847        1.10073312768155
H           -0.51125975769981       -0.85870401024813        1.15281786572732
H            0.51166124234802        0.85984792282859       -1.15250410152185
H            0.51754747769732       -0.92060608484715       -1.10109780014601
H            2.52635965875014       -0.00046382622518       -0.34913254918622
H           -2.52634772223021        0.00035753640848        0.34914348466498
10
 energy: -15.447400877037 gnorm: 0.000014493319 xtb: 6.7.1 (edcfbbe)
C           -0.58524238593759        0.01253689553956        0.48883665186561
C            0.58525083205207       -0.01171438603756       -0.48885304241806
O            1.78011071316561        0.01391368411936        0.25880163148241
O           -1.78009984044030       -0.01376447307893       -0.25879836488972
H           -0.51793833547123        0.92166725034616        1.10075421503879
H           -0.51125195392704       -0.85875854508404        1.15279506975264
H            0.51159759932348        0.85982494722788       -1.15252751873901
H            0.51760801887519       -0.92062021833221       -1.10106817937521
H            2.52633112440034       -0.00049581365543       -0.34911261874452
H           -2.52631966433021        0.00050385416623        0.34912011562377
