
                                 *****************
                                 * O   R   C   A *
                                 *****************

                                            #,                                       
                                            ###                                      
                                            ####                                     
                                            #####                                    
                                            ######                                   
                                           ########,                                 
                                     ,,################,,,,,                         
                               ,,#################################,,                 
                          ,,##########################################,,             
                       ,#########################################, ''#####,          
                    ,#############################################,,   '####,        
                  ,##################################################,,,,####,       
                ,###########''''           ''''###############################       
              ,#####''   ,,,,##########,,,,          '''####'''          '####       
            ,##' ,,,,###########################,,,                        '##       
           ' ,,###''''                  '''############,,,                           
         ,,##''                                '''############,,,,        ,,,,,,###''
      ,#''                                            '''#######################'''  
     '                                                          ''''####''''         
             ,#######,   #######,   ,#######,      ##                                
            ,#'     '#,  ##    ##  ,#'     '#,    #''#        ,####,   ,####,        
            ##       ##  ##   ,#'  ##            #'  '#       #'       #'  '#        
            ##       ##  #######   ##           ,######,      #####,   #    #        
            '#,     ,#'  ##    ##  '#,     ,#' ,#      #,     #,   #   #,  ,#        
             '#######'   ##     ##  '#######'  #'      '#     '####' # '####'        



                #########################################################
                #                        -***-                          #
                #          Department of theory and spectroscopy        #
                #                                                       #
                #                      Frank Neese                      #
                #                                                       #
                #     Directorship, Architecture, Infrastructure        #
                #                    SHARK, DRIVERS                     #
                #        Core code/Algorithms in most modules           #
                #                                                       #
                #        Max Planck Institute fuer Kohlenforschung      #
                #                Kaiser Wilhelm Platz 1                 #
                #                 D-45470 Muelheim/Ruhr                 #
                #                      Germany                          #
                #                                                       #
                #                  All rights reserved                  #
                #                        -***-                          #
                #########################################################


                         Program Version 6.0.1  -  RELEASE   -


 With contributions from (in alphabetic order):
[Max-Planck-Institut fuer Kohlenforschung]                               
  Daniel Aravena         : Magnetic Suceptibility                        
  Michael Atanasov       : Ab Initio Ligand Field Theory (pilot matlab implementation)
  Alexander A. Auer      : GIAO ZORA, VPT2 properties, NMR spectrum      
  Ute Becker             : All parallelization in ORCA, NUMFREQ, NUMCALC 
  Giovanni Bistoni       : ED, misc. LED, open-shell LED, HFLD           
  Martin Brehm           : Molecular dynamics                            
  Dmytro Bykov           : pre 5.0 version of the SCF Hessian            
  Marcos Casanova-Páez   : Triplet and SCS-CIS(D). UHF-(DLPNO)-IP/EA/STEOM-CCSD. UHF-CVS-IP/STEOM-CCSD   
  Vijay G. Chilkuri      : MRCI spin determinant printing, contributions to CSF-ICE 
  Pauline Colinet        : FMM embedding                                 
  Dipayan Datta          : RHF DLPNO-CCSD density                        
  Achintya Kumar Dutta   : EOM-CC, STEOM-CC                              
  Nicolas Foglia         : Exact transition moments, OPA infrastructure, MCD improvements    
  Dmitry Ganyushin       : Spin-Orbit,Spin-Spin,Magnetic field MRCI      
  Miquel Garcia-Rates    : C-PCM and meta-GGA Hessian, CCSD/C-PCM, Gaussian charge scheme 
  Tiago L. C. Gouveia    : GS-ROHF, GS-ROCIS                             
  Yang Guo               : DLPNO-NEVPT2, F12-NEVPT2, CIM, IAO-localization        
  Andreas Hansen         : Spin unrestricted coupled pair/coupled cluster methods 
  Ingolf Harden          : AUTO-CI MPn and infrastructure                
  Benjamin Helmich-Paris : MC-RPA, TRAH-(SCF,CASSCF), AVAS, COSX integrals, SCF dyn. polar. 
  Lee Huntington         : MR-EOM, pCC                                   
  Robert Izsak           : Overlap fitted RIJCOSX, COSX-SCS-MP3, EOM     
  Riya Kayal             : Wick's Theorem for AUTO-CI, AUTO-CI UHF-CCSDT 
  Emily Kempfer          : AUTO-CI, RHF CISDT and CCSDT                  
  Christian Kollmar      : KDIIS, OOCD, Brueckner-CCSD(T), CCSD density, CASPT2, CASPT2-K, improved NEVPT2 
  Axel Koslowski         : Symmetry handling                             
  Simone Kossmann        : meta-GGA functionals, TD-DFT gradient, OOMP2, (MP2 Hessian; deprecated post 5.0) 
  Lucas Lang             : DCDCAS                                        
  Marvin Lechner         : AUTO-CI (C++ implementation), FIC-MRCC        
  Spencer Leger          : CASSCF response                               
  Dagmar Lenk            : GEPOL surface, SMD, ORCA-2-JSON               
  Dimitrios Liakos       : Extrapolation schemes; Compound Job, initial MDCI parallelization 
  Dimitrios Manganas     : Further ROCIS development; embedding schemes. LFT, Crystal Embedding 
  Dimitrios Pantazis     : SARC Basis sets                               
  Anastasios Papadopoulos: AUTO-CI, single reference methods and gradients 
  Taras Petrenko         : pre 6.0 DFT Hessian and TD-DFT gradient, (ASA, deprecated), ECA, 1-Electron XAS/XES, NRVS 
  Peter Pinski           : DLPNO-MP2, DLPNO-MP2 Gradient                 
  Christoph Reimann      : Effective Core Potentials                     
  Marius Retegan         : Local ZFS, SOC                                
  Christoph Riplinger    : Optimizer, TS searches, QM/MM, DLPNO-CCSD(T), (RO)-DLPNO pert. Triples 
  Michael Roemelt        : Original ROCIS implementation                 
  Masaaki Saitow         : Open-shell DLPNO-CCSD energy and density      
  Barbara Sandhoefer     : DKH picture change effects                    
  Kantharuban Sivalingam : CASSCF convergence/infrastructure, NEVPT2 and variants, FIC-MRCI 
  Bernardo de Souza      : ESD, SOC TD-DFT                               
  Georgi L. Stoychev     : AutoAux, RI-MP2 NMR, DLPNO-MP2 response, X2C  
  Van Anh Tran           : RI-MP2 g-tensors                              
  Willem Van den Heuvel  : Paramagnetic NMR                              
  Zikuan Wang            : NOTCH, Electric field optimization            
  Frank Wennmohs         : Technical directorship and infrastructure     
  Hang Xu                : AUTO-CI-Response properties                   
                                                                         
[FACCTs GmbH]                                                            
  Markus Bursch, Miquel Garcia-Rates, Christoph Riplinger, Bernardo de Souza, Georgi L. Stoychev 
                                                                 
  APM, Basis sets (HGBS, AHGBS, def-TZVP (Ac-Lr), def2-XVPD (La-Lu)), CI-OPT, improved COSX, DLPNO-Multilevel,           
  DOCKER, DRACO, updates on ESD, GOAT, IRC, LR-CPCM, MBIS, meta-GGA TD-DFT gradient, ML-optimized integration grids, 
  MM, NACMEs, nearIR, NEB, NEB-TS, NL-DFT gradient (VV10), 2- and 3-layer-ONIOM, interface openCOSMO-RS, QMMM,   
  Crystal-QMMM, SF, symmetry and pop. for TD-DFT, r2SCAN hybrids, SOLVATOR                                   
                                                                         
[Other institutions]                                                     
  V. Asgeirsson          : NEB                                           
  Christoph Bannwarth    : sTDA-DFT, sTD-DFT, PBEh-3c, B97-3c, D3        
  Sebastian Ehlert       : rSCAN, r2SCAN, r2SCAN-3c, D4, dhf basis sets  
  Marvin Friede          : D4 for Fr, Ra, Ac-Lr                          
  Lars Goerigk           : TD-DFT with DH, B97 family of functionals     
  Stefan Grimme          : VdW corrections, initial TS optimization, DFT functionals, gCP, sTDA/sTD-DF 
  Waldemar Hujo          : DFT-NL                                        
  H. Jonsson             : NEB                                           
  Holger Kruse           : gCP                                           
  Marcel Mueller         : wB97X-3c, vDZP basis set                      
  Hagen Neugebauer       : wr2SCAN                                       
  Tobias Risthaus        : range-separated hybrid DFT                    
  Lukas Wittmann         : regularized MP2, r2SCAN double-hybrids, wr2SCAN        
                                                                         
We gratefully acknowledge several colleagues who have allowed us to      
interface, adapt or use parts of their codes:                            
  Ed Valeev, F. Pavosevic, A. Kumar             : LibInt (2-el integral package), F12 methods 
  Garnet Chan, S. Sharma, J. Yang, R. Olivares  : DMRG                   
  Ulf Ekstrom                                   : XCFun DFT Library      
  Mihaly Kallay                                 : mrcc  (arbitrary order and MRCC methods)
  Frank Weinhold                                : gennbo (NPA and NBO analysis)           
  Simon Mueller                                 : openCOSMO-RS                            
  Christopher J. Cramer and Donald G. Truhlar   : smd solvation model                     
  S Lehtola, MJT Oliveira, MAL Marques          : LibXC Library                           
  Liviu Ungur et al                             : ANISO software                          


 Your calculation uses the libint2 library for the computation of 2-el integrals
 For citations please refer to: http://libint.valeyev.net

 Your ORCA version has been built with support for libXC version: 6.2.2
 For citations please refer to: https://libxc.gitlab.io

 This ORCA versions uses:
   CBLAS   interface :  Fast vector & matrix operations
   LAPACKE interface :  Fast linear algebra routines
   SCALAPACK package :  Parallel linear algebra routines
   Shared memory     :  Shared parallel matrices
   BLAS/LAPACK       :  OpenBLAS 0.3.27  USE64BITINT DYNAMIC_ARCH NO_AFFINITY Zen SINGLE_THREADED
        Core in use  :  Zen
   Copyright (c) 2011-2014, The OpenBLAS Project


Your calculation utilizes the geometrical counterpoise correction gCP
Please cite in your paper:
H.Kruse, S. Grimme J.Chem.Phys., 136, (2012), 154101 
   

Your calculation utilizes the atom-pairwise dispersion correction
based on EEQ partial charges (D4)


================================================================================

----- Orbital basis set information -----
Your calculation utilizes the basis: def2-SV(P)
   F. Weigend and R. Ahlrichs, Phys. Chem. Chem. Phys. 7, 3297 (2005).

----- AuxJ basis set information -----
Your calculation utilizes the auxiliary basis: def2/J
   F. Weigend, Phys. Chem. Chem. Phys. 8, 1057 (2006).

================================================================================
                                        WARNINGS
                       Please study these warnings very carefully!
================================================================================


================================================================================
                                       INPUT FILE
================================================================================
NAME = sp.inp
|  1> ! pbe def2-sv(p) def2/J RI DEFGRID1 loosescf d4 GCP(DFT/SV(P)) printgap
|  2> %output
|  3>     printlevel normal
|  4> end
|  5> * xyz 0 1
|  6> C -1.7546706292 -1.0457990605 -0.6823367777
|  7> C -1.1123813336 -0.5066232488 0.6165455225
|  8> H -1.8245161714 -0.6467198852 1.4401901019
|  9> C -0.7413223477 0.9798893899 0.5764407469
| 10> H -1.6196392157 1.5800506037 0.3140322777
| 11> C 0.3787066835 1.2334049453 -0.4502365198
| 12> H 0.706326318 2.2818560832 -0.3440073365
| 13> C 1.5903209424 0.3520984719 -0.095748077
| 14> H 2.2651007435 0.2788837829 -0.9584786711
| 15> C 1.1999435154 -1.1048709114 0.2545841845
| 16> H 1.991703032 -1.504506026 0.9108195694
| 17> O 0.0333567533 -1.2513307519 1.0245130649
| 18> O 1.1509909143 -1.8239229421 -0.9435124752
| 19> O 2.3315774124 0.9389420915 0.938149677
| 20> O -0.1353111176 1.0220149171 -1.7410922146
| 21> O -0.2888744169 1.3872300146 1.855248043
| 22> O -2.703965587 -0.1658203674 -1.2175931255
| 23> H -2.2830503879 -1.9730488414 -0.4437961703
| 24> H -0.9716146768 -1.2621468702 -1.4137975284
| 25> H 0.9351017204 -2.743647755 -0.7480491246
| 26> H 1.7073404398 1.2877774294 1.5952363188
| 27> H 0.5959524842 0.9594486468 -2.3654748126
| 28> H -0.2019881064 0.598167907 2.4072428143
| 29> H -2.2199335692 0.5387383284 -1.6687053949
| 30> *
| 31> 
| 32>                          ****END OF INPUT****
================================================================================

                       ****************************
                       * Single Point Calculation *
                       ****************************

---------------------------------
CARTESIAN COORDINATES (ANGSTROEM)
---------------------------------
  C     -1.754671   -1.045799   -0.682337
  C     -1.112381   -0.506623    0.616546
  H     -1.824516   -0.646720    1.440190
  C     -0.741322    0.979889    0.576441
  H     -1.619639    1.580051    0.314032
  C      0.378707    1.233405   -0.450237
  H      0.706326    2.281856   -0.344007
  C      1.590321    0.352098   -0.095748
  H      2.265101    0.278884   -0.958479
  C      1.199944   -1.104871    0.254584
  H      1.991703   -1.504506    0.910820
  O      0.033357   -1.251331    1.024513
  O      1.150991   -1.823923   -0.943512
  O      2.331577    0.938942    0.938150
  O     -0.135311    1.022015   -1.741092
  O     -0.288874    1.387230    1.855248
  O     -2.703966   -0.165820   -1.217593
  H     -2.283050   -1.973049   -0.443796
  H     -0.971615   -1.262147   -1.413798
  H      0.935102   -2.743648   -0.748049
  H      1.707340    1.287777    1.595236
  H      0.595952    0.959449   -2.365475
  H     -0.201988    0.598168    2.407243
  H     -2.219934    0.538738   -1.668705

----------------------------
CARTESIAN COORDINATES (A.U.)
----------------------------
  NO LB      ZA    FRAG     MASS         X           Y           Z
   0 C     6.0000    0    12.011   -3.315847   -1.976274   -1.289430
   1 C     6.0000    0    12.011   -2.102096   -0.957379    1.165102
   2 H     1.0000    0     1.008   -3.447836   -1.222123    2.721565
   3 C     6.0000    0    12.011   -1.400896    1.851723    1.089315
   4 H     1.0000    0     1.008   -3.060675    2.985863    0.593435
   5 C     6.0000    0    12.011    0.715652    2.330798   -0.850824
   6 H     1.0000    0     1.008    1.334763    4.312083   -0.650080
   7 C     6.0000    0    12.011    3.005271    0.665370   -0.180938
   8 H     1.0000    0     1.008    4.280420    0.527014   -1.811262
   9 C     6.0000    0    12.011    2.267565   -2.087903    0.481094
  10 H     1.0000    0     1.008    3.763773   -2.843104    1.721200
  11 O     8.0000    0    15.999    0.063035   -2.364672    1.936049
  12 O     8.0000    0    15.999    2.175058   -3.446715   -1.782980
  13 O     8.0000    0    15.999    4.406043    1.774343    1.772846
  14 O     8.0000    0    15.999   -0.255701    1.931328   -3.290187
  15 O     8.0000    0    15.999   -0.545894    2.621485    3.505911
  16 O     8.0000    0    15.999   -5.109754   -0.313355   -2.300918
  17 H     1.0000    0     1.008   -4.314340   -3.728522   -0.838653
  18 H     1.0000    0     1.008   -1.836086   -2.385112   -2.671690
  19 H     1.0000    0     1.008    1.767086   -5.184743   -1.413608
  20 H     1.0000    0     1.008    3.226406    2.433547    3.014560
  21 H     1.0000    0     1.008    1.126187    1.813095   -4.470100
  22 H     1.0000    0     1.008   -0.381702    1.130374    4.549030
  23 H     1.0000    0     1.008   -4.195066    1.018068   -3.153396

--------------------------------
INTERNAL COORDINATES (ANGSTROEM)
--------------------------------
 C      0   0   0     0.000000000000     0.00000000     0.00000000
 C      1   0   0     1.546072871807     0.00000000     0.00000000
 H      2   1   0     1.097794829608   108.44063909     0.00000000
 C      2   1   3     1.532649010393   114.63494624   239.91105219
 H      4   2   1     1.095669753106   110.08778630    55.26883556
 C      4   2   1     1.540390008251   110.67703816   294.13030880
 H      6   4   2     1.103571045678   107.94231017   187.71261103
 C      6   4   2     1.539601334276   108.93766577   303.25599771
 H      8   6   4     1.097721389358   109.93641202   162.74038126
 C      8   6   4     1.548511224639   113.09664147    44.90396285
 H     10   8   6     1.103284295793   107.12522534   205.48274344
 O     10   8   6     1.405405862824   115.54702843   320.09355268
 O     10   8   6     1.398165864979   107.38804673    86.88530966
 O      8   6   4     1.400996486044   110.27453308   279.77738655
 O      6   4   2     1.405421100122   108.75289176    68.55405873
 O      4   2   1     1.416327509856   109.43029389   174.24330743
 O      1   2   3     1.400722233376   112.55004862    77.20251867
 H      1   2   3     1.093562502540   108.25044749   319.43028332
 H      1   2   3     1.093168710294   109.48595078   200.81977819
 H     13  10   8     0.964731981918   108.93577001   178.30934701
 H     14   8   6     0.971144039657   108.04045057    41.98465592
 H     15   6   4     0.963594635820   109.10870092   194.11000012
 H     16   4   2     0.966884930147   108.02699576     8.17089548
 H     17   1   2     0.966536201953   107.27197003    77.95653521

---------------------------
INTERNAL COORDINATES (A.U.)
---------------------------
 C      0   0   0     0.000000000000     0.00000000     0.00000000
 C      1   0   0     2.921654310800     0.00000000     0.00000000
 H      2   1   0     2.074531579194   108.44063909     0.00000000
 C      2   1   3     2.896286889068   114.63494624   239.91105219
 H      4   2   1     2.070515766591   110.08778630    55.26883556
 C      4   2   1     2.910915255023   110.67703816   294.13030880
 H      6   4   2     2.085447045656   107.94231017   187.71261103
 C      6   4   2     2.909424877202   108.93766577   303.25599771
 H      8   6   4     2.074392797234   109.93641202   162.74038126
 C      8   6   4     2.926262129870   113.09664147    44.90396285
 H     10   8   6     2.084905166904   107.12522534   205.48274344
 O     10   8   6     2.655832187745   115.54702843   320.09355268
 O     10   8   6     2.642150574607   107.38804673    86.88530966
 O      8   6   4     2.647499673210   110.27453308   279.77738655
 O      6   4   2     2.655860982065   108.75289176    68.55405873
 O      4   2   1     2.676471109566   109.43029389   174.24330743
 O      1   2   3     2.646981410776   112.55004862    77.20251867
 H      1   2   3     2.066533640126   108.25044749   319.43028332
 H      1   2   3     2.065789480627   109.48595078   200.81977819
 H     13  10   8     1.823079238459   108.93577001   178.30934701
 H     14   8   6     1.835196271541   108.04045057    41.98465592
 H     15   6   4     1.820929965816   109.10870092   194.11000012
 H     16   4   2     1.827147720993   108.02699576     8.17089548
 H     17   1   2     1.826488720212   107.27197003    77.95653521

---------------------
BASIS SET INFORMATION
---------------------
There are 3 groups of distinct atoms

 Group   1 Type C   : 7s4p1d contracted to 3s2p1d pattern {511/31/1}
 Group   2 Type H   : 4s contracted to 2s pattern {31}
 Group   3 Type O   : 7s4p1d contracted to 3s2p1d pattern {511/31/1}

Atom   0C    basis set group =>   1
Atom   1C    basis set group =>   1
Atom   2H    basis set group =>   2
Atom   3C    basis set group =>   1
Atom   4H    basis set group =>   2
Atom   5C    basis set group =>   1
Atom   6H    basis set group =>   2
Atom   7C    basis set group =>   1
Atom   8H    basis set group =>   2
Atom   9C    basis set group =>   1
Atom  10H    basis set group =>   2
Atom  11O    basis set group =>   3
Atom  12O    basis set group =>   3
Atom  13O    basis set group =>   3
Atom  14O    basis set group =>   3
Atom  15O    basis set group =>   3
Atom  16O    basis set group =>   3
Atom  17H    basis set group =>   2
Atom  18H    basis set group =>   2
Atom  19H    basis set group =>   2
Atom  20H    basis set group =>   2
Atom  21H    basis set group =>   2
Atom  22H    basis set group =>   2
Atom  23H    basis set group =>   2
---------------------------------
AUXILIARY/J BASIS SET INFORMATION
---------------------------------
There are 3 groups of distinct atoms

 Group   1 Type C   : 12s5p4d2f1g contracted to 6s4p3d1f1g pattern {711111/2111/211/2/1}
 Group   2 Type H   : 5s2p1d contracted to 3s1p1d pattern {311/2/1}
 Group   3 Type O   : 12s5p4d2f1g contracted to 6s4p3d1f1g pattern {711111/2111/211/2/1}

Atom   0C    basis set group =>   1
Atom   1C    basis set group =>   1
Atom   2H    basis set group =>   2
Atom   3C    basis set group =>   1
Atom   4H    basis set group =>   2
Atom   5C    basis set group =>   1
Atom   6H    basis set group =>   2
Atom   7C    basis set group =>   1
Atom   8H    basis set group =>   2
Atom   9C    basis set group =>   1
Atom  10H    basis set group =>   2
Atom  11O    basis set group =>   3
Atom  12O    basis set group =>   3
Atom  13O    basis set group =>   3
Atom  14O    basis set group =>   3
Atom  15O    basis set group =>   3
Atom  16O    basis set group =>   3
Atom  17H    basis set group =>   2
Atom  18H    basis set group =>   2
Atom  19H    basis set group =>   2
Atom  20H    basis set group =>   2
Atom  21H    basis set group =>   2
Atom  22H    basis set group =>   2
Atom  23H    basis set group =>   2
------------------------------------------------------------------------------
                             ORCA STARTUP CALCULATIONS
                           -- RI-GTO INTEGRALS CHOSEN --
------------------------------------------------------------------------------
------------------------------------------------------------------------------
                   ___                                                        
                  /   \      - P O W E R E D   B Y -                         
                 /     \                                                     
                 |  |  |   _    _      __       _____    __    __             
                 |  |  |  | |  | |    /  \     |  _  \  |  |  /  |          
                  \  \/   | |  | |   /    \    | | | |  |  | /  /          
                 / \  \   | |__| |  /  /\  \   | |_| |  |  |/  /          
                |  |  |   |  __  | /  /__\  \  |    /   |      \           
                |  |  |   | |  | | |   __   |  |    \   |  |\   \          
                \     /   | |  | | |  |  |  |  | |\  \  |  | \   \       
                 \___/    |_|  |_| |__|  |__|  |_| \__\ |__|  \__/        
                                                                              
                      - O R C A' S   B I G   F R I E N D -                    
                                      &                                       
                       - I N T E G R A L  F E E D E R -                       
                                                                              
 v1 FN, 2020, v2 2021, v3 2022-2024                                           
------------------------------------------------------------------------------


----------------------
SHARK INTEGRAL PACKAGE
----------------------

Number of atoms                             ...     24
Number of basis functions                   ...    192
Number of shells                            ...     96
Maximum angular momentum                    ...      2
Integral batch strategy                     ... SHARK/LIBINT Hybrid
RI-J (if used) integral strategy            ... SPLIT-RIJ (Revised 2003 algorithm where possible)
Printlevel                                  ...      1
Contraction scheme used                     ... SEGMENTED contraction
Prescreening option                         ... SCHWARTZ
   Thresh                                   ... 1.000e-09
   Tcut                                     ... 1.000e-10
   Tpresel                                  ... 1.000e-10 
Coulomb Range Separation                    ... NOT USED
Exchange Range Separation                   ... NOT USED
Multipole approximations                    ... NOT USED
Finite Nucleus Model                        ... NOT USED
CABS basis                                  ... NOT available
Auxiliary Coulomb fitting basis             ... AVAILABLE
   # of basis functions in Aux-J            ...    720
   # of shells in Aux-J                     ...    240
   Maximum angular momentum in Aux-J        ...      4
Auxiliary J/K fitting basis                 ... NOT available
Auxiliary Correlation fitting basis         ... NOT available
Auxiliary 'external' fitting basis          ... NOT available

Checking pre-screening integrals            ... done (  0.0 sec) Dimension = 96
Check shell pair data                       ... done (  0.0 sec)
Shell pair information
Shell pair cut-off parameter TPreSel        ...   1.0e-10
Total number of shell pairs                 ...      4656
Shell pairs after pre-screening             ...      4338
Total number of primitive shell pairs       ...     18720
Primitive shell pairs kept                  ...     11767
          la=0 lb=0:   1682 shell pairs
          la=1 lb=0:   1370 shell pairs
          la=1 lb=1:    295 shell pairs
          la=2 lb=0:    644 shell pairs
          la=2 lb=1:    276 shell pairs
          la=2 lb=2:     71 shell pairs

Calculating one electron integrals          ... done (  0.0 sec)
Calculating RI/J V-Matrix + Cholesky decomp.... done (  0.0 sec)
Calculating Nuclear repulsion               ... done (  0.0 sec) ENN=    868.937521173660 Eh

Diagonalization of the overlap matrix:
Smallest eigenvalue                        ... 7.927e-04
Time for diagonalization                   ...    0.003 sec
Threshold for overlap eigenvalues          ... 1.000e-07
Number of eigenvalues below threshold      ... 0
Time for construction of square roots      ...    0.003 sec
Total time needed                          ...    0.008 sec

-------------------
DFT GRID GENERATION
-------------------

General Integration Accuracy     IntAcc      ... 4.159
Radial Grid Type                 RadialGrid  ... OptM3 with GC (2021)
Angular Grid (max. ang.)         AngularGrid ... 3 (Lebedev-194)
Angular grid pruning method      GridPruning ... 4 (adaptive)
Weight generation scheme         WeightScheme... mBecke (2022)
Basis function cutoff            BFCut       ... 1.0000e-10
Integration weight cutoff        WCut        ... 1.0000e-14
Partially contracted basis set               ... off
Rotationally invariant grid construction     ... off
Angular grids for H and He will be reduced by one unit

Total number of grid points                  ...    55537
Total number of batches                      ...      881
Average number of points per batch           ...       63
Average number of grid points per atom       ...     2314
Initializing property integral containers    ... done (  0.0 sec)

SHARK setup successfully completed in   0.6 seconds

Maximum memory used throughout the entire STARTUP-calculation: 29.0 MB
-------------------------------------------------------------------------------
                                 ORCA GUESS
                   Start orbitals & Density for SCF / CASSCF
-------------------------------------------------------------------------------

------------
SCF SETTINGS
------------
Hamiltonian:
 Density Functional     Method          .... DFT(GTOs)
 Exchange Functional    Exchange        .... PBE
   PBE kappa parameter   XKappa         ....  0.804000
   PBE mue parameter    XMuePBE         ....  0.219520
 Correlation Functional Correlation     .... PBE
   PBE beta parameter  CBetaPBE         ....  0.066725
 LDA part of GGA corr.  LDAOpt          .... PW91-LDA
 Gradients option       PostSCFGGA      .... off
   NL short-range parameter             ....  6.400000
 RI-approximation to the Coulomb term is turned on
   Number of AuxJ basis functions       .... 720


General Settings:
 Integral files         IntName         .... sp
 Hartree-Fock type      HFTyp           .... RHF
 Total Charge           Charge          ....    0
 Multiplicity           Mult            ....    1
 Number of Electrons    NEL             ....   96
 Basis Dimension        Dim             ....  192
 Nuclear Repulsion      ENuc            ....    868.9375211737 Eh

Convergence Acceleration:
 AO-DIIS                CNVDIIS         .... on
   Start iteration      DIISMaxIt       ....    12
   Startup error        DIISStart       ....  0.200000
   # of expansion vecs  DIISMaxEq       ....     5
   Bias factor          DIISBfac        ....   1.050
   Max. coefficient     DIISMaxC        ....  10.000
 MO-DIIS                CNVKDIIS        .... off
 Trust-Rad. Augm. Hess. CNVTRAH         .... auto
   Auto Start mean grad. ratio tolernc. ....  1.125000
   Auto Start start iteration           ....    50
   Auto Start num. interpolation iter.  ....    10
   Max. Number of Micro iterations      ....    24
   Max. Number of Macro iterations      .... Maxiter - #DIIS iter
   Number of Davidson start vectors     ....     2
   Converg. threshold    (grad. norm)   ....   1.000e-04
   Grad. Scal. Fac. for Micro threshold ....   0.100
   Minimum threshold for Micro iter.    ....   1.000e-02
   NR start threshold (gradient norm)   ....   1.000e-04
   Initial trust radius                 ....   0.400
   Minimum AH scaling param. (alpha)    ....   1.000
   Maximum AH scaling param. (alpha)    .... 1000.000
   Quad. conv. algorithm                .... NR
   White noise on init. David. guess    .... on
   Maximum white noise                  ....   0.010
   Pseudo random numbers                .... off
   Inactive MOs                         .... canonical
   Orbital update algorithm             .... Taylor
   Preconditioner                       .... Diag
   Full preconditioner red. dimension   ....   250
 SOSCF                  CNVSOSCF        .... on
   Start iteration      SOSCFMaxIt      ....   150
   Startup grad/error   SOSCFStart      ....  0.003300
   Hessian update       SOSCFHessUp     .... L-BFGS
 Level Shifting         CNVShift        .... on
   Level shift para.    LevelShift      ....    0.2500
   Turn off err/grad.   ShiftErr        ....    0.0010
 Zerner damping         CNVZerner       .... off
 Static damping         CNVDamp         .... on
   Fraction old density DampFac         ....    0.7000
   Max. Damping (<1)    DampMax         ....    0.9800
   Min. Damping (>=0)   DampMin         ....    0.0000
   Turn off err/grad.   DampErr         ....    0.1000

SCF Procedure:
 Maximum # iterations   MaxIter         ....   125
 SCF integral mode      SCFMode         .... Direct
   Integral package                     .... SHARK and LIBINT hybrid scheme
 Reset frequency        DirectResetFreq ....    20
 Integral Threshold     Thresh          ....  1.000e-09 Eh
 Primitive CutOff       TCut            ....  1.000e-10 Eh

Convergence Tolerance:
 Convergence Check Mode ConvCheckMode   .... Total+1el-Energy
 Convergence forced     ConvForced      .... 0
 Energy Change          TolE            ....  1.000e-05 Eh
 1-El. energy change                    ....  1.000e-02 Eh
 Orbital Gradient       TolG            ....  1.000e-04
 Orbital Rotation angle TolX            ....  1.000e-04
 DIIS Error             TolErr          ....  5.000e-04

------------------------------
INITIAL GUESS: MODEL POTENTIAL
------------------------------
Loading Hartree-Fock densities                     ... done
Calculating cut-offs                               ... done
Initializing the effective Hamiltonian             ... done
Setting up the integral package (SHARK)            ... done
Starting the Coulomb interaction                   ... done (   0.2 sec)
Making the grid                                    ... done (   0.2 sec)
Mapping shells                                     ... done
Starting the XC term evaluation                    ... done (   0.2 sec)
  promolecular density results
     # of electrons  =     95.989659592
     EX              =    -83.244830805
     EC              =     -3.279543568
     EX+EC           =    -86.524374373
Transforming the Hamiltonian                       ... done (   0.0 sec)
Diagonalizing the Hamiltonian                      ... done (   0.0 sec)
Back transforming the eigenvectors                 ... done (   0.0 sec)
Now organizing SCF variables                       ... done
                      ------------------
                      INITIAL GUESS DONE (   0.7 sec)
                      ------------------
             **** ENERGY FILE WAS UPDATED (sp.en.tmp) ****
Finished Guess after   0.7 sec
Maximum memory used throughout the entire GUESS-calculation: 22.8 MB

-------------------------------------------------------------------------------------------
                                      ORCA LEAN-SCF
                              memory conserving SCF solver
-------------------------------------------------------------------------------------------

----------------------------------------D-I-I-S--------------------------------------------
Iteration    Energy (Eh)           Delta-E    RMSDP     MaxDP     DIISErr   Damp  Time(sec)
-------------------------------------------------------------------------------------------
               ***  Starting incremental Fock matrix formation  ***
    1    -685.5402840984066870     0.00e+00  4.43e-03  9.95e-02  2.18e-01  0.700   0.8
    2    -685.6830163681371459    -1.43e-01  2.83e-03  6.82e-02  8.81e-02  0.700   0.7
                               ***Turning on AO-DIIS***
    3    -685.7287049519705988    -4.57e-02  1.02e-03  2.06e-02  1.87e-02  0.700   0.7
    4    -685.7589999681198378    -3.03e-02  1.39e-03  2.17e-02  1.02e-02  0.000   0.7
    5    -685.8287751480853558    -6.98e-02  4.21e-04  1.20e-02  4.75e-03  0.000   0.7
                              *** Initializing SOSCF ***
---------------------------------------S-O-S-C-F--------------------------------------
Iteration    Energy (Eh)           Delta-E    RMSDP     MaxDP     MaxGrad    Time(sec)
--------------------------------------------------------------------------------------
    6    -685.8290561862226014    -2.81e-04  1.26e-04  2.37e-03  1.17e-03     0.7
               *** Restarting incremental Fock matrix formation ***
    7    -685.8290825516297673    -2.64e-05  8.56e-05  2.26e-03  1.47e-04     0.8
    8    -685.8290835854337502    -1.03e-06  3.29e-05  7.26e-04  1.54e-04     0.6
                 **** Energy Check signals convergence ****

               *****************************************************
               *                     SUCCESS                       *
               *           SCF CONVERGED AFTER   8 CYCLES          *
               *****************************************************

             **** ENERGY FILE WAS UPDATED (sp.en.tmp) ****

----------------
TOTAL SCF ENERGY
----------------

Total Energy       :       -685.82908358543375 Eh          -18662.35814 eV

Components:
Nuclear Repulsion  :        868.93752117365955 Eh           23644.99204 eV
Electronic Energy  :      -1554.76660475909330 Eh          -42307.35018 eV
One Electron Energy:      -2666.50904101300739 Eh          -72559.39985 eV
Two Electron Energy:       1111.74243625391409 Eh           30252.04967 eV

Virial components:
Potential Energy   :      -1366.92362595901409 Eh          -37195.88286 eV
Kinetic Energy     :        681.09454237358034 Eh           18533.52472 eV
Virial Ratio       :          2.00695137153111

DFT components:
N(Alpha)           :       47.999712071664 electrons
N(Beta)            :       47.999712071664 electrons
N(Total)           :       95.999424143328 electrons
E(X)               :      -84.606002159779 Eh       
E(C)               :       -3.288559602757 Eh       
E(XC)              :      -87.894561762536 Eh       

---------------
SCF CONVERGENCE
---------------

  Last Energy change         ...    1.0338e-06  Tolerance :   1.0000e-05
  Last MAX-Density change    ...    7.2629e-04  Tolerance :   1.0000e-03
  Last RMS-Density change    ...    3.2879e-05  Tolerance :   1.0000e-04
  Last DIIS Error            ...    1.1667e-03  Tolerance :   5.0000e-04
  Last Orbital Gradient      ...    1.5433e-04  Tolerance :   1.0000e-04
  Last Orbital Rotation      ...    1.7074e-04  Tolerance :   1.0000e-04


----------------
ORBITAL ENERGIES
----------------

  NO   OCC          E(Eh)            E(eV) 
   0   2.0000     -18.783762      -511.1321 
   1   2.0000     -18.779339      -511.0118 
   2   2.0000     -18.775773      -510.9148 
   3   2.0000     -18.769853      -510.7537 
   4   2.0000     -18.748388      -510.1696 
   5   2.0000     -18.737542      -509.8744 
   6   2.0000      -9.990999      -271.8689 
   7   2.0000      -9.954972      -270.8886 
   8   2.0000      -9.954288      -270.8699 
   9   2.0000      -9.950678      -270.7717 
  10   2.0000      -9.949686      -270.7447 
  11   2.0000      -9.923577      -270.0342 
  12   2.0000      -0.993236       -27.0273 
  13   2.0000      -0.959196       -26.1011 
  14   2.0000      -0.949778       -25.8448 
  15   2.0000      -0.928533       -25.2667 
  16   2.0000      -0.921321       -25.0704 
  17   2.0000      -0.914742       -24.8914 
  18   2.0000      -0.709516       -19.3069 
  19   2.0000      -0.692128       -18.8338 
  20   2.0000      -0.628535       -17.1033 
  21   2.0000      -0.588955       -16.0263 
  22   2.0000      -0.581071       -15.8117 
  23   2.0000      -0.535016       -14.5585 
  24   2.0000      -0.509634       -13.8678 
  25   2.0000      -0.497083       -13.5263 
  26   2.0000      -0.482360       -13.1257 
  27   2.0000      -0.459522       -12.5042 
  28   2.0000      -0.449421       -12.2294 
  29   2.0000      -0.431569       -11.7436 
  30   2.0000      -0.410930       -11.1820 
  31   2.0000      -0.406002       -11.0479 
  32   2.0000      -0.391282       -10.6473 
  33   2.0000      -0.385629       -10.4935 
  34   2.0000      -0.371097       -10.0981 
  35   2.0000      -0.361444        -9.8354 
  36   2.0000      -0.345714        -9.4074 
  37   2.0000      -0.327985        -8.9249 
  38   2.0000      -0.319252        -8.6873 
  39   2.0000      -0.303335        -8.2542 
  40   2.0000      -0.287202        -7.8152 
  41   2.0000      -0.271065        -7.3761 
  42   2.0000      -0.260681        -7.0935 
  43   2.0000      -0.245585        -6.6827 
  44   2.0000      -0.243652        -6.6301 
  45   2.0000      -0.233530        -6.3547 
  46   2.0000      -0.218417        -5.9434 
  47   2.0000      -0.205524        -5.5926 
  48   0.0000       0.005383         0.1465 
  49   0.0000       0.019806         0.5389 
  50   0.0000       0.031415         0.8549 
  51   0.0000       0.052130         1.4185 
  52   0.0000       0.064394         1.7523 
  53   0.0000       0.069822         1.9000 
  54   0.0000       0.073551         2.0014 
  55   0.0000       0.085374         2.3231 
  56   0.0000       0.096568         2.6277 
  57   0.0000       0.110427         3.0049 
  58   0.0000       0.116001         3.1565 
*Only the first 10 virtual orbitals were printed.

                    ********************************
                    * MULLIKEN POPULATION ANALYSIS *
                    ********************************

-----------------------
MULLIKEN ATOMIC CHARGES
-----------------------
   0 C :    0.037645
   1 C :   -0.026737
   2 H :    0.082040
   3 C :    0.021512
   4 H :    0.086789
   5 C :    0.061731
   6 H :    0.084775
   7 C :    0.011536
   8 H :    0.073290
   9 C :    0.208004
  10 H :    0.072857
  11 O :   -0.322730
  12 O :   -0.395630
  13 O :   -0.420895
  14 O :   -0.416900
  15 O :   -0.420004
  16 O :   -0.442245
  17 H :    0.079844
  18 H :    0.094051
  19 H :    0.303455
  20 H :    0.292176
  21 H :    0.317464
  22 H :    0.312323
  23 H :    0.305649
Sum of atomic charges:    0.0000000

--------------------------------
MULLIKEN REDUCED ORBITAL CHARGES
--------------------------------
  0 C s       :     3.011119  s :     3.011119
      pz      :     0.997486  p :     2.887979
      px      :     0.920895
      py      :     0.969598
      dz2     :     0.010997  d :     0.063258
      dxz     :     0.016975
      dyz     :     0.008751
      dx2y2   :     0.010880
      dxy     :     0.015655

  1 C s       :     3.082392  s :     3.082392
      pz      :     1.100855  p :     2.879245
      px      :     0.848136
      py      :     0.930254
      dz2     :     0.011049  d :     0.065100
      dxz     :     0.017502
      dyz     :     0.006826
      dx2y2   :     0.014288
      dxy     :     0.015435

  2 H s       :     0.917960  s :     0.917960

  3 C s       :     3.075369  s :     3.075369
      pz      :     0.787458  p :     2.837210
      px      :     1.032130
      py      :     1.017623
      dz2     :     0.017158  d :     0.065909
      dxz     :     0.017201
      dyz     :     0.013130
      dx2y2   :     0.007951
      dxy     :     0.010469

  4 H s       :     0.913211  s :     0.913211

  5 C s       :     3.054051  s :     3.054051
      pz      :     0.776413  p :     2.816983
      px      :     1.017431
      py      :     1.023139
      dz2     :     0.017780  d :     0.067235
      dxz     :     0.016850
      dyz     :     0.012707
      dx2y2   :     0.009877
      dxy     :     0.010020

  6 H s       :     0.915225  s :     0.915225

  7 C s       :     3.071441  s :     3.071441
      pz      :     0.924232  p :     2.849178
      px      :     0.963149
      py      :     0.961797
      dz2     :     0.013934  d :     0.067845
      dxz     :     0.017389
      dyz     :     0.011353
      dx2y2   :     0.012374
      dxy     :     0.012794

  8 H s       :     0.926710  s :     0.926710

  9 C s       :     2.988487  s :     2.988487
      pz      :     0.822807  p :     2.704656
      px      :     0.875850
      py      :     1.005998
      dz2     :     0.019672  d :     0.098854
      dxz     :     0.029653
      dyz     :     0.019847
      dx2y2   :     0.015657
      dxy     :     0.014024

 10 H s       :     0.927143  s :     0.927143

 11 O s       :     3.752561  s :     3.752561
      pz      :     1.649352  p :     4.555024
      px      :     1.222887
      py      :     1.682785
      dz2     :     0.002083  d :     0.015144
      dxz     :     0.004714
      dyz     :     0.002236
      dx2y2   :     0.002687
      dxy     :     0.003425

 12 O s       :     3.779418  s :     3.779418
      pz      :     1.494015  p :     4.600903
      px      :     1.843709
      py      :     1.263179
      dz2     :     0.005045  d :     0.015308
      dxz     :     0.002022
      dyz     :     0.003578
      dx2y2   :     0.003545
      dxy     :     0.001119

 13 O s       :     3.777098  s :     3.777098
      pz      :     1.350210  p :     4.628224
      px      :     1.555981
      py      :     1.722033
      dz2     :     0.001300  d :     0.015573
      dxz     :     0.006985
      dyz     :     0.001609
      dx2y2   :     0.002540
      dxy     :     0.003138

 14 O s       :     3.770864  s :     3.770864
      pz      :     1.234264  p :     4.631077
      px      :     1.510770
      py      :     1.886042
      dz2     :     0.001698  d :     0.014959
      dxz     :     0.007569
      dyz     :     0.001277
      dx2y2   :     0.003162
      dxy     :     0.001254

 15 O s       :     3.778456  s :     3.778456
      pz      :     1.291203  p :     4.626125
      px      :     1.806626
      py      :     1.528297
      dz2     :     0.001973  d :     0.015422
      dxz     :     0.001661
      dyz     :     0.006472
      dx2y2   :     0.003749
      dxy     :     0.001567

 16 O s       :     3.789315  s :     3.789315
      pz      :     1.693882  p :     4.637132
      px      :     1.552512
      py      :     1.390738
      dz2     :     0.001549  d :     0.015798
      dxz     :     0.003483
      dyz     :     0.002232
      dx2y2   :     0.002388
      dxy     :     0.006145

 17 H s       :     0.920156  s :     0.920156

 18 H s       :     0.905949  s :     0.905949

 19 H s       :     0.696545  s :     0.696545

 20 H s       :     0.707824  s :     0.707824

 21 H s       :     0.682536  s :     0.682536

 22 H s       :     0.687677  s :     0.687677

 23 H s       :     0.694351  s :     0.694351


------------------------
MULLIKEN OVERLAP CHARGES
------------------------
B(  0-C ,  1-C ) :   0.4365 B(  0-C ,  3-C ) :  -0.1064 B(  0-C , 11-O ) :  -0.0517 
B(  0-C , 16-O ) :   0.6871 B(  0-C , 17-H ) :   0.6557 B(  0-C , 18-H ) :   0.6887 
B(  0-C , 23-H ) :  -0.0903 B(  1-C ,  2-H ) :   0.6417 B(  1-C ,  3-C ) :   0.4779 
B(  1-C ,  5-C ) :   0.0663 B(  1-C ,  7-C ) :  -0.1341 B(  1-C ,  9-C ) :  -0.0688 
B(  1-C , 11-O ) :   0.4656 B(  1-C , 15-O ) :  -0.0726 B(  1-C , 16-O ) :  -0.1661 
B(  1-C , 17-H ) :  -0.0516 B(  2-H ,  3-C ) :  -0.1018 B(  2-H , 11-O ) :  -0.0651 
B(  3-C ,  4-H ) :   0.6568 B(  3-C ,  5-C ) :   0.1222 B(  3-C ,  6-H ) :  -0.1019 
B(  3-C ,  7-C ) :   0.0985 B(  3-C ,  9-C ) :  -0.1108 B(  3-C , 14-O ) :  -0.0997 
B(  3-C , 15-O ) :   0.6380 B(  3-C , 18-H ) :  -0.0534 B(  3-C , 22-H ) :  -0.0989 
B(  4-H ,  5-C ) :  -0.1067 B(  5-C ,  6-H ) :   0.7488 B(  5-C ,  7-C ) :   0.3989 
B(  5-C ,  8-H ) :  -0.0621 B(  5-C , 11-O ) :  -0.0633 B(  5-C , 14-O ) :   0.5345 
B(  5-C , 15-O ) :  -0.1486 B(  5-C , 21-H ) :  -0.0697 B(  6-H ,  7-C ) :  -0.1386 
B(  7-C ,  8-H ) :   0.6179 B(  7-C ,  9-C ) :   0.3877 B(  7-C , 10-H ) :  -0.0816 
B(  7-C , 11-O ) :  -0.0648 B(  7-C , 12-O ) :  -0.1002 B(  7-C , 13-O ) :   0.5734 
B(  7-C , 14-O ) :  -0.0530 B(  7-C , 20-H ) :  -0.1108 B(  8-H ,  9-C ) :  -0.0571 
B(  9-C , 10-H ) :   0.6976 B(  9-C , 11-O ) :   0.6525 B(  9-C , 12-O ) :   0.5847 
B(  9-C , 13-O ) :  -0.0869 B( 10-H , 11-O ) :  -0.0814 B( 11-O , 12-O ) :  -0.1320 
B( 12-O , 18-H ) :   0.0821 B( 12-O , 19-H ) :   0.4829 B( 13-O , 20-H ) :   0.5384 
B( 14-O , 21-H ) :   0.5315 B( 14-O , 23-H ) :   0.0682 B( 15-O , 20-H ) :   0.1165 
B( 15-O , 22-H ) :   0.5235 B( 16-O , 17-H ) :  -0.0571 B( 16-O , 23-H ) :   0.5369 
B( 17-H , 18-H ) :  -0.0621 


                     *******************************
                     * LOEWDIN POPULATION ANALYSIS *
                     *******************************

----------------------
LOEWDIN ATOMIC CHARGES
----------------------
   0 C :   -0.152310
   1 C :   -0.076281
   2 H :    0.116983
   3 C :   -0.069406
   4 H :    0.117415
   5 C :   -0.075446
   6 H :    0.108233
   7 C :   -0.083050
   8 H :    0.116650
   9 C :   -0.007532
  10 H :    0.101712
  11 O :   -0.149547
  12 O :   -0.309187
  13 O :   -0.315638
  14 O :   -0.301918
  15 O :   -0.307418
  16 O :   -0.335913
  17 H :    0.110384
  18 H :    0.103902
  19 H :    0.285998
  20 H :    0.269250
  21 H :    0.295082
  22 H :    0.284958
  23 H :    0.273080

-------------------------------
LOEWDIN REDUCED ORBITAL CHARGES
-------------------------------
  0 C s       :     2.921537  s :     2.921537
      pz      :     1.055749  p :     3.085557
      px      :     1.016223
      py      :     1.013584
      dz2     :     0.025362  d :     0.145217
      dxz     :     0.041400
      dyz     :     0.019651
      dx2y2   :     0.022235
      dxy     :     0.036569

  1 C s       :     2.905034  s :     2.905034
      pz      :     1.100844  p :     3.018928
      px      :     0.915930
      py      :     1.002154
      dz2     :     0.026497  d :     0.152319
      dxz     :     0.041682
      dyz     :     0.015133
      dx2y2   :     0.034520
      dxy     :     0.034487

  2 H s       :     0.883017  s :     0.883017

  3 C s       :     2.892857  s :     2.892857
      pz      :     0.887530  p :     3.023003
      px      :     1.065499
      py      :     1.069974
      dz2     :     0.038810  d :     0.153547
      dxz     :     0.044034
      dyz     :     0.026266
      dx2y2   :     0.020957
      dxy     :     0.023479

  4 H s       :     0.882585  s :     0.882585

  5 C s       :     2.895296  s :     2.895296
      pz      :     0.883038  p :     3.021661
      px      :     1.058223
      py      :     1.080400
      dz2     :     0.040199  d :     0.158489
      dxz     :     0.042080
      dyz     :     0.027713
      dx2y2   :     0.023083
      dxy     :     0.025414

  6 H s       :     0.891767  s :     0.891767

  7 C s       :     2.897173  s :     2.897173
      pz      :     0.980914  p :     3.028413
      px      :     1.016920
      py      :     1.030578
      dz2     :     0.032042  d :     0.157464
      dxz     :     0.040666
      dyz     :     0.024416
      dx2y2   :     0.028644
      dxy     :     0.031696

  8 H s       :     0.883350  s :     0.883350

  9 C s       :     2.890606  s :     2.890606
      pz      :     0.921438  p :     2.895138
      px      :     0.939470
      py      :     1.034230
      dz2     :     0.043388  d :     0.221788
      dxz     :     0.068134
      dyz     :     0.044184
      dx2y2   :     0.037445
      dxy     :     0.028637

 10 H s       :     0.898288  s :     0.898288

 11 O s       :     3.471232  s :     3.471232
      pz      :     1.667552  p :     4.648572
      px      :     1.288340
      py      :     1.692680
      dz2     :     0.003405  d :     0.029743
      dxz     :     0.009964
      dyz     :     0.002917
      dx2y2   :     0.006104
      dxy     :     0.007353

 12 O s       :     3.539337  s :     3.539337
      pz      :     1.569694  p :     4.742574
      px      :     1.845293
      py      :     1.327587
      dz2     :     0.008762  d :     0.027276
      dxz     :     0.002604
      dyz     :     0.007417
      dx2y2   :     0.006420
      dxy     :     0.002073

 13 O s       :     3.526387  s :     3.526387
      pz      :     1.414365  p :     4.762114
      px      :     1.611234
      py      :     1.736515
      dz2     :     0.002685  d :     0.027136
      dxz     :     0.012657
      dyz     :     0.003547
      dx2y2   :     0.003286
      dxy     :     0.004960

 14 O s       :     3.520475  s :     3.520475
      pz      :     1.298397  p :     4.754805
      px      :     1.570018
      py      :     1.886390
      dz2     :     0.004508  d :     0.026638
      dxz     :     0.013950
      dyz     :     0.002397
      dx2y2   :     0.004307
      dxy     :     0.001476

 15 O s       :     3.531749  s :     3.531749
      pz      :     1.349816  p :     4.749000
      px      :     1.815769
      py      :     1.583416
      dz2     :     0.004504  d :     0.026668
      dxz     :     0.003216
      dyz     :     0.011718
      dx2y2   :     0.005243
      dxy     :     0.001987

 16 O s       :     3.531972  s :     3.531972
      pz      :     1.709474  p :     4.776683
      px      :     1.614446
      py      :     1.452764
      dz2     :     0.002422  d :     0.027257
      dxz     :     0.005536
      dyz     :     0.004416
      dx2y2   :     0.003757
      dxy     :     0.011127

 17 H s       :     0.889616  s :     0.889616

 18 H s       :     0.896098  s :     0.896098

 19 H s       :     0.714002  s :     0.714002

 20 H s       :     0.730750  s :     0.730750

 21 H s       :     0.704918  s :     0.704918

 22 H s       :     0.715042  s :     0.715042

 23 H s       :     0.726920  s :     0.726920


---------------------------------
LOEWDIN BOND ORDERS (THRESH 0.050000)
---------------------------------
B(  0-C ,  1-C ) :   1.0428 B(  0-C ,  3-C ) :   0.0521 B(  0-C , 11-O ) :   0.0629 
B(  0-C , 16-O ) :   1.2523 B(  0-C , 17-H ) :   0.9098 B(  0-C , 18-H ) :   0.8954 
B(  1-C ,  2-H ) :   0.8738 B(  1-C ,  3-C ) :   1.0349 B(  1-C ,  5-C ) :   0.0517 
B(  1-C ,  9-C ) :   0.0603 B(  1-C , 11-O ) :   1.1230 B(  1-C , 15-O ) :   0.0663 
B(  1-C , 16-O ) :   0.0863 B(  3-C ,  4-H ) :   0.8691 B(  3-C ,  5-C ) :   1.0166 
B(  3-C ,  7-C ) :   0.0536 B(  3-C , 11-O ) :   0.0605 B(  3-C , 14-O ) :   0.0561 
B(  3-C , 15-O ) :   1.1911 B(  5-C ,  6-H ) :   0.8674 B(  5-C ,  7-C ) :   1.0208 
B(  5-C ,  9-C ) :   0.0507 B(  5-C , 13-O ) :   0.0798 B(  5-C , 14-O ) :   1.2089 
B(  5-C , 15-O ) :   0.0727 B(  7-C ,  8-H ) :   0.8681 B(  7-C ,  9-C ) :   1.0074 
B(  7-C , 11-O ) :   0.0539 B(  7-C , 12-O ) :   0.0645 B(  7-C , 13-O ) :   1.2373 
B(  7-C , 14-O ) :   0.0706 B(  9-C , 10-H ) :   0.8810 B(  9-C , 11-O ) :   1.1973 
B(  9-C , 12-O ) :   1.2492 B(  9-C , 13-O ) :   0.0852 B( 11-O , 12-O ) :   0.0916 
B( 12-O , 19-H ) :   0.8734 B( 13-O , 20-H ) :   0.8492 B( 14-O , 21-H ) :   0.8730 
B( 14-O , 23-H ) :   0.0571 B( 15-O , 20-H ) :   0.0854 B( 15-O , 22-H ) :   0.8664 
B( 16-O , 23-H ) :   0.8693 

------------------------------------------
LOEWDIN REDUCED ORBITAL POPULATIONS PER MO
-------------------------------------------
THRESHOLD FOR PRINTING IS 0.1%%
                      0         1         2         3         4         5   
                 -18.78376 -18.77934 -18.77577 -18.76985 -18.74839 -18.73754
                   2.00000   2.00000   2.00000   2.00000   2.00000   2.00000
                  --------  --------  --------  --------  --------  --------
11 O  s              99.9       0.0       0.0       0.0       0.0       0.0
12 O  s               0.0       0.0       0.0      99.9       0.0       0.0
13 O  s               0.0       0.0       0.0       0.0      99.9       0.0
14 O  s               0.0      99.9       0.0       0.0       0.0       0.0
15 O  s               0.0       0.0      99.9       0.0       0.0       0.0
16 O  s               0.0       0.0       0.0       0.0       0.0      99.9

                      6         7         8         9        10        11   
                  -9.99100  -9.95497  -9.95429  -9.95068  -9.94969  -9.92358
                   2.00000   2.00000   2.00000   2.00000   2.00000   2.00000
                  --------  --------  --------  --------  --------  --------
 0 C  s               0.0       0.0       0.0       0.0       0.0      99.6
 1 C  s               0.0       0.0       0.0      99.6       0.0       0.0
 1 C  py              0.0       0.0       0.1       0.0       0.0       0.0
 3 C  s               0.0       0.1      99.5       0.0       0.0       0.0
 3 C  py              0.0       0.0       0.0       0.1       0.0       0.0
 5 C  s               0.0      99.5       0.1       0.0       0.0       0.0
 7 C  s               0.0       0.0       0.0       0.0      99.6       0.0
 9 C  s              99.6       0.0       0.0       0.0       0.0       0.0

                     12        13        14        15        16        17   
                  -0.99324  -0.95920  -0.94978  -0.92853  -0.92132  -0.91474
                   2.00000   2.00000   2.00000   2.00000   2.00000   2.00000
                  --------  --------  --------  --------  --------  --------
 0 C  s               0.5       0.1       0.0       0.8       2.4       7.5
 0 C  pz              0.2       0.0       0.1       0.0       0.0       1.6
 0 C  px              0.2       0.0       0.0       0.1       0.3       3.3
 0 C  py              0.1       0.1       0.0       0.3       0.7       3.2
 0 C  dxz             0.0       0.0       0.0       0.0       0.0       0.1
 0 C  dyz             0.0       0.0       0.0       0.0       0.0       0.2
 0 C  dxy             0.0       0.0       0.0       0.0       0.1       0.4
 1 C  s               5.1       0.0       0.4       1.3       2.8       0.1
 1 C  pz              0.2       0.0       0.2       0.0       0.0       1.2
 1 C  px              3.4       0.1       0.1       0.3       0.8       1.7
 1 C  py              0.4       1.1       0.3       0.1       1.2       0.2
 1 C  dxy             0.1       0.0       0.0       0.0       0.1       0.1
 2 H  s               0.6       0.0       0.1       0.2       0.3       0.0
 3 C  s               2.4       4.4       3.3       0.4       0.4       0.0
 3 C  pz              0.3       0.5       6.6       0.1       1.1       0.0
 3 C  px              0.3       0.9       0.2       0.0       0.2       0.0
 3 C  py              0.4       0.2       0.1       0.1       1.0       0.0
 3 C  dz2             0.0       0.2       0.2       0.0       0.1       0.0
 3 C  dxz             0.0       0.0       0.2       0.0       0.0       0.0
 4 H  s               0.3       0.6       0.3       0.1       0.0       0.1
 5 C  s               1.4       7.5       2.3       0.1       0.0       0.1
 5 C  pz              0.1       2.1       6.6       0.5       0.0       0.2
 5 C  px              0.0       0.7       0.1       1.5       0.2       0.0
 5 C  py              0.3       0.2       0.1       0.1       0.0       0.0
 5 C  dz2             0.0       0.3       0.2       0.0       0.0       0.0
 5 C  dxz             0.0       0.1       0.2       0.0       0.0       0.0
 6 H  s               0.2       1.0       0.2       0.1       0.0       0.0
 7 C  s               2.4       0.8       0.1       8.6       0.5       0.0
 7 C  pz              0.2       0.0       0.4       4.6       0.9       0.0
 7 C  px              0.3       0.2       0.2       2.1       0.2       0.1
 7 C  py              0.5       1.5       0.0       1.3       0.3       0.0
 7 C  dz2             0.0       0.0       0.0       0.1       0.0       0.0
 7 C  dxz             0.0       0.0       0.0       0.3       0.0       0.0
 7 C  dyz             0.0       0.0       0.0       0.3       0.0       0.0
 8 H  s               0.4       0.1       0.1       1.0       0.0       0.0
 9 C  s              13.3       2.1       0.5       0.3       0.1       0.0
 9 C  pz              0.0       0.3       0.8       0.6       6.9       1.9
 9 C  px              3.1       0.4       0.0       1.2       1.4       0.7
 9 C  py              0.4       1.2       0.2       0.6       1.8       0.2
 9 C  dz2             0.0       0.0       0.0       0.0       0.2       0.0
 9 C  dxz             0.2       0.0       0.0       0.0       0.2       0.1
 9 C  dyz             0.1       0.1       0.0       0.0       0.3       0.1
 9 C  dx2y2           0.1       0.0       0.0       0.1       0.2       0.1
10 H  s               1.6       0.2       0.1       0.1       0.0       0.0
11 O  s              27.8       2.3       0.2       3.9      15.0       6.2
11 O  pz              1.4       0.2       0.0       0.1       0.2       0.1
11 O  px              0.1       0.1       0.1       0.1       0.2       0.0
11 O  py              0.5       0.0       0.1       0.1       0.4       0.1
12 O  s              15.2       8.0       4.3       1.5      25.6       5.5
12 O  pz              1.5       0.5       0.2       0.0       0.8       0.1
12 O  py              0.0       0.0       0.0       0.0       0.3       0.1
13 O  s               1.5       2.1       0.2      48.1       4.7       0.3
13 O  pz              0.0       0.0       0.0       0.1       0.0       0.0
13 O  px              0.1       0.2       0.0       2.8       0.2       0.0
14 O  s               1.6      29.7      25.2       1.2       0.4       0.9
14 O  pz              0.0       0.3       0.1       0.0       0.0       0.0
14 O  px              0.1       1.4       1.2       0.0       0.0       0.1
15 O  s               4.1      14.8      29.5       1.0       8.6       0.5
15 O  pz              0.1       0.2       0.2       0.0       0.0       0.0
15 O  py              0.3       0.7       1.5       0.1       0.3       0.0
16 O  s               0.2       0.3       0.1       2.4       8.2      47.1
16 O  px              0.0       0.0       0.0       0.2       0.5       2.8
17 H  s               0.1       0.0       0.0       0.1       0.3       0.9
18 H  s               0.3       0.0       0.1       0.1       0.1       1.0
19 H  s               3.2       1.7       0.8       0.3       5.1       1.1
20 H  s               0.6       0.9       0.3       9.2       0.7       0.1
21 H  s               0.3       5.9       5.1       0.2       0.1       0.2
22 H  s               1.2       2.9       6.1       0.2       1.4       0.1
23 H  s               0.1       0.3       0.1       0.6       1.6       9.4

                     18        19        20        21        22        23   
                  -0.70952  -0.69213  -0.62853  -0.58896  -0.58107  -0.53502
                   2.00000   2.00000   2.00000   2.00000   2.00000   2.00000
                  --------  --------  --------  --------  --------  --------
 0 C  s               2.0       3.0      10.4       1.1      13.4       0.9
 0 C  pz              1.6       1.6       1.1       0.0       0.2       0.3
 0 C  px              0.7       0.6       0.3       0.0       0.0       0.5
 0 C  py              0.0       0.0       0.5       0.0       2.4       0.7
 1 C  s              10.2       9.5       3.6       0.1       2.7       1.0
 1 C  pz              0.6       0.0       1.0       2.1       6.0       0.0
 1 C  px              0.2       0.4       2.1       1.4       0.5       0.0
 1 C  py              2.5       0.5       1.3       4.0       3.2       0.1
 1 C  dz2             0.0       0.0       0.1       0.0       0.1       0.0
 1 C  dxy             0.1       0.0       0.0       0.1       0.0       0.0
 2 H  s               1.8       2.6       1.3       0.0       1.6       0.4
 3 C  s              14.9       0.0       3.5       6.5       1.7       1.5
 3 C  pz              3.5       0.4       1.1       0.0       1.0       2.9
 3 C  px              0.0       1.8       0.5       2.7       2.5       0.0
 3 C  py              1.1       1.7       2.2       0.1       2.4       3.9
 3 C  dz2             0.1       0.0       0.0       0.0       0.0       0.0
 3 C  dxz             0.1       0.0       0.0       0.0       0.0       0.1
 4 H  s               3.0       0.0       1.4       3.5       0.7       0.7
 5 C  s              10.5       4.8       3.0       3.8       4.5       0.6
 5 C  pz              3.4       0.6       0.8       0.1       0.0       2.2
 5 C  px              0.5       1.4       2.9       7.0       0.0       2.4
 5 C  py              0.3       0.5       1.5       0.0       0.9       0.4
 5 C  dxz             0.1       0.0       0.0       0.0       0.0       0.1
 6 H  s               1.8       0.9       1.2       1.6       2.1       0.0
 7 C  s               2.3      11.0       6.2       4.2       1.1       1.8
 7 C  pz              0.5       0.6       0.6       2.6       0.0       0.1
 7 C  px              1.7       1.8       0.6       0.2       1.5       1.6
 7 C  py              0.5       1.6       3.2       4.6       1.7       1.7
 7 C  dyz             0.0       0.1       0.0       0.0       0.0       0.0
 8 H  s               0.4       2.4       2.9       2.0       0.9       1.2
 9 C  s               0.5      10.7       2.4       7.4       0.0       1.1
 9 C  pz              1.4       0.3       1.3       1.2       1.1       2.2
 9 C  px              0.4       0.4       2.1       0.3       1.7       0.2
 9 C  py              1.0       2.7       2.6       0.9       1.1       0.0
 9 C  dyz             0.0       0.1       0.0       0.0       0.0       0.0
10 H  s               0.2       2.3       0.5       3.7       0.0       0.1
11 O  s               2.7       0.0       2.0       1.1       0.2       0.9
11 O  pz              0.0       0.2       0.1       0.7       0.5       0.1
11 O  px              2.9       9.7       0.5      10.0       3.5       0.5
11 O  py              0.6       0.2       0.2       0.4       1.7       0.5
12 O  s               0.1       2.3       0.4       1.0       0.1       0.0
12 O  pz              0.1       0.9       0.3       2.3       0.0       1.3
12 O  px              0.0       0.1       0.2       0.1       0.4       0.4
12 O  py              0.0       3.3       3.9       2.9       0.7       7.7
13 O  s               0.9       4.3       0.7       0.8       0.0       0.2
13 O  pz              0.4       2.0       2.2       2.9       1.0       7.4
13 O  px              0.0       0.1       0.0       0.1       0.1       0.0
13 O  py              0.0       0.8       1.2       0.0       0.8       1.2
14 O  s               3.1       1.3       0.1       0.8       0.3       0.0
14 O  pz              3.9       1.3       2.5       1.3       5.3      13.0
14 O  px              0.3       0.0       0.5       0.5       0.1       1.9
14 O  py              0.0       0.0       0.3       0.0       0.2       0.1
14 O  dxz             0.0       0.0       0.0       0.0       0.1       0.1
15 O  s               4.2       0.0       0.5       0.3       0.8       0.0
15 O  pz              3.7       0.1       3.0       4.3       0.8      13.0
15 O  px              0.3       0.0       0.0       0.9       0.8       1.7
15 O  py              0.2       0.1       0.5       0.5       0.2       2.5
16 O  s               1.3       1.0       1.6       0.7       1.4       0.0
16 O  pz              0.2       0.2       1.2       0.4       1.9       0.3
16 O  px              0.0       0.1       0.3       0.1       0.4       0.0
16 O  py              0.2       0.3       2.9       0.4       7.3       1.8
16 O  dxy             0.0       0.0       0.1       0.0       0.1       0.0
17 H  s               0.4       0.8       3.2       0.2       5.7       0.8
18 H  s               0.4       0.7       2.3       0.2       4.3       0.3
19 H  s               0.0       1.9       1.5       1.5       0.2       2.6
20 H  s               0.5       1.7       1.1       0.7       0.7       2.7
21 H  s               2.1       0.6       0.9       0.3       1.6       4.4
22 H  s               2.2       0.1       1.2       1.7       0.2       4.6
23 H  s               0.5       0.4       1.7       0.3       3.0       0.6

                     24        25        26        27        28        29   
                  -0.50963  -0.49708  -0.48236  -0.45952  -0.44942  -0.43157
                   2.00000   2.00000   2.00000   2.00000   2.00000   2.00000
                  --------  --------  --------  --------  --------  --------
 0 C  s               0.0       0.0       0.5       0.0       0.3       0.0
 0 C  pz              0.2       0.4       2.5       3.0       0.5       1.4
 0 C  px              0.0       0.5       8.0       9.4       4.8       0.2
 0 C  py              0.5       0.4       0.3       0.4       1.6       0.0
 0 C  dz2             0.0       0.0       0.0       0.1       0.1       0.0
 1 C  s               0.3       0.0       1.5       1.1       0.5       0.1
 1 C  pz              0.0       2.0       5.9       4.5       0.0       0.0
 1 C  px              1.7       1.2       5.9       3.6       0.1       3.7
 1 C  py              2.2       5.4       0.4       0.0       6.0       0.4
 1 C  dxy             0.0       0.1       0.1       0.0       0.0       0.0
 2 H  s               0.5       1.0       6.4       0.3       0.5       1.4
 3 C  s               0.0       0.0       0.1       0.1       0.8       0.4
 3 C  pz              1.1       0.4       0.4       0.5       0.0       4.5
 3 C  px              3.1       1.4       0.0       2.4       6.0       2.4
 3 C  py              1.5       8.4       0.6       0.0       0.6       0.5
 3 C  dyz             0.1       0.0       0.1       0.0       0.0       0.2
 4 H  s               0.4       1.1       0.2       0.8       2.0       0.0
 5 C  s               0.0       0.1       1.9       0.3       0.1       0.3
 5 C  pz              2.3       3.3       0.2       0.3       1.8       6.6
 5 C  px              1.5       0.9       5.1       3.6       0.2       2.0
 5 C  py              0.0       7.2       3.2       2.0       0.7       6.1
 5 C  dz2             0.0       0.0       0.0       0.1       0.0       0.0
 5 C  dxz             0.1       0.0       0.0       0.0       0.0       0.1
 5 C  dxy             0.0       0.0       0.0       0.0       0.0       0.1
 6 H  s               0.3       1.5       4.3       2.5       0.5       2.9
 7 C  s               0.4       0.1       0.3       0.0       0.0       1.1
 7 C  pz              1.0       0.6       0.1       1.1       4.9       7.2
 7 C  px              4.1       9.1       2.4       0.1       0.8       1.6
 7 C  py              0.0       0.0       0.8       5.8       2.1       1.1
 7 C  dxy             0.0       0.0       0.2       0.0       0.0       0.0
 8 H  s               0.2       1.0       0.4       0.2       1.9       2.4
 9 C  s               0.1       0.1       1.1       0.0       1.3       0.0
 9 C  pz             10.6       1.4       2.1       0.0       3.0       0.7
 9 C  px              1.0       2.7       2.0       3.0      10.6       0.4
 9 C  py              0.2       3.1       2.0       4.7       0.5       1.6
 9 C  dz2             0.1       0.1       0.0       0.0       0.1       0.0
 9 C  dxz             0.0       0.0       0.0       0.0       0.2       0.0
 9 C  dyz             0.1       0.0       0.0       0.0       0.0       0.2
10 H  s               2.5       0.5       3.4       0.1       7.2       0.0
11 O  s               0.0       1.4       0.1       0.2       0.6       0.0
11 O  pz              0.8       0.8       2.3       4.0       0.7       0.0
11 O  px              4.6       4.5       0.8       2.6       2.6       1.1
11 O  py              0.2       2.8       0.2       4.3       0.1       0.6
12 O  s               0.1       0.0       0.1       0.4       0.3       0.1
12 O  pz              0.7       1.8       1.1       2.0       0.1       1.5
12 O  px              0.1       1.3       1.0       0.9       0.8       0.5
12 O  py             16.6       5.1       0.3       0.4       4.1       3.0
13 O  s               0.0       0.6       0.4       0.0       0.9       0.0
13 O  pz              6.8       2.4       2.8       1.4       0.6       9.3
13 O  px              0.5       1.7       0.8       0.0       1.3       0.0
13 O  py              3.8       0.4       1.5       0.7       0.9       2.5
14 O  s               0.1       0.0       0.8       0.5       0.3       0.1
14 O  pz              5.8       6.7       1.7       3.0       0.6       7.8
14 O  px              1.6       0.7       5.6       0.7       1.3       0.6
14 O  py              0.2       2.3       0.9       0.0       0.0       0.8
14 O  dxz             0.0       0.1       0.0       0.0       0.0       0.1
15 O  s               0.0       0.7       0.5       0.2       0.2       0.8
15 O  pz              6.2       1.2       0.2       2.7       1.5       3.7
15 O  px              0.1       1.5       0.1       0.0       1.6       2.0
15 O  py              1.9       2.9       0.6       0.1       1.2       4.0
16 O  s               0.1       0.1       0.6       0.4       0.2       0.0
16 O  pz              0.1       0.0       2.3       2.2       4.4       0.1
16 O  px              0.0       0.1       0.8       0.3       0.1       0.1
16 O  py              0.0       0.0       2.0      15.0       7.9       2.0
16 O  dxy             0.0       0.0       0.0       0.1       0.1       0.0
17 H  s               0.0       0.2       0.0       0.6       0.3       0.0
18 H  s               0.1       0.4       5.0       0.3       1.1       0.0
19 H  s               4.8       2.0       0.0       0.2       1.0       1.3
20 H  s               3.1       1.0       1.2       0.1       0.1       2.9
21 H  s               2.1       2.1       1.3       0.9       0.0       1.1
22 H  s               2.3       0.8       0.2       0.3       0.5       2.5
23 H  s               0.0       0.0       1.6       4.2       3.8       0.4

                     30        31        32        33        34        35   
                  -0.41093  -0.40600  -0.39128  -0.38563  -0.37110  -0.36144
                   2.00000   2.00000   2.00000   2.00000   2.00000   2.00000
                  --------  --------  --------  --------  --------  --------
 0 C  s               0.2       0.8       0.2       0.1       0.1       0.0
 0 C  pz              2.6      12.2       0.5       0.0       3.5       2.7
 0 C  px              0.3       3.0       0.1       1.6       2.2       0.4
 0 C  py              0.6       2.0       9.5       6.8      14.6       0.1
 0 C  dxz             0.0       0.2       0.1       0.1       0.0       0.0
 0 C  dxy             0.0       0.0       0.1       0.1       0.2       0.0
 1 C  s               1.0       0.0       0.1       0.9       0.0       0.1
 1 C  pz              0.0       2.0       5.0       4.4       1.0       0.1
 1 C  px              0.5       2.4       1.2       3.1       3.1       2.0
 1 C  py              0.0       3.8       0.2       0.5       0.1       0.4
 1 C  dz2             0.0       0.0       0.0       0.0       0.2       0.0
 1 C  dxy             0.1       0.0       0.0       0.0       0.0       0.3
 2 H  s               0.9       0.1       2.5       2.6       2.1       0.5
 3 C  s               1.4       0.2       0.0       0.4       1.0       0.0
 3 C  pz              6.2       4.6       1.7       1.4       0.6       0.1
 3 C  px              6.7       0.2       3.1       0.2       0.2       8.2
 3 C  py              4.1       5.4       0.2       0.4       0.1       1.2
 3 C  dz2             0.1       0.0       0.0       0.0       0.0       0.0
 3 C  dyz             0.1       0.0       0.1       0.0       0.0       0.0
 3 C  dx2y2           0.0       0.0       0.0       0.2       0.0       0.0
 3 C  dxy             0.2       0.0       0.0       0.0       0.1       0.3
 4 H  s              11.1       1.9       0.9       0.5       0.2       4.7
 5 C  s               0.1       0.1       0.0       0.0       0.0       0.1
 5 C  pz              0.6       1.3       0.8       3.6       0.1       1.5
 5 C  px              0.1       1.8       0.4       0.5       1.0       2.2
 5 C  py              1.1       0.0       5.2      12.7       0.2       2.3
 5 C  dz2             0.2       0.0       0.0       0.0       0.0       0.0
 5 C  dxz             0.2       0.0       0.1       0.0       0.2       0.1
 5 C  dx2y2           0.0       0.0       0.1       0.2       0.0       0.0
 6 H  s               0.6       0.1       2.4       6.4       0.3       0.7
 7 C  s               0.4       0.4       0.0       0.4       0.1       0.2
 7 C  pz              4.7       2.7       4.9       0.0       1.0       5.9
 7 C  px              0.3       0.6       1.2       1.5       0.8       5.3
 7 C  py              2.4       2.1       0.7       3.0       0.6       0.9
 7 C  dxz             0.3       0.0       0.0       0.0       0.0       0.4
 7 C  dyz             0.0       0.0       0.0       0.1       0.0       0.0
 8 H  s               3.8       0.6       3.1       0.1       0.7       7.9
 9 C  s               0.2       0.0       0.1       0.3       0.1       0.2
 9 C  pz              0.1       0.5       0.2       0.3       0.0       0.4
 9 C  px              3.2       1.6       4.1       0.2       0.0       0.9
 9 C  py              1.4       5.7       7.3       2.5       0.2       0.4
 9 C  dz2             0.0       0.1       0.0       0.1       0.2       0.1
 9 C  dxz             0.0       0.0       0.0       0.0       0.0       0.3
 9 C  dyz             0.1       0.0       0.0       0.0       0.0       0.1
10 H  s               0.4       2.4       3.1       0.2       0.2       0.6
11 O  s               1.8       0.0       0.3       1.0       1.0       0.1
11 O  pz              5.6       2.6       0.0       5.4       6.8       0.8
11 O  px              0.7       0.1       2.9       0.1       0.8       6.6
11 O  py              0.0       0.0       2.9       8.7       0.5       0.0
12 O  s               0.2       0.2       1.2       0.0       1.6       1.3
12 O  pz              4.0       1.3       4.3       1.0       3.9       8.2
12 O  px              1.2       0.5       2.5       0.0       0.1       0.1
12 O  py              0.2       0.1       1.8       0.8       2.6       0.9
13 O  s               0.1       0.3       0.0       0.1       0.8       0.3
13 O  pz              6.6       0.0       0.1       1.1       0.4       0.5
13 O  px              0.0       1.1       1.0       1.7       4.4       5.9
13 O  py              1.2       1.4       1.2       0.2       0.0       1.1
14 O  s               0.6       0.3       0.0       0.9       0.9       0.7
14 O  pz              3.1       1.1       0.1       0.3       0.0       1.3
14 O  px              0.2       1.0       0.0       4.5       5.9       7.0
14 O  py              0.0       0.1       3.8       7.9       0.4       0.7
15 O  s               0.2       1.8       0.9       0.3       0.2       0.2
15 O  pz              8.4       3.2       0.0       0.3       0.2       2.5
15 O  px              0.1       1.7       2.9       0.3       0.0       5.0
15 O  py              0.0       7.7       2.0       0.7       1.7       1.7
15 O  dyz             0.1       0.0       0.0       0.0       0.0       0.0
16 O  s               0.3       0.4       0.0       0.0       2.5       0.0
16 O  pz              0.3       5.4       3.3       1.0       1.1       0.1
16 O  px              0.5       1.5       1.0       1.1      15.8       0.1
16 O  py              0.0       0.1       0.8       0.2       1.0       0.9
17 H  s               0.1       0.1       4.0       4.6       8.8       0.7
18 H  s               1.6       7.9       1.3       0.1       1.6       0.5
19 H  s               0.1       0.1       0.2       0.2       0.7       0.2
20 H  s               2.2       0.0       0.3       0.0       0.0       0.3
21 H  s               1.2       0.1       0.1       0.1       0.6       0.2
22 H  s               2.2       0.0       0.3       0.5       0.3       0.0
23 H  s               0.1       0.4       0.8       0.7       0.1       0.3

                     36        37        38        39        40        41   
                  -0.34571  -0.32798  -0.31925  -0.30334  -0.28720  -0.27107
                   2.00000   2.00000   2.00000   2.00000   2.00000   2.00000
                  --------  --------  --------  --------  --------  --------
 0 C  s               0.1       0.2       0.1       0.0       0.9       0.1
 0 C  pz              1.8       5.3       1.1       0.6       1.1       0.1
 0 C  px              0.5       0.3       0.4       0.2       3.6       0.4
 0 C  py              0.0       0.2       2.3       0.2       0.2       0.1
 0 C  dyz             0.0       0.0       0.0       0.0       0.1       0.1
[...]
 5 C  pz              1.1       0.2       0.2       0.9       0.8       0.3
 5 C  px              0.2       0.0       0.0       0.1       0.2       0.0
 5 C  py              0.0       0.0       0.0       0.1       0.0       0.0
 5 C  dz2             4.7       0.2       0.4       0.9       1.4       0.1
 5 C  dxz             1.4       1.0       0.2       2.0       0.5       0.5
 5 C  dyz             0.1       0.0       0.1       0.1       0.5       0.1
 5 C  dx2y2           0.0       0.1       0.0       0.1       0.0       0.0
 7 C  s               0.2       1.1       0.1       0.1       1.2       0.1
 7 C  pz              0.1       0.5       0.0       0.1       1.5       0.1
 7 C  px              0.1       0.4       0.0       0.0       0.7       0.1
 7 C  py              0.1       0.1       0.0       0.1       0.4       0.2
 7 C  dz2             0.1       0.1       0.0       0.4       1.0       0.0
 7 C  dxz             1.0       1.8       0.1       0.3       2.4       0.2
 7 C  dyz             0.0       1.4       0.3       0.0       2.0       0.5
 7 C  dx2y2           0.1       0.0       0.0       0.5       0.0       0.0
 7 C  dxy             0.1       1.0       0.0       0.0       1.0       0.0
 8 H  s               0.0       0.0       0.0       0.0       0.1       0.0
 9 C  s               0.1       0.7       0.0       1.4       0.0       1.5
 9 C  pz              0.0       1.2       0.3       0.8       0.9       0.3
 9 C  px              0.0       0.0       0.1       0.3       0.2       1.6
 9 C  py              0.0       0.3       0.0       0.4       0.2       0.1
 9 C  dz2             0.0       0.8       0.1       1.2       2.4       0.0
 9 C  dxz             0.3       0.2       0.2       0.0       0.2       3.2
 9 C  dyz             0.0       4.4       0.5       3.2       0.6       0.0
 9 C  dx2y2           0.0       0.5       0.3       0.0       0.5       2.2
11 O  s               0.2       0.2       0.0       0.0       0.0       0.0
11 O  pz              0.0       0.1       0.0       0.0       0.1       0.1
11 O  px              0.0       0.0       0.1       0.3       0.8       5.0
11 O  py              0.0       0.0       0.1       0.0       0.1       0.3
11 O  dz2             0.3       0.0       0.5       0.3       1.4       1.8
11 O  dxz             0.7       1.1       0.4       0.7       6.6      30.9
11 O  dyz             0.0       0.1       0.0       0.0       0.2       0.7
11 O  dx2y2           0.1       0.5       0.9       0.3       0.0       2.7
11 O  dxy             0.0       1.3       0.7       5.4       1.8      16.6
12 O  s               0.0       1.3       0.1       2.0       1.1       0.0
12 O  pz              0.0       1.0       0.1       0.7       0.4       0.0
12 O  py              0.0       0.8       0.1       1.0       0.6       0.1
12 O  dz2             0.0      12.8       2.2       6.6       2.1       0.0
12 O  dxz             0.0       0.0       0.0       0.0       0.1       0.2
12 O  dyz             0.1      13.5       2.2      14.2       7.8       0.4
12 O  dx2y2           0.0       0.2       0.0       0.6       1.2       0.0
13 O  s               0.0       0.9       0.1       0.3       3.5       0.2
13 O  pz              0.3       1.2       0.1       0.1       1.5       0.2
13 O  px              0.0       0.1       0.0       0.0       0.4       0.0
13 O  py              0.2       0.3       0.0       0.1       0.5       0.0
13 O  dz2             0.4       3.2       0.2       0.0       1.5       0.2
13 O  dxz             1.7      12.8       1.1       0.6      16.3       2.3
13 O  dyz             1.4       3.8       0.1       1.5       7.5       0.5
13 O  dx2y2           0.3       0.0       0.1       0.1       0.8       0.2
13 O  dxy             1.5       2.9       0.1       1.3       5.4       0.2
14 O  s               1.5       0.2       0.2       1.5       1.2       0.4
14 O  pz              1.8       0.3       0.3       1.1       0.9       0.3
14 O  dz2            12.5       2.9       1.7       9.9       5.6       2.4
14 O  dxz            13.7       0.6       2.1       3.2       4.9       0.6
14 O  dyz             2.0       0.6       0.2       0.3       0.0       0.0
14 O  dx2y2           0.1       0.1       0.0       0.0       0.2       0.0
14 O  dxy             0.6       0.1       0.0       0.1       0.0       0.0
15 O  s               1.7       0.9       0.0       1.7       0.1       0.6
15 O  pz              1.8       0.7       0.0       1.3       0.2       0.4
15 O  px              0.4       0.0       0.0       0.1       0.0       0.1
15 O  dz2            10.7       4.9       0.1      10.9       1.6       1.8
15 O  dxz             9.4       1.7       0.2       2.3       0.0       1.1
15 O  dyz             9.7       2.7       0.1       4.9       0.3       1.7
15 O  dxy             1.3       0.3       0.0       0.4       0.0       0.3
16 O  s               0.0       0.1       3.2       0.1       0.0       0.4
16 O  pz              0.0       0.0       0.8       0.0       0.0       0.1
16 O  px              0.0       0.0       0.8       0.1       0.0       0.1
16 O  py              0.2       0.2       2.2       0.1       0.0       0.1
16 O  dz2             0.1       0.2       4.2       0.4       0.2       0.0
16 O  dxz             0.3       0.5      12.0       0.3       0.0       1.3
16 O  dyz             0.2       0.3       6.1       0.3       0.0       0.5
16 O  dx2y2           0.0       0.0       0.4       0.0       0.0       0.2
16 O  dxy             2.2       3.0      35.5       0.8       0.1       1.1
19 H  s               0.0       0.4       0.1       0.2       0.1       0.0
20 H  s               0.1       0.3       0.0       0.0       0.3       0.1
21 H  s               0.3       0.0       0.1       0.1       0.1       0.0
22 H  s               0.4       0.1       0.0       0.2       0.0       0.1
23 H  s               0.1       0.1       0.8       0.0       0.0       0.0



                      *****************************
                      * MAYER POPULATION ANALYSIS *
                      *****************************

  NA   - Mulliken gross atomic population
  ZA   - Total nuclear charge
  QA   - Mulliken gross atomic charge
  VA   - Mayer's total valence
  BVA  - Mayer's bonded valence
  FA   - Mayer's free valence

  ATOM       NA         ZA         QA         VA         BVA        FA
  0 C      5.9624     6.0000     0.0376     3.9888     3.9888     0.0000
  1 C      6.0267     6.0000    -0.0267     4.0513     4.0513     0.0000
  2 H      0.9180     1.0000     0.0820     0.9591     0.9591     0.0000
  3 C      5.9785     6.0000     0.0215     4.0383     4.0383     0.0000
  4 H      0.9132     1.0000     0.0868     0.9880     0.9880    -0.0000
  5 C      5.9383     6.0000     0.0617     3.9714     3.9714    -0.0000
  6 H      0.9152     1.0000     0.0848     0.9681     0.9681    -0.0000
  7 C      5.9885     6.0000     0.0115     4.0174     4.0174     0.0000
  8 H      0.9267     1.0000     0.0733     0.9785     0.9785     0.0000
  9 C      5.7920     6.0000     0.2080     4.0680     4.0680    -0.0000
 10 H      0.9271     1.0000     0.0729     0.9798     0.9798    -0.0000
 11 O      8.3227     8.0000    -0.3227     2.1519     2.1519    -0.0000
 12 O      8.3956     8.0000    -0.3956     2.0509     2.0509     0.0000
 13 O      8.4209     8.0000    -0.4209     2.0204     2.0204     0.0000
 14 O      8.4169     8.0000    -0.4169     2.0487     2.0487    -0.0000
 15 O      8.4200     8.0000    -0.4200     2.0696     2.0696    -0.0000
 16 O      8.4422     8.0000    -0.4422     2.0262     2.0262    -0.0000
 17 H      0.9202     1.0000     0.0798     0.9506     0.9506     0.0000
 18 H      0.9059     1.0000     0.0941     1.0311     1.0311     0.0000
 19 H      0.6965     1.0000     0.3035     0.8938     0.8938    -0.0000
 20 H      0.7078     1.0000     0.2922     0.9454     0.9454     0.0000
 21 H      0.6825     1.0000     0.3175     0.8795     0.8795     0.0000
 22 H      0.6877     1.0000     0.3123     0.9007     0.9007     0.0000
 23 H      0.6944     1.0000     0.3056     0.9185     0.9185     0.0000

  Mayer bond orders larger than 0.100000
B(  0-C ,  1-C ) :   1.0273 B(  0-C , 16-O ) :   1.1014 B(  0-C , 17-H ) :   0.9176 
B(  0-C , 18-H ) :   0.8935 B(  1-C ,  2-H ) :   0.8925 B(  1-C ,  3-C ) :   1.0467 
B(  1-C , 11-O ) :   0.9564 B(  3-C ,  4-H ) :   0.8879 B(  3-C ,  5-C ) :   0.9724 
B(  3-C , 15-O ) :   1.0499 B(  5-C ,  6-H ) :   0.9046 B(  5-C ,  7-C ) :   0.9844 
B(  5-C , 14-O ) :   1.0444 B(  7-C ,  8-H ) :   0.8902 B(  7-C ,  9-C ) :   0.9618 
B(  7-C , 13-O ) :   1.0706 B(  9-C , 10-H ) :   0.9029 B(  9-C , 11-O ) :   1.0445 
B(  9-C , 12-O ) :   1.0932 B( 12-O , 19-H ) :   0.8359 B( 13-O , 20-H ) :   0.8067 
B( 14-O , 21-H ) :   0.8347 B( 15-O , 20-H ) :   0.1150 B( 15-O , 22-H ) :   0.8233 
B( 16-O , 23-H ) :   0.8217 

-------
TIMINGS
-------

Total SCF time: 0 days 0 hours 0 min 5 sec 

Total time                  ....       5.906 sec
Sum of individual times     ....       5.875 sec  ( 99.5%)

SCF preparation             ....       0.063 sec  (  1.1%)
Fock matrix formation       ....       5.597 sec  ( 94.8%)
  Startup                   ....       0.007 sec  (  0.1% of F)
  Split-RI-J                ....       2.929 sec  ( 52.3% of F)
  XC integration            ....       2.573 sec  ( 46.0% of F)
    XC Preparation          ....       0.000 sec  (  0.0% of XC)
    Basis function eval.    ....       1.063 sec  ( 41.3% of XC)
    Density eval.           ....       0.590 sec  ( 22.9% of XC)
    XC-Functional eval.     ....       0.150 sec  (  5.8% of XC)
    XC-Potential eval.      ....       0.608 sec  ( 23.6% of XC)
Diagonalization             ....       0.000 sec  (  0.0%)
Density matrix formation    ....       0.029 sec  (  0.5%)
Total Energy calculation    ....       0.002 sec  (  0.0%)
Population analysis         ....       0.061 sec  (  1.0%)
Orbital Transformation      ....       0.017 sec  (  0.3%)
Orbital Orthonormalization  ....       0.000 sec  (  0.0%)
DIIS solution               ....       0.083 sec  (  1.4%)
  MO trafo                  ....       0.000 sec  (  0.0 % of DIIS)
  Orb grad                  ....       0.000 sec  (  0.0 % of DIIS)
  Energy W gradient         ....       0.000 sec  (  0.0 % of DIIS)
  DIIS error                ....       0.005 sec  (  6.2 % of DIIS)
  DIIS work                 ....       0.068 sec  ( 82.2 % of DIIS)
  Form Q                    ....       0.000 sec  (  0.0 % of DIIS)
  Form QpQm                 ....       0.000 sec  (  0.0 % of DIIS)
  Exp/Cayley                ....       0.000 sec  (  0.0 % of DIIS)
  Orb update                ....       0.000 sec  (  0.0 % of DIIS)
  Wake-sleep                ....       0.001 sec  (  1.2 % of DIIS)
SOSCF solution              ....       0.022 sec  (  0.4%)
  MO trafo                  ....       0.014 sec  ( 60.9 % of SOSCF)
  Orb grad                  ....       0.000 sec  (  0.8 % of SOSCF)
  Rot update                ....       0.002 sec  (  7.4 % of SOSCF)
  Step                      ....       0.007 sec  ( 30.6 % of SOSCF)
Finished LeanSCF after   6.4 sec

Maximum memory used throughout the entire LEANSCF-calculation: 19.3 MB


-------------------------------------------------------------------------------
                          DFT DISPERSION CORRECTION                            
                                                                               
                                DFTD4 V3.4.0                                   
-------------------------------------------------------------------------------
The PBE functional is recognized
Active option DFTDOPT                   ...         5   

-------------------------   ----------------
Dispersion correction           -0.026511387
-------------------------   ----------------

------------------   -----------------
gCP correction             0.161640268
------------------   -----------------

-------------------------   --------------------
FINAL SINGLE POINT ENERGY      -685.693954704443
-------------------------   --------------------


------------------------------------------------------------------------------
                              ORCA PROPERTY CALCULATIONS
------------------------------------------------------------------------------

GBWName                                 ... sp.gbw
Number of atoms                         ...     24
Number of basis functions               ...    192
Max core memory                         ...   1024 MB

Electric properties:
Dipole moment                           ... YES
Quadrupole moment                       ...  NO
Static polarizability (Dipole/Dipole)   ...  NO
Static polarizability (Dipole/Quad.)    ...  NO
Static polarizability (Quad./Quad.)     ...  NO
Static polarizability (Velocity)        ...  NO

Atomic electric properties:
Dipole moment                           ...  NO
Quadrupole moment                       ...  NO
Static polarizability                   ...  NO

Choice of electric origin               ... Center of mass
Position of electric origin             ...    -0.000003    -0.000001    -0.000001

General magnetic properties:
Magnetizability                         ...  NO

EPR properties:
g-Tensor (aka g-matrix)                 ...  NO
Zero-Field splitting spin-orbit         ...  NO
Zero-field splitting spin-spin          ...  NO
Hyperfine couplings                     ...  NO (   0 nuclei)
Quadrupole couplings                    ...  NO (   0 nuclei)
Contact density                         ...  NO (   0 nuclei)

NMR properties:
Chemical shifts                         ...  NO (   0 nuclei)
Spin-rotation constants                 ...  NO (   0 nuclei)
Spin-spin couplings                     ...  NO (   0 nuclei,    0 pairs)

Choice of magnetic origin               ... GIAO
Position of magnetic origin             ...     0.000000     0.000000     0.000000

Properties with geometric perturbations:
SCF Hessian                             ...  NO
IR spectrum                             ...  NO
VCD spectrum                            ...  NO
X-ray spectroscopy properties:
SCF XES/XAS/RIXS spectra                ...  NO


-------------
DIPOLE MOMENT
-------------

Method             : SCF
Type of density    : Electron Density
Multiplicity       :   1
Irrep              :   0
Energy             :  -685.8290835854337502 Eh
Relativity type    : 
Basis              : AO
                                X                 Y                 Z
Electronic contribution:      1.232877891       0.146792224       1.070119535
Nuclear contribution   :     -0.856637613      -0.566143630      -1.197216637
                        -----------------------------------------
Total Dipole Moment    :      0.376240278      -0.419351406      -0.127097102
                        -----------------------------------------
Magnitude (a.u.)       :      0.577551748
Magnitude (Debye)      :      1.468019878



--------------------
Rotational spectrum 
--------------------
 
Rotational constants in cm-1:             0.041113             0.029678             0.026368 
Rotational constants in MHz :          1232.540331           889.736452           790.487252 

Dipole components along the rotational axes: 
x,y,z [a.u.] :     0.213086     0.536794     0.003597 
x,y,z [Debye]:     0.541621     1.364421     0.009142 

 

Dipole moment calculation done in   0.0 sec 

Maximum memory used throughout the entire PROP-calculation: 12.9 MB

--------------------------------
SUGGESTED CITATIONS FOR THIS RUN
--------------------------------

Below you find a list of papers that are relevant to this ORCA run
We neither can nor want to force you to cite these papers, but we appreciate if you do
You receive ORCA, which is the product of decades of hard work by many enthusiastic individuals, for free
The only thing we kindly ask in return is that you cite our papers,
We deeply appreciate it, if you show your appreciation for ORCA by not just citing the generic ORCA reference.

Please note that relegating all ORCA citations to the supporting information does *not* help us.
SI sections are not indexed - citations you put there will not count into any citation statistics
But we need these citations in order to attract the funding resources that allow us to do what we are doing

Therefore, if you are a happy ORCA user, please consider citing a few of the papers listed below in the main body of your paper

In addition to the list printed below, the program has created the file sp.bibtex that contains the list in bibtex format
You can import this file easily into all common literature databanks and citation aid programs


List of essential papers. We consider these as the minimum necessary citations

  1. Neese,F.
     Software update: the ORCA program system, version 5.0
     WIRES Comput. Molec. Sci., 2022 12(1)e1606
     doi.org/10.1002/wcms.1606

List of papers to cite with high priority. The work reported in these papers was absolutely
necessary for this run to complete.
Our perspective: the developers of density functionals and basis sets usually get cited in chemistry papers
Good! But without the algorithms to do something with them, the functionals or basis sets would not do anything.
Hence, in our opinion, the algorithm design and method developments papers are equally worthy of getting cited

  1. Neese,F.
     An improvement of the resolution of the identity approximation for the formation of the Coulomb matrix
     J. Comp. Chem., 2003 24(14)1740-1747
     doi.org/10.1002/jcc.10318
  2. Neese,F.
     The SHARK Integral Generation and Digestion System
     J. Comp. Chem., 2022  1-16
     doi.org/10.1002/jcc.26942
  3. Caldeweyher,E.; Bannwarth,C.; Grimme,S.
     Extension of the D3 dispersion coefficient model
     J. Chem. Phys., 2017 147 034112
     doi.org/10.1063/1.4993215
  4. Caldeweyher,E.; Ehlert,S.; Hansen,A.; Neugebauer,H.; Spicher,S.; Bannwarth,C.; Grimme,S.
     A generally applicable atomic-charge dependent London dispersion correction
     J. Chem. Phys., 2019 150 154122
     doi.org/10.1063/1.5090222
  5. Caldeweyher,E.; Mewes,J.; Ehlert,S.; Grimme,S.
     Extension and evaluation of the D4 London-dispersion model for periodic systems
     Phys. Chem. Chem. Phys., 2020 22(16)8499-8512
     doi.org/10.1039/D0CP00502A
  6. Wittmann,L.; Gordiy,I.; Friede,M.; Helmich-Paris,B.; Grimme,S.; Hansen,A.; Bursch,M.
     Extension of the D3 and D4 London Dispersion Corrections to the full Actinides Series
     Phys. Chem. Chem. Phys., 2024 26(32)21379-21394
     doi.org/https://doi.org/10.1039/D4CP01514B 

List of suggested additional citations. These are papers that are important in the 'surrounding' of 
of this run, or papers that preceded the highly important papers. If you like your results we are grateful for a citation.

  1. Neese,F.
     The ORCA program system
     WIRES Comput. Molec. Sci., 2012 2(1)73-78
     doi.org/10.1002/wcms.81
  2. Neese,F.
     Software update: the ORCA program system, version 4.0
     WIRES Comput. Molec. Sci., 2018 8(1)1-6
     doi.org/10.1002/wcms.1327
  3. Neese,F.; Wennmohs,F.; Becker,U.; Riplinger,C.
     The ORCA quantum chemistry program package
     J. Chem. Phys., 2020 152 Art. No. L224108
     doi.org/10.1063/5.0004608

List of optional additional citations

  1. Neese,F.
     Approximate second-order SCF convergence for spin unrestricted wavefunctions
     Chem. Phys. Lett., 2000 325(1-3)93-98
     doi.org/10.1016/s0009-2614(00)00662-x

Timings for individual modules:

Sum of individual times          ...        7.863 sec (=   0.131 min)
Startup calculation              ...        0.618 sec (=   0.010 min)   7.9 %
SCF iterations                   ...        7.179 sec (=   0.120 min)  91.3 %
Property calculations            ...        0.066 sec (=   0.001 min)   0.8 %
                             ****ORCA TERMINATED NORMALLY****
TOTAL RUN TIME: 0 days 0 hours 0 minutes 8 seconds 102 msec
