
                                 *****************
                                 * O   R   C   A *
                                 *****************

                                            #,                                       
                                            ###                                      
                                            ####                                     
                                            #####                                    
                                            ######                                   
                                           ########,                                 
                                     ,,################,,,,,                         
                               ,,#################################,,                 
                          ,,##########################################,,             
                       ,#########################################, ''#####,          
                    ,#############################################,,   '####,        
                  ,##################################################,,,,####,       
                ,###########''''           ''''###############################       
              ,#####''   ,,,,##########,,,,          '''####'''          '####       
            ,##' ,,,,###########################,,,                        '##       
           ' ,,###''''                  '''############,,,                           
         ,,##''                                '''############,,,,        ,,,,,,###''
      ,#''                                            '''#######################'''  
     '                                                          ''''####''''         
             ,#######,   #######,   ,#######,      ##                                
            ,#'     '#,  ##    ##  ,#'     '#,    #''#        ,####,   ,####,        
            ##       ##  ##   ,#'  ##            #'  '#       #'       #'  '#        
            ##       ##  #######   ##           ,######,      #####,   #    #        
            '#,     ,#'  ##    ##  '#,     ,#' ,#      #,     #,   #   #,  ,#        
             '#######'   ##     ##  '#######'  #'      '#     '####' # '####'        



                #########################################################
                #                        -***-                          #
                #          Department of theory and spectroscopy        #
                #                                                       #
                #                      Frank Neese                      #
                #                                                       #
                #     Directorship, Architecture, Infrastructure        #
                #                    SHARK, DRIVERS                     #
                #        Core code/Algorithms in most modules           #
                #                                                       #
                #        Max Planck Institute fuer Kohlenforschung      #
                #                Kaiser Wilhelm Platz 1                 #
                #                 D-45470 Muelheim/Ruhr                 #
                #                      Germany                          #
                #                                                       #
                #                  All rights reserved                  #
                #                        -***-                          #
                #########################################################


                         Program Version 6.0.1  -  RELEASE   -


 With contributions from (in alphabetic order):
[Max-Planck-Institut fuer Kohlenforschung]                               
  Daniel Aravena         : Magnetic Suceptibility                        
  Michael Atanasov       : Ab Initio Ligand Field Theory (pilot matlab implementation)
  Alexander A. Auer      : GIAO ZORA, VPT2 properties, NMR spectrum      
  Ute Becker             : All parallelization in ORCA, NUMFREQ, NUMCALC 
  Giovanni Bistoni       : ED, misc. LED, open-shell LED, HFLD           
  Martin Brehm           : Molecular dynamics                            
  Dmytro Bykov           : pre 5.0 version of the SCF Hessian            
  Marcos Casanova-Páez   : Triplet and SCS-CIS(D). UHF-(DLPNO)-IP/EA/STEOM-CCSD. UHF-CVS-IP/STEOM-CCSD   
  Vijay G. Chilkuri      : MRCI spin determinant printing, contributions to CSF-ICE 
  Pauline Colinet        : FMM embedding                                 
  Dipayan Datta          : RHF DLPNO-CCSD density                        
  Achintya Kumar Dutta   : EOM-CC, STEOM-CC                              
  Nicolas Foglia         : Exact transition moments, OPA infrastructure, MCD improvements    
  Dmitry Ganyushin       : Spin-Orbit,Spin-Spin,Magnetic field MRCI      
  Miquel Garcia-Rates    : C-PCM and meta-GGA Hessian, CCSD/C-PCM, Gaussian charge scheme 
  Tiago L. C. Gouveia    : GS-ROHF, GS-ROCIS                             
  Yang Guo               : DLPNO-NEVPT2, F12-NEVPT2, CIM, IAO-localization        
  Andreas Hansen         : Spin unrestricted coupled pair/coupled cluster methods 
  Ingolf Harden          : AUTO-CI MPn and infrastructure                
  Benjamin Helmich-Paris : MC-RPA, TRAH-(SCF,CASSCF), AVAS, COSX integrals, SCF dyn. polar. 
  Lee Huntington         : MR-EOM, pCC                                   
  Robert Izsak           : Overlap fitted RIJCOSX, COSX-SCS-MP3, EOM     
  Riya Kayal             : Wick's Theorem for AUTO-CI, AUTO-CI UHF-CCSDT 
  Emily Kempfer          : AUTO-CI, RHF CISDT and CCSDT                  
  Christian Kollmar      : KDIIS, OOCD, Brueckner-CCSD(T), CCSD density, CASPT2, CASPT2-K, improved NEVPT2 
  Axel Koslowski         : Symmetry handling                             
  Simone Kossmann        : meta-GGA functionals, TD-DFT gradient, OOMP2, (MP2 Hessian; deprecated post 5.0) 
  Lucas Lang             : DCDCAS                                        
  Marvin Lechner         : AUTO-CI (C++ implementation), FIC-MRCC        
  Spencer Leger          : CASSCF response                               
  Dagmar Lenk            : GEPOL surface, SMD, ORCA-2-JSON               
  Dimitrios Liakos       : Extrapolation schemes; Compound Job, initial MDCI parallelization 
  Dimitrios Manganas     : Further ROCIS development; embedding schemes. LFT, Crystal Embedding 
  Dimitrios Pantazis     : SARC Basis sets                               
  Anastasios Papadopoulos: AUTO-CI, single reference methods and gradients 
  Taras Petrenko         : pre 6.0 DFT Hessian and TD-DFT gradient, (ASA, deprecated), ECA, 1-Electron XAS/XES, NRVS 
  Peter Pinski           : DLPNO-MP2, DLPNO-MP2 Gradient                 
  Christoph Reimann      : Effective Core Potentials                     
  Marius Retegan         : Local ZFS, SOC                                
  Christoph Riplinger    : Optimizer, TS searches, QM/MM, DLPNO-CCSD(T), (RO)-DLPNO pert. Triples 
  Michael Roemelt        : Original ROCIS implementation                 
  Masaaki Saitow         : Open-shell DLPNO-CCSD energy and density      
  Barbara Sandhoefer     : DKH picture change effects                    
  Kantharuban Sivalingam : CASSCF convergence/infrastructure, NEVPT2 and variants, FIC-MRCI 
  Bernardo de Souza      : ESD, SOC TD-DFT                               
  Georgi L. Stoychev     : AutoAux, RI-MP2 NMR, DLPNO-MP2 response, X2C  
  Van Anh Tran           : RI-MP2 g-tensors                              
  Willem Van den Heuvel  : Paramagnetic NMR                              
  Zikuan Wang            : NOTCH, Electric field optimization            
  Frank Wennmohs         : Technical directorship and infrastructure     
  Hang Xu                : AUTO-CI-Response properties                   
                                                                         
[FACCTs GmbH]                                                            
  Markus Bursch, Miquel Garcia-Rates, Christoph Riplinger, Bernardo de Souza, Georgi L. Stoychev 
                                                                 
  APM, Basis sets (HGBS, AHGBS, def-TZVP (Ac-Lr), def2-XVPD (La-Lu)), CI-OPT, improved COSX, DLPNO-Multilevel,           
  DOCKER, DRACO, updates on ESD, GOAT, IRC, LR-CPCM, MBIS, meta-GGA TD-DFT gradient, ML-optimized integration grids, 
  MM, NACMEs, nearIR, NEB, NEB-TS, NL-DFT gradient (VV10), 2- and 3-layer-ONIOM, interface openCOSMO-RS, QMMM,   
  Crystal-QMMM, SF, symmetry and pop. for TD-DFT, r2SCAN hybrids, SOLVATOR                                   
                                                                         
[Other institutions]                                                     
  V. Asgeirsson          : NEB                                           
  Christoph Bannwarth    : sTDA-DFT, sTD-DFT, PBEh-3c, B97-3c, D3        
  Sebastian Ehlert       : rSCAN, r2SCAN, r2SCAN-3c, D4, dhf basis sets  
  Marvin Friede          : D4 for Fr, Ra, Ac-Lr                          
  Lars Goerigk           : TD-DFT with DH, B97 family of functionals     
  Stefan Grimme          : VdW corrections, initial TS optimization, DFT functionals, gCP, sTDA/sTD-DF 
  Waldemar Hujo          : DFT-NL                                        
  H. Jonsson             : NEB                                           
  Holger Kruse           : gCP                                           
  Marcel Mueller         : wB97X-3c, vDZP basis set                      
  Hagen Neugebauer       : wr2SCAN                                       
  Tobias Risthaus        : range-separated hybrid DFT                    
  Lukas Wittmann         : regularized MP2, r2SCAN double-hybrids, wr2SCAN        
                                                                         
We gratefully acknowledge several colleagues who have allowed us to      
interface, adapt or use parts of their codes:                            
  Ed Valeev, F. Pavosevic, A. Kumar             : LibInt (2-el integral package), F12 methods 
  Garnet Chan, S. Sharma, J. Yang, R. Olivares  : DMRG                   
  Ulf Ekstrom                                   : XCFun DFT Library      
  Mihaly Kallay                                 : mrcc  (arbitrary order and MRCC methods)
  Frank Weinhold                                : gennbo (NPA and NBO analysis)           
  Simon Mueller                                 : openCOSMO-RS                            
  Christopher J. Cramer and Donald G. Truhlar   : smd solvation model                     
  S Lehtola, MJT Oliveira, MAL Marques          : LibXC Library                           
  Liviu Ungur et al                             : ANISO software                          


 Your calculation uses the libint2 library for the computation of 2-el integrals
 For citations please refer to: http://libint.valeyev.net

 Your ORCA version has been built with support for libXC version: 6.2.2
 For citations please refer to: https://libxc.gitlab.io

 This ORCA versions uses:
   CBLAS   interface :  Fast vector & matrix operations
   LAPACKE interface :  Fast linear algebra routines
   SCALAPACK package :  Parallel linear algebra routines
   Shared memory     :  Shared parallel matrices
   BLAS/LAPACK       :  OpenBLAS 0.3.27  USE64BITINT DYNAMIC_ARCH NO_AFFINITY Zen SINGLE_THREADED
        Core in use  :  Zen
   Copyright (c) 2011-2014, The OpenBLAS Project


Your calculation utilizes the geometrical counterpoise correction gCP
Please cite in your paper:
H.Kruse, S. Grimme J.Chem.Phys., 136, (2012), 154101 
   

Your calculation utilizes the atom-pairwise dispersion correction
based on EEQ partial charges (D4)


================================================================================

----- Orbital basis set information -----
Your calculation utilizes the basis: def2-mTZVPP
   Stefan Grimme, Andreas Hansen, Sebastian Ehlert, and Jan-Michael Mewes 
   J. Chem. Phys. 154, 064103 (2021). DOI: 10.1063/5.0040021

----- AuxJ basis set information -----
Your calculation utilizes the auxiliary basis: def2/J
   F. Weigend, Phys. Chem. Chem. Phys. 8, 1057 (2006).

================================================================================
                                        WARNINGS
                       Please study these warnings very carefully!
================================================================================



WARNING: SCAN, rSCAN, or r2SCAN functional requested.
  ===> : libXC variant has now been activated.



================================================================================
                                       INPUT FILE
================================================================================
NAME = sp.inp
|  1> ! r2scan-3c def2/J RI DEFGRID2 scfconv6 printgap
|  2> %output
|  3>     printlevel normal
|  4> end
|  5> * xyz 0 1
|  6> C 1.9766258504 0.0059413446 -0.651543104
|  7> C 1.2681017947 -0.3465071536 0.6510938382
|  8> C -0.239972291 -0.5328423484 0.5078681961
|  9> H -0.6685515098 -0.7652415553 1.4873390428
| 10> C -0.6441700159 -1.5932555268 -0.5005110393
| 11> Cl -0.9901658332 1.0312779433 0.0327032025
| 12> H 1.5124585421 0.8757122407 -1.1094208731
| 13> H 1.9409607749 -0.8218042061 -1.3547628307
| 14> H 3.0199894365 0.2378252619 -0.4529526902
| 15> H 1.4491032735 0.4440039526 1.3825041148
| 16> H 1.6803884432 -1.2748051931 1.0550981745
| 17> H -0.338855441 -1.3093426302 -1.5036156039
| 18> H -0.1738514568 -2.5396538189 -0.2408245388
| 19> H -1.7232009609 -1.7271379591 -0.4960241026
| 20> *
| 21> 
| 22>                          ****END OF INPUT****
================================================================================

                       ****************************
                       * Single Point Calculation *
                       ****************************

---------------------------------
CARTESIAN COORDINATES (ANGSTROEM)
---------------------------------
  C      1.976626    0.005941   -0.651543
  C      1.268102   -0.346507    0.651094
  C     -0.239972   -0.532842    0.507868
  H     -0.668552   -0.765242    1.487339
  C     -0.644170   -1.593256   -0.500511
  Cl    -0.990166    1.031278    0.032703
  H      1.512459    0.875712   -1.109421
  H      1.940961   -0.821804   -1.354763
  H      3.019989    0.237825   -0.452953
  H      1.449103    0.444004    1.382504
  H      1.680388   -1.274805    1.055098
  H     -0.338855   -1.309343   -1.503616
  H     -0.173851   -2.539654   -0.240825
  H     -1.723201   -1.727138   -0.496024

----------------------------
CARTESIAN COORDINATES (A.U.)
----------------------------
  NO LB      ZA    FRAG     MASS         X           Y           Z
   0 C     6.0000    0    12.011    3.735282    0.011228   -1.231238
   1 C     6.0000    0    12.011    2.396365   -0.654804    1.230389
   2 C     6.0000    0    12.011   -0.453482   -1.006926    0.959732
   3 H     1.0000    0     1.008   -1.263379   -1.446097    2.810663
   4 C     6.0000    0    12.011   -1.217305   -3.010817   -0.945829
   5 Cl   17.0000    0    35.453   -1.871142    1.948833    0.061800
   6 H     1.0000    0     1.008    2.858132    1.654856   -2.096502
   7 H     1.0000    0     1.008    3.667884   -1.552985   -2.560131
   8 H     1.0000    0     1.008    5.706953    0.449425   -0.855957
   9 H     1.0000    0     1.008    2.738408    0.839046    2.612554
  10 H     1.0000    0     1.008    3.175474   -2.409033    1.993847
  11 H     1.0000    0     1.008   -0.640344   -2.474299   -2.841422
  12 H     1.0000    0     1.008   -0.328532   -4.799250   -0.455092
  13 H     1.0000    0     1.008   -3.256378   -3.263818   -0.937350

--------------------------------
INTERNAL COORDINATES (ANGSTROEM)
--------------------------------
 C      0   0   0     0.000000000000     0.00000000     0.00000000
 C      1   0   0     1.524168391148     0.00000000     0.00000000
 C      2   1   0     1.526277116822   114.03819518     0.00000000
 H      3   2   1     1.094099025541   109.20632796   180.96139809
 C      3   2   1     1.518117450043   114.24768647    57.31426304
 Cl     3   2   1     1.798622920128   109.31383230   295.25463898
 H      1   2   3     1.087016445705   110.27502469    53.88686757
 H      1   2   3     1.086716466395   111.20222307   293.05662109
 H      1   2   3     1.087113552650   109.83728278   173.32656443
 H      2   1   3     1.092076159006   109.14542737   238.67197829
 H      2   1   3     1.093131755288   109.68879102   120.84751197
 H      5   3   2     1.086297514507   110.85281467   295.67394189
 H      5   3   2     1.088258403535   109.50461300    56.01918530
 H      5   3   2     1.087314314514   110.33373592   175.63820527

---------------------------
INTERNAL COORDINATES (A.U.)
---------------------------
 C      0   0   0     0.000000000000     0.00000000     0.00000000
 C      1   0   0     2.880260841248     0.00000000     0.00000000
 C      2   1   0     2.884245755265   114.03819518     0.00000000
 H      3   2   1     2.067547521663   109.20632796   180.96139809
 C      3   2   1     2.868826219708   114.24768647    57.31426304
 Cl     3   2   1     3.398904737235   109.31383230   295.25463898
 H      1   2   3     2.054163385451   110.27502469    53.88686757
 H      1   2   3     2.053596506709   111.20222307   293.05662109
 H      1   2   3     2.054346890983   109.83728278   173.32656443
 H      2   1   3     2.063724857906   109.14542737   238.67197829
 H      2   1   3     2.065719645788   109.68879102   120.84751197
 H      5   3   2     2.052804802377   110.85281467   295.67394189
 H      5   3   2     2.056510345620   109.50461300    56.01918530
 H      5   3   2     2.054726275924   110.33373592   175.63820527

---------------------
BASIS SET INFORMATION
---------------------
There are 3 groups of distinct atoms

 Group   1 Type C   : 11s6p1d contracted to 5s3p1d pattern {62111/411/1}
 Group   2 Type H   : 4s1p contracted to 2s1p pattern {31/1}
 Group   3 Type Cl  : 14s9p2d contracted to 5s4p2d pattern {73211/6111/11}

Atom   0C    basis set group =>   1
Atom   1C    basis set group =>   1
Atom   2C    basis set group =>   1
Atom   3H    basis set group =>   2
Atom   4C    basis set group =>   1
Atom   5Cl   basis set group =>   3
Atom   6H    basis set group =>   2
Atom   7H    basis set group =>   2
Atom   8H    basis set group =>   2
Atom   9H    basis set group =>   2
Atom  10H    basis set group =>   2
Atom  11H    basis set group =>   2
Atom  12H    basis set group =>   2
Atom  13H    basis set group =>   2
---------------------------------
AUXILIARY/J BASIS SET INFORMATION
---------------------------------
There are 3 groups of distinct atoms

 Group   1 Type C   : 12s5p4d2f1g contracted to 6s4p3d1f1g pattern {711111/2111/211/2/1}
 Group   2 Type H   : 5s2p1d contracted to 3s1p1d pattern {311/2/1}
 Group   3 Type Cl  : 14s5p5d2f1g contracted to 8s4p3d1f1g pattern {71111111/2111/311/2/1}

Atom   0C    basis set group =>   1
Atom   1C    basis set group =>   1
Atom   2C    basis set group =>   1
Atom   3H    basis set group =>   2
Atom   4C    basis set group =>   1
Atom   5Cl   basis set group =>   3
Atom   6H    basis set group =>   2
Atom   7H    basis set group =>   2
Atom   8H    basis set group =>   2
Atom   9H    basis set group =>   2
Atom  10H    basis set group =>   2
Atom  11H    basis set group =>   2
Atom  12H    basis set group =>   2
Atom  13H    basis set group =>   2

Checking for AutoStart:
The File: sp.gbw exists
Trying to determine its content:
     ... Fine, the file contains calculation information
     ... Fine, the calculation information was read
     ... Fine, the file contains a basis set
     ... Fine, the basis set was read
     ... Fine, the file contains a geometry
     ... Fine, the geometry was read
     ... Fine, the file contains a set of orbitals
     ... Fine, the orbitals can be read
     => possible old guess file was deleted
     => GBW file was renamed to GES file
     => GES file is set as startup file
     => Guess is set to MORead
     ... now leaving AutoStart

------------------------------------------------------------------------------
                             ORCA STARTUP CALCULATIONS
                           -- RI-GTO INTEGRALS CHOSEN --
------------------------------------------------------------------------------
------------------------------------------------------------------------------
                   ___                                                        
                  /   \      - P O W E R E D   B Y -                         
                 /     \                                                     
                 |  |  |   _    _      __       _____    __    __             
                 |  |  |  | |  | |    /  \     |  _  \  |  |  /  |          
                  \  \/   | |  | |   /    \    | | | |  |  | /  /          
                 / \  \   | |__| |  /  /\  \   | |_| |  |  |/  /          
                |  |  |   |  __  | /  /__\  \  |    /   |      \           
                |  |  |   | |  | | |   __   |  |    \   |  |\   \          
                \     /   | |  | | |  |  |  |  | |\  \  |  | \   \       
                 \___/    |_|  |_| |__|  |__|  |_| \__\ |__|  \__/        
                                                                              
                      - O R C A' S   B I G   F R I E N D -                    
                                      &                                       
                       - I N T E G R A L  F E E D E R -                       
                                                                              
 v1 FN, 2020, v2 2021, v3 2022-2024                                           
------------------------------------------------------------------------------


----------------------
SHARK INTEGRAL PACKAGE
----------------------

Number of atoms                             ...     14
Number of basis functions                   ...    148
Number of shells                            ...     74
Maximum angular momentum                    ...      2
Integral batch strategy                     ... SHARK/LIBINT Hybrid
RI-J (if used) integral strategy            ... SPLIT-RIJ (Revised 2003 algorithm where possible)
Printlevel                                  ...      1
Contraction scheme used                     ... SEGMENTED contraction
Prescreening option                         ... SCHWARTZ
   Thresh                                   ... 1.000e-10
   Tcut                                     ... 1.000e-11
   Tpresel                                  ... 1.000e-11 
Coulomb Range Separation                    ... NOT USED
Exchange Range Separation                   ... NOT USED
Multipole approximations                    ... NOT USED
Finite Nucleus Model                        ... NOT USED
CABS basis                                  ... NOT available
Auxiliary Coulomb fitting basis             ... AVAILABLE
   # of basis functions in Aux-J            ...    346
   # of shells in Aux-J                     ...    122
   Maximum angular momentum in Aux-J        ...      4
Auxiliary J/K fitting basis                 ... NOT available
Auxiliary Correlation fitting basis         ... NOT available
Auxiliary 'external' fitting basis          ... NOT available

Checking pre-screening integrals            ... done (  0.0 sec) Dimension = 74
Check shell pair data                       ... done (  0.0 sec)
Shell pair information
Shell pair cut-off parameter TPreSel        ...   1.0e-11
Total number of shell pairs                 ...      2775
Shell pairs after pre-screening             ...      2656
Total number of primitive shell pairs       ...     10308
Primitive shell pairs kept                  ...      7317
          la=0 lb=0:    890 shell pairs
          la=1 lb=0:   1024 shell pairs
          la=1 lb=1:    315 shell pairs
          la=2 lb=0:    256 shell pairs
          la=2 lb=1:    150 shell pairs
          la=2 lb=2:     21 shell pairs

Calculating one electron integrals          ... done (  0.0 sec)
Calculating RI/J V-Matrix + Cholesky decomp.... done (  0.0 sec)
Calculating Nuclear repulsion               ... done (  0.0 sec) ENN=    237.221111227484 Eh

Diagonalization of the overlap matrix:
Smallest eigenvalue                        ... 3.238e-04
Time for diagonalization                   ...    0.002 sec
Threshold for overlap eigenvalues          ... 1.000e-07
Number of eigenvalues below threshold      ... 0
Time for construction of square roots      ...    0.003 sec
Total time needed                          ...    0.007 sec

-------------------
DFT GRID GENERATION
-------------------

General Integration Accuracy     IntAcc      ... 4.388
Radial Grid Type                 RadialGrid  ... OptM3 with GC (2021)
Angular Grid (max. ang.)         AngularGrid ... 4 (Lebedev-302)
Angular grid pruning method      GridPruning ... 4 (adaptive)
Weight generation scheme         WeightScheme... mBecke (2022)
Basis function cutoff            BFCut       ... 1.0000e-10
Integration weight cutoff        WCut        ... 1.0000e-14
Partially contracted basis set               ... off
Rotationally invariant grid construction     ... off
Angular grids for H and He will be reduced by one unit

Total number of grid points                  ...    60373
Total number of batches                      ...      949
Average number of points per batch           ...       63
Average number of grid points per atom       ...     4312
Initializing property integral containers    ... done (  0.0 sec)

SHARK setup successfully completed in   0.5 seconds

Maximum memory used throughout the entire STARTUP-calculation: 27.6 MB
-------------------------------------------------------------------------------
                                 ORCA GUESS
                   Start orbitals & Density for SCF / CASSCF
-------------------------------------------------------------------------------

------------
SCF SETTINGS
------------
Hamiltonian:
 Density Functional     Method          .... DFT(GTOs)
  Functional kind                       .... Exchange
  Functional name                       .... Re-regularized SCAN exchange by Furness et al
  Functional family                     .... MGGA
  Functional refs                              
    [ 0] J. W. Furness, A. D. Kaplan, J. Ning, J. P. Perdew, and J. Sun.,  J. Phys. Chem. Lett. 11, 8208-8215 (2020), doi: 10.1021/acs.jpclett.0c02405
    [ 1] J. W. Furness, A. D. Kaplan, J. Ning, J. P. Perdew, and J. Sun.,  J. Phys. Chem. Lett. 11, 9248-9248 (2020), doi: 10.1021/acs.jpclett.0c03077
  Functional external parameters        .... 6
    Parameter  0 _c1        =  6.670000e-01 : c1 parameter        
    Parameter  1 _c2        =  8.000000e-01 : c2 parameter        
    Parameter  2 _d         =  1.240000e+00 : d parameter         
    Parameter  3 _k1        =  6.500000e-02 : k1 parameter        
    Parameter  4 _eta       =  1.000000e-03 : eta parameter       
    Parameter  5 _dp2       =  3.610000e-01 : dp2 parameter       
  Functional kind                       .... Correlation
  Functional name                       .... Re-regularized SCAN correlation by Furness et al
  Functional family                     .... MGGA
  Functional refs                              
    [ 0] J. W. Furness, A. D. Kaplan, J. Ning, J. P. Perdew, and J. Sun.,  J. Phys. Chem. Lett. 11, 8208-8215 (2020), doi: 10.1021/acs.jpclett.0c02405
    [ 1] J. W. Furness, A. D. Kaplan, J. Ning, J. P. Perdew, and J. Sun.,  J. Phys. Chem. Lett. 11, 9248-9248 (2020), doi: 10.1021/acs.jpclett.0c03077
  Functional external parameters        .... 1
    Parameter  0 _eta       =  1.000000e-03 : Regularization parameter
 Gradients option       PostSCFGGA      .... off
 RI-approximation to the Coulomb term is turned on
   Number of AuxJ basis functions       .... 346


General Settings:
 Integral files         IntName         .... sp
 Hartree-Fock type      HFTyp           .... RHF
 Total Charge           Charge          ....    0
 Multiplicity           Mult            ....    1
 Number of Electrons    NEL             ....   50
 Basis Dimension        Dim             ....  148
 Nuclear Repulsion      ENuc            ....    237.2211112275 Eh

Convergence Acceleration:
 AO-DIIS                CNVDIIS         .... on
   Start iteration      DIISMaxIt       ....    12
   Startup error        DIISStart       ....  0.200000
   # of expansion vecs  DIISMaxEq       ....     5
   Bias factor          DIISBfac        ....   1.050
   Max. coefficient     DIISMaxC        ....  10.000
 MO-DIIS                CNVKDIIS        .... off
 Trust-Rad. Augm. Hess. CNVTRAH         .... auto
   Auto Start mean grad. ratio tolernc. ....  1.125000
   Auto Start start iteration           ....     1
   Auto Start num. interpolation iter.  ....    10
   Max. Number of Micro iterations      ....    24
   Max. Number of Macro iterations      .... Maxiter - #DIIS iter
   Number of Davidson start vectors     ....     2
   Converg. threshold    (grad. norm)   ....   3.330e-04
   Grad. Scal. Fac. for Micro threshold ....   0.100
   Minimum threshold for Micro iter.    ....   1.000e-02
   NR start threshold (gradient norm)   ....   1.000e-04
   Initial trust radius                 ....   0.400
   Minimum AH scaling param. (alpha)    ....   1.000
   Maximum AH scaling param. (alpha)    .... 1000.000
   Quad. conv. algorithm                .... NR
   White noise on init. David. guess    .... on
   Maximum white noise                  ....   0.010
   Pseudo random numbers                .... off
   Inactive MOs                         .... canonical
   Orbital update algorithm             .... Taylor
   Preconditioner                       .... Diag
   Full preconditioner red. dimension   ....   250
   COSX micro iterations for RIJONX calc.... off
 SOSCF                  CNVSOSCF        .... on
   Start iteration      SOSCFMaxIt      ....   150
   Startup grad/error   SOSCFStart      ....  0.003300
   Hessian update       SOSCFHessUp     .... L-BFGS
 Level Shifting         CNVShift        .... on
   Level shift para.    LevelShift      ....    0.2500
   Turn off err/grad.   ShiftErr        ....    0.0010
 Zerner damping         CNVZerner       .... off
 Static damping         CNVDamp         .... on
   Fraction old density DampFac         ....    0.7000
   Max. Damping (<1)    DampMax         ....    0.9800
   Min. Damping (>=0)   DampMin         ....    0.0000
   Turn off err/grad.   DampErr         ....    0.1000

SCF Procedure:
 Maximum # iterations   MaxIter         ....   125
 SCF integral mode      SCFMode         .... Direct
   Integral package                     .... SHARK and LIBINT hybrid scheme
 Reset frequency        DirectResetFreq ....    20
 Integral Threshold     Thresh          ....  1.000e-10 Eh
 Primitive CutOff       TCut            ....  1.000e-11 Eh

Convergence Tolerance:
 Convergence Check Mode ConvCheckMode   .... Total+1el-Energy
 Convergence forced     ConvForced      .... 0
 Energy Change          TolE            ....  1.000e-06 Eh
 1-El. energy change                    ....  1.000e-03 Eh
 Orbital Gradient       TolG            ....  3.330e-04
 Orbital Rotation angle TolX            ....  3.330e-04
 DIIS Error             TolErr          ....  1.000e-06

---------------------
INITIAL GUESS: MOREAD
---------------------
Guess MOs are being read from file: sp.ges
Input Geometry matches current geometry (good)
Atom 0: N(Shells)= 9 and 6 - projection required
Input basis set needs projection
NBasis(read)= 92
NBasis(calc)= 148
Basis set overlap was calculated
Using GuessMode=FMatrix for the initial guess
C*T matrix was formed
Effective Fockian was calculated
Effective Fockian was diagonalized
Initial density was built
                      ------------------
                      INITIAL GUESS DONE (   0.0 sec)
                      ------------------
             **** ENERGY FILE WAS UPDATED (sp.en.tmp) ****
Finished Guess after   0.1 sec
Maximum memory used throughout the entire GUESS-calculation: 10.7 MB

-------------------------------------------------------------------------------------------
                                      ORCA LEAN-SCF
                              memory conserving SCF solver
-------------------------------------------------------------------------------------------

----------------------------------------D-I-I-S--------------------------------------------
Iteration    Energy (Eh)           Delta-E    RMSDP     MaxDP     DIISErr   Damp  Time(sec)
-------------------------------------------------------------------------------------------
               ***  Starting incremental Fock matrix formation  ***
    1    -617.8705507415235161     0.00e+00  3.73e-03  1.06e-01  5.37e-01  0.700   0.9
    2    -617.9026814839475037    -3.21e-02  3.08e-03  7.75e-02  3.76e-01  0.700   0.8
    3    -617.9254552483721454    -2.28e-02  2.28e-03  5.69e-02  2.63e-01  0.700   0.8
                               ***Turning on AO-DIIS***
    4    -617.9414541225733046    -1.60e-02  1.66e-03  4.10e-02  1.84e-01  0.700   0.8
    5    -617.9526801015252886    -1.12e-02  1.19e-03  2.90e-02  1.29e-01  0.700   0.8
    6    -617.9605532444996925    -7.87e-03  8.40e-04  2.04e-02  9.03e-02  0.700   0.8
    7    -617.9660723386077734    -5.52e-03  1.97e-03  4.78e-02  6.32e-02  0.000   0.8
                              *** Initializing SOSCF ***
---------------------------------------S-O-S-C-F--------------------------------------
Iteration    Energy (Eh)           Delta-E    RMSDP     MaxDP     MaxGrad    Time(sec)
--------------------------------------------------------------------------------------
    8    -617.9789759448261748    -1.29e-02  1.23e-05  1.86e-04  1.35e-04     0.8
               *** Restarting incremental Fock matrix formation ***
    9    -617.9789760384400097    -9.36e-08  7.61e-06  1.14e-04  3.11e-05     0.9
                  *** Gradient check signals convergence ***

               *****************************************************
               *                     SUCCESS                       *
               *           SCF CONVERGED AFTER   9 CYCLES          *
               *****************************************************

             **** ENERGY FILE WAS UPDATED (sp.en.tmp) ****

----------------
TOTAL SCF ENERGY
----------------

Total Energy       :       -617.97897603844001 Eh          -16816.06285 eV

Components:
Nuclear Repulsion  :        237.22111122748359 Eh            6455.11461 eV
Electronic Energy  :       -855.20008726592357 Eh          -23271.17746 eV
One Electron Energy:      -1317.56519776106711 Eh          -35852.77175 eV
Two Electron Energy:        462.36511049514354 Eh           12581.59429 eV

Virial components:
Potential Energy   :      -1234.16062666831976 Eh          -33583.21799 eV
Kinetic Energy     :        616.18165062987964 Eh           16767.15514 eV
Virial Ratio       :          2.00291687590295

DFT components:
N(Alpha)           :       25.000014094028 electrons
N(Beta)            :       25.000014094028 electrons
N(Total)           :       50.000028188057 electrons
E(X)               :      -51.570707142638 Eh       
E(C)               :       -1.674670970439 Eh       
E(XC)              :      -53.245378113077 Eh       

---------------
SCF CONVERGENCE
---------------

  Last Energy change         ...    9.3614e-08  Tolerance :   1.0000e-06
  Last MAX-Density change    ...    1.1411e-04  Tolerance :   1.0000e-05
  Last RMS-Density change    ...    7.6129e-06  Tolerance :   1.0000e-06
  Last DIIS Error            ...    1.3471e-04  Tolerance :   1.0000e-06
  Last Orbital Gradient      ...    3.1063e-05  Tolerance :   3.3300e-04
  Last Orbital Rotation      ...    5.6900e-05  Tolerance :   3.3300e-04


----------------
ORBITAL ENERGIES
----------------

  NO   OCC          E(Eh)            E(eV) 
   0   2.0000    -101.193497     -2753.6151 
   1   2.0000     -10.097108      -274.7563 
   2   2.0000     -10.040408      -273.2134 
   3   2.0000     -10.032896      -273.0090 
   4   2.0000     -10.021345      -272.6947 
   5   2.0000      -9.349955      -254.4252 
   6   2.0000      -7.095881      -193.0887 
   7   2.0000      -7.086156      -192.8241 
   8   2.0000      -7.086052      -192.8213 
   9   2.0000      -0.830450       -22.5977 
  10   2.0000      -0.736961       -20.0537 
  11   2.0000      -0.696089       -18.9415 
  12   2.0000      -0.620554       -16.8861 
  13   2.0000      -0.533311       -14.5121 
  14   2.0000      -0.453092       -12.3293 
  15   2.0000      -0.438514       -11.9326 
  16   2.0000      -0.410499       -11.1702 
  17   2.0000      -0.378524       -10.3002 
  18   2.0000      -0.363561        -9.8930 
  19   2.0000      -0.353143        -9.6095 
  20   2.0000      -0.323998        -8.8164 
  21   2.0000      -0.318654        -8.6710 
  22   2.0000      -0.312012        -8.4903 
  23   2.0000      -0.262204        -7.1349 
  24   2.0000      -0.260510        -7.0888 
  25   0.0000       0.013988         0.3806 
  26   0.0000       0.083302         2.2668 
  27   0.0000       0.110569         3.0087 
  28   0.0000       0.129995         3.5373 
  29   0.0000       0.131869         3.5883 
  30   0.0000       0.140637         3.8269 
  31   0.0000       0.149198         4.0599 
  32   0.0000       0.161544         4.3958 
  33   0.0000       0.172854         4.7036 
  34   0.0000       0.180757         4.9186 
  35   0.0000       0.195574         5.3219 
*Only the first 10 virtual orbitals were printed.

                    ********************************
                    * MULLIKEN POPULATION ANALYSIS *
                    ********************************

-----------------------
MULLIKEN ATOMIC CHARGES
-----------------------
   0 C :   -0.503652
   1 C :   -0.233335
   2 C :    0.046198
   3 H :    0.168820
   4 C :   -0.493805
   5 Cl:   -0.222370
   6 H :    0.171511
   7 H :    0.149329
   8 H :    0.148040
   9 H :    0.155740
  10 H :    0.139177
  11 H :    0.168619
  12 H :    0.145522
  13 H :    0.160206
Sum of atomic charges:    0.0000000

--------------------------------
MULLIKEN REDUCED ORBITAL CHARGES
--------------------------------
  0 C s       :     3.339535  s :     3.339535
      pz      :     0.963842  p :     3.137410
      px      :     1.090926
      py      :     1.082643
      dz2     :     0.005085  d :     0.026707
      dxz     :     0.004608
      dyz     :     0.008396
      dx2y2   :     0.005752
      dxy     :     0.002866

  1 C s       :     3.204221  s :     3.204221
      pz      :     0.980777  p :     2.992340
      px      :     0.909778
      py      :     1.101785
      dz2     :     0.006611  d :     0.036775
      dxz     :     0.007318
      dyz     :     0.009089
      dx2y2   :     0.008829
      dxy     :     0.004928

  2 C s       :     3.117024  s :     3.117024
      pz      :     1.047779  p :     2.785397
      px      :     0.951533
      py      :     0.786085
      dz2     :     0.010038  d :     0.051381
      dxz     :     0.008488
      dyz     :     0.009738
      dx2y2   :     0.012273
      dxy     :     0.010844

  3 H s       :     0.813678  s :     0.813678
      pz      :     0.009852  p :     0.017502
      px      :     0.004468
      py      :     0.003182

  4 C s       :     3.335964  s :     3.335964
      pz      :     1.015631  p :     3.131270
      px      :     1.111100
      py      :     1.004540
      dz2     :     0.007388  d :     0.026570
      dxz     :     0.002766
      dyz     :     0.005760
      dx2y2   :     0.006361
      dxy     :     0.004295

  5 Cls       :     5.959212  s :     5.959212
      pz      :     3.911288  p :    11.219211
      px      :     3.847535
      py      :     3.460387
      dz2     :     0.006189  d :     0.043947
      dxz     :     0.003154
      dyz     :     0.010170
      dx2y2   :     0.011947
      dxy     :     0.012488

  6 H s       :     0.809949  s :     0.809949
      pz      :     0.004882  p :     0.018540
      px      :     0.005235
      py      :     0.008423

  7 H s       :     0.832300  s :     0.832300
      pz      :     0.006794  p :     0.018370
      px      :     0.003779
      py      :     0.007797

  8 H s       :     0.833603  s :     0.833603
      pz      :     0.003813  p :     0.018358
      px      :     0.010411
      py      :     0.004134

  9 H s       :     0.826457  s :     0.826457
      pz      :     0.006785  p :     0.017802
      px      :     0.003499
      py      :     0.007518

 10 H s       :     0.842911  s :     0.842911
      pz      :     0.004560  p :     0.017912
      px      :     0.004601
      py      :     0.008751

 11 H s       :     0.813007  s :     0.813007
      pz      :     0.010095  p :     0.018374
      px      :     0.004288
      py      :     0.003992

 12 H s       :     0.836201  s :     0.836201
      pz      :     0.003920  p :     0.018278
      px      :     0.004984
      py      :     0.009374

 13 H s       :     0.821556  s :     0.821556
      pz      :     0.003580  p :     0.018237
      px      :     0.011051
      py      :     0.003606


------------------------
MULLIKEN OVERLAP CHARGES
------------------------
B(  0-C ,  1-C ) :   0.3674 B(  0-C ,  2-C ) :  -0.1710 B(  0-C ,  6-H ) :   0.8491 
B(  0-C ,  7-H ) :   0.8433 B(  0-C ,  8-H ) :   0.7875 B(  0-C ,  9-H ) :  -0.0607 
B(  0-C , 10-H ) :  -0.0656 B(  1-C ,  2-C ) :   0.5076 B(  1-C ,  3-H ) :  -0.1257 
B(  1-C ,  4-C ) :  -0.1748 B(  1-C ,  5-Cl) :  -0.1168 B(  1-C ,  6-H ) :  -0.1038 
B(  1-C ,  7-H ) :  -0.0818 B(  1-C ,  8-H ) :  -0.0641 B(  1-C ,  9-H ) :   0.8405 
B(  1-C , 10-H ) :   0.7968 B(  2-C ,  3-H ) :   0.8782 B(  2-C ,  4-C ) :   0.4804 
B(  2-C ,  5-Cl) :   0.4325 B(  2-C ,  9-H ) :  -0.0944 B(  2-C , 11-H ) :  -0.0723 
B(  2-C , 12-H ) :  -0.0716 B(  2-C , 13-H ) :  -0.0624 B(  3-H ,  4-C ) :  -0.0705 
B(  3-H ,  5-Cl) :  -0.0927 B(  4-C ,  5-Cl) :  -0.1131 B(  4-C , 11-H ) :   0.8464 
B(  4-C , 12-H ) :   0.7914 B(  4-C , 13-H ) :   0.7952 


                     *******************************
                     * LOEWDIN POPULATION ANALYSIS *
                     *******************************

----------------------
LOEWDIN ATOMIC CHARGES
----------------------
   0 C :   -0.430223
   1 C :   -0.326410
   2 C :   -0.262282
   3 H :    0.160619
   4 C :   -0.427210
   5 Cl:    0.017602
   6 H :    0.160499
   7 H :    0.150451
   8 H :    0.153619
   9 H :    0.162118
  10 H :    0.159690
  11 H :    0.161783
  12 H :    0.158907
  13 H :    0.160835

-------------------------------
LOEWDIN REDUCED ORBITAL CHARGES
-------------------------------
  0 C s       :     2.970384  s :     2.970384
      pz      :     1.097620  p :     3.397256
      px      :     1.141309
      py      :     1.158328
      dz2     :     0.011357  d :     0.062583
      dxz     :     0.010648
      dyz     :     0.019743
      dx2y2   :     0.014019
      dxy     :     0.006816

  1 C s       :     2.945185  s :     2.945185
      pz      :     1.102363  p :     3.301157
      px      :     1.052937
      py      :     1.145857
      dz2     :     0.013954  d :     0.080069
      dxz     :     0.015127
      dyz     :     0.020093
      dx2y2   :     0.020662
      dxy     :     0.010232

  2 C s       :     2.956578  s :     2.956578
      pz      :     1.121755  p :     3.198506
      px      :     1.090683
      py      :     0.986068
      dz2     :     0.021323  d :     0.107198
      dxz     :     0.016061
      dyz     :     0.021726
      dx2y2   :     0.026744
      dxy     :     0.021344

  3 H s       :     0.795217  s :     0.795217
      pz      :     0.025093  p :     0.044165
      px      :     0.011293
      py      :     0.007778

  4 C s       :     2.977691  s :     2.977691
      pz      :     1.122793  p :     3.386443
      px      :     1.156767
      py      :     1.106884
      dz2     :     0.017469  d :     0.063076
      dxz     :     0.006112
      dyz     :     0.013993
      dx2y2   :     0.015474
      dxy     :     0.010028

  5 Cls       :     5.684383  s :     5.684383
      pz      :     3.898216  p :    11.195069
      px      :     3.820032
      py      :     3.476820
      dz2     :     0.014290  d :     0.102947
      dxz     :     0.007426
      dyz     :     0.023930
      dx2y2   :     0.027959
      dxy     :     0.029342

  6 H s       :     0.794490  s :     0.794490
      pz      :     0.011429  p :     0.045010
      px      :     0.012352
      py      :     0.021228

  7 H s       :     0.805619  s :     0.805619
      pz      :     0.016253  p :     0.043930
      px      :     0.008399
      py      :     0.019277

  8 H s       :     0.802698  s :     0.802698
      pz      :     0.008728  p :     0.043682
      px      :     0.025683
      py      :     0.009272

  9 H s       :     0.794395  s :     0.794395
      pz      :     0.016693  p :     0.043487
      px      :     0.008238
      py      :     0.018556

 10 H s       :     0.796895  s :     0.796895
      pz      :     0.010829  p :     0.043415
      px      :     0.010950
      py      :     0.021635

 11 H s       :     0.793741  s :     0.793741
      pz      :     0.025586  p :     0.044476
      px      :     0.009804
      py      :     0.009085

 12 H s       :     0.797373  s :     0.797373
      pz      :     0.008990  p :     0.043720
      px      :     0.011662
      py      :     0.023067

 13 H s       :     0.795233  s :     0.795233
      pz      :     0.008072  p :     0.043932
      px      :     0.027891
      py      :     0.007969


---------------------------------
LOEWDIN BOND ORDERS (THRESH 0.050000)
---------------------------------
B(  0-C ,  1-C ) :   1.1375 B(  0-C ,  2-C ) :   0.0616 B(  0-C ,  6-H ) :   0.9229 
B(  0-C ,  7-H ) :   0.9278 B(  0-C ,  8-H ) :   0.9280 B(  1-C ,  2-C ) :   1.0995 
B(  1-C ,  4-C ) :   0.0650 B(  1-C ,  5-Cl) :   0.1161 B(  1-C ,  9-H ) :   0.8904 
B(  1-C , 10-H ) :   0.8818 B(  2-C ,  3-H ) :   0.8637 B(  2-C ,  4-C ) :   1.1271 
B(  2-C ,  5-Cl) :   1.3097 B(  4-C ,  5-Cl) :   0.1223 B(  4-C , 11-H ) :   0.9197 
B(  4-C , 12-H ) :   0.9127 B(  4-C , 13-H ) :   0.9233 

------------------------------------------
LOEWDIN REDUCED ORBITAL POPULATIONS PER MO
-------------------------------------------
THRESHOLD FOR PRINTING IS 0.1%%
                      0         1         2         3         4         5   
                 -101.19350 -10.09711 -10.04041 -10.03290 -10.02135  -9.34996
                   2.00000   2.00000   2.00000   2.00000   2.00000   2.00000
                  --------  --------  --------  --------  --------  --------
 0 C  s               0.0       0.0       0.0       0.0      99.7       0.0
 1 C  s               0.0       0.0      99.7       0.0       0.0       0.0
 2 C  s               0.0      99.7       0.0       0.0       0.0       0.0
 2 C  py              0.0       0.0       0.0       0.0       0.0       0.1
 4 C  s               0.0       0.0       0.0      99.7       0.0       0.0
 5 Cl s             100.0       0.0       0.0       0.0       0.0      99.8

                      6         7         8         9        10        11   
                  -7.09588  -7.08616  -7.08605  -0.83045  -0.73696  -0.69609
                   2.00000   2.00000   2.00000   2.00000   2.00000   2.00000
                  --------  --------  --------  --------  --------  --------
 0 C  s               0.0       0.0       0.0       2.1      15.7       9.8
 0 C  pz              0.0       0.0       0.0       0.7       1.4       0.3
 0 C  px              0.0       0.0       0.0       0.8       0.3       0.0
 0 C  py              0.0       0.0       0.0       0.0       0.3       0.1
 1 C  s               0.0       0.0       0.0       8.6      19.2       3.5
 1 C  pz              0.0       0.0       0.0       0.3       1.0       0.5
 1 C  px              0.0       0.0       0.0       3.2       0.7       2.5
 1 C  py              0.0       0.0       0.0       0.0       0.1       1.1
 2 C  s               0.0       0.0       0.0      25.5       0.9       3.9
 2 C  pz              0.0       0.0       0.0       0.9       0.1       1.1
 2 C  px              0.0       0.0       0.0       0.1       8.1       1.5
 2 C  py              0.0       0.0       0.0       2.5       4.7      10.2
 2 C  dyz             0.0       0.0       0.0       0.0       0.1       0.2
 2 C  dx2y2           0.0       0.0       0.0       0.0       0.2       0.0
 2 C  dxy             0.0       0.0       0.0       0.0       0.1       0.1
 3 H  s               0.0       0.0       0.0       2.9       0.1       0.9
 3 H  pz              0.0       0.0       0.0       0.2       0.0       0.1
 4 C  s               0.0       0.0       0.0       6.9       1.6      27.9
 4 C  pz              0.0       0.0       0.0       1.2       0.1       0.2
 4 C  px              0.0       0.0       0.0       0.2       0.5       0.0
 4 C  py              0.0       0.0       0.0       2.4       0.1       0.2
 5 Cl s               0.0       0.0       0.0      32.8      28.8       9.3
 5 Cl pz              7.4      40.7      51.9       0.2       0.0       0.0
 5 Cl px             17.2      56.8      26.0       0.5       0.2       0.0
 5 Cl py             75.4       2.5      22.1       1.9       0.3       0.8
 5 Cl dz2             0.0       0.0       0.0       0.1       0.0       0.0
 5 Cl dyz             0.0       0.0       0.0       0.1       0.0       0.0
 5 Cl dx2y2           0.0       0.0       0.0       0.2       0.0       0.1
 5 Cl dxy             0.0       0.0       0.0       0.3       0.0       0.0
 6 H  s               0.0       0.0       0.0       0.3       2.1       1.9
 6 H  py              0.0       0.0       0.0       0.0       0.1       0.1
 7 H  s               0.0       0.0       0.0       0.2       2.5       1.6
 7 H  pz              0.0       0.0       0.0       0.0       0.1       0.1
 7 H  py              0.0       0.0       0.0       0.0       0.1       0.1
 8 H  s               0.0       0.0       0.0       0.2       2.5       2.0
 8 H  px              0.0       0.0       0.0       0.0       0.2       0.2
 9 H  s               0.0       0.0       0.0       0.9       2.9       0.9
 9 H  pz              0.0       0.0       0.0       0.0       0.1       0.0
 9 H  py              0.0       0.0       0.0       0.0       0.1       0.0
10 H  s               0.0       0.0       0.0       0.9       3.3       0.6
10 H  py              0.0       0.0       0.0       0.0       0.2       0.0
11 H  s               0.0       0.0       0.0       0.7       0.3       5.1
11 H  pz              0.0       0.0       0.0       0.1       0.0       0.4
12 H  s               0.0       0.0       0.0       0.7       0.3       5.8
12 H  py              0.0       0.0       0.0       0.0       0.0       0.4
13 H  s               0.0       0.0       0.0       0.7       0.2       5.7
13 H  px              0.0       0.0       0.0       0.1       0.0       0.5

                     12        13        14        15        16        17   
                  -0.62055  -0.53331  -0.45309  -0.43851  -0.41050  -0.37852
                   2.00000   2.00000   2.00000   2.00000   2.00000   2.00000
                  --------  --------  --------  --------  --------  --------
 0 C  s              16.2       3.7       0.4       0.0       0.1       0.1
 0 C  pz              2.5       5.7       0.4       2.0       3.7       8.3
 0 C  px              0.6       0.5      10.0       0.0       2.2       0.6
 0 C  py              0.1       0.4       0.1      11.4       6.3      10.5
 0 C  dyz             0.0       0.0       0.0       0.0       0.0       0.2
 1 C  s               6.2       7.8       0.2       0.1       0.2       0.1
 1 C  pz              6.8       2.7       7.4       1.5       0.2       3.3
 1 C  px              4.4       3.7       6.6       0.1       9.6       0.9
 1 C  py              0.4       0.1       0.3      26.9       3.6       1.1
 1 C  dz2             0.1       0.0       0.0       0.0       0.0       0.0
 1 C  dx2y2           0.0       0.2       0.1       0.0       0.0       0.0
 1 C  dxy             0.0       0.0       0.0       0.0       0.0       0.1
 2 C  s               5.6      10.4       0.3       0.0       0.1       0.1
 2 C  pz              6.2       2.3      16.7       0.0       7.7       7.8
 2 C  px              3.4       3.7       8.7       1.4       6.9       0.1
 2 C  py              0.2       0.0       2.4       7.6       0.0       9.1
 2 C  dx2y2           0.1       0.0       0.0       0.0       0.0       0.0
 3 H  s               2.6       8.1       7.7       0.0       0.9       1.2
 3 H  pz              0.1       0.5       0.2       0.0       0.0       0.0
 3 H  px              0.1       0.0       0.0       0.0       0.1       0.0
 3 H  py              0.0       0.0       0.0       0.0       0.0       0.2
 4 C  s               7.6       3.3       0.1       0.4       0.1       0.2
 4 C  pz              1.8       4.6       4.1       3.0       0.2      24.3
 4 C  px              0.3       0.0       6.3       8.6       4.6       0.2
 4 C  py              0.5       3.6       5.0       0.1      18.8       0.7
 4 C  dxz             0.0       0.0       0.0       0.0       0.0       0.1
 4 C  dyz             0.0       0.2       0.0       0.0       0.1       0.2
 5 Cl s               2.9       5.6       0.8       2.7       0.7       0.3
 5 Cl pz              0.5       1.0       1.2       0.7       0.4       4.8
 5 Cl px              0.4       0.6       4.0       2.9       0.6       0.7
 5 Cl py              0.6       5.7       1.2       5.4      10.2       1.6
 5 Cl dz2             0.0       0.1       0.1       0.0       0.1       0.1
 5 Cl dyz             0.1       0.3       0.1       0.0       0.0       0.1
 5 Cl dx2y2           0.0       0.3       0.0       0.0       0.5       0.0
 5 Cl dxy             0.1       0.2       0.4       0.1       0.0       0.0
 6 H  s               4.8       2.4       0.2       1.3       5.1       1.2
 6 H  pz              0.0       0.0       0.0       0.1       0.0       0.1
 6 H  py              0.2       0.1       0.0       0.0       0.1       0.0
 7 H  s               5.2       2.1       0.0       4.1       0.0       9.4
 7 H  pz              0.1       0.0       0.0       0.1       0.0       0.0
 7 H  py              0.2       0.1       0.0       0.0       0.0       0.1
 8 H  s               4.9       1.6       4.1       0.2       0.4       0.1
 8 H  px              0.3       0.1       0.1       0.0       0.0       0.0
 9 H  s               2.2       4.6       1.2       8.1       0.2       0.0
 9 H  pz              0.0       0.1       0.0       0.2       0.0       0.0
 9 H  py              0.1       0.2       0.1       0.1       0.0       0.0
10 H  s               2.1       5.5       2.0       4.5       3.5       0.5
10 H  pz              0.0       0.0       0.0       0.1       0.1       0.0
10 H  py              0.1       0.3       0.1       0.0       0.1       0.0
11 H  s               3.0       2.6       2.5       0.7       0.1       9.7
11 H  pz              0.2       0.1       0.1       0.0       0.0       0.1
11 H  py              0.0       0.1       0.0       0.0       0.1       0.1
12 H  s               2.1       2.6       1.0       0.8      10.5       0.2
12 H  pz              0.0       0.0       0.0       0.0       0.0       0.2
12 H  py              0.1       0.1       0.0       0.0       0.2       0.0
13 H  s               2.6       1.4       3.1       3.8       0.7       0.2
13 H  pz              0.0       0.0       0.0       0.0       0.0       0.2
13 H  px              0.2       0.1       0.1       0.1       0.0       0.0
13 H  py              0.0       0.0       0.0       0.0       0.2       0.0

                     18        19        20        21        22        23   
                  -0.36356  -0.35314  -0.32400  -0.31865  -0.31201  -0.26220
                   2.00000   2.00000   2.00000   2.00000   2.00000   2.00000
                  --------  --------  --------  --------  --------  --------
 0 C  s               0.1       0.2       0.3       0.1       0.1       0.1
 0 C  pz              2.5       6.4       7.6       6.7       5.5       0.0
 0 C  px             23.7       0.2      10.7       6.9       0.1       0.3
 0 C  py              1.4       9.6       0.7       3.7      12.3       0.2
 0 C  dz2             0.0       0.1       0.2       0.0       0.1       0.0
 0 C  dxz             0.1       0.1       0.1       0.1       0.0       0.0
 0 C  dyz             0.0       0.0       0.0       0.1       0.7       0.0
 0 C  dx2y2           0.2       0.0       0.0       0.3       0.0       0.0
 0 C  dxy             0.0       0.0       0.0       0.1       0.0       0.0
 1 C  s               0.5       0.1       0.0       0.2       0.0       0.7
 1 C  pz              2.0       9.4       6.5       7.0       6.2       0.1
 1 C  px              0.4       0.9       6.3       7.3       0.0       5.2
 1 C  py              0.4       0.7       4.0       1.9      16.3       0.2
 1 C  dz2             0.1       0.0       0.2       0.0       0.1       0.0
 1 C  dxz             0.0       0.1       0.2       0.1       0.0       0.0
 1 C  dyz             0.0       0.0       0.0       0.0       0.8       0.0
 1 C  dx2y2           0.0       0.0       0.0       0.5       0.0       0.1
 1 C  dxy             0.0       0.0       0.1       0.1       0.0       0.0
 2 C  s               0.3       0.1       0.1       0.6       0.0       0.0
 2 C  pz              0.8       0.3       4.5       0.9       2.4       0.2
 2 C  px              0.2       0.4       6.4       8.7       0.4       3.6
 2 C  py              0.0       6.8       1.9       0.5       1.9       0.9
 2 C  dz2             0.0       0.3       0.3       0.0       0.0       0.1
 2 C  dxz             0.0       0.1       0.4       0.0       0.1       0.0
 2 C  dyz             0.0       0.0       0.0       0.0       0.1       0.0
 2 C  dx2y2           0.1       0.1       0.0       0.2       0.0       0.5
 2 C  dxy             0.1       0.0       0.0       0.3       0.2       0.1
 3 H  s               0.1       0.7       7.7       0.2       0.6       0.4
 3 H  px              0.0       0.0       0.0       0.1       0.0       0.0
 4 C  s               0.1       0.0       0.0       0.0       0.1       0.4
 4 C  pz              1.2       4.0       3.6       0.7       5.8       0.4
 4 C  px             25.7       0.1       5.5       4.8       0.9       0.2
 4 C  py              0.1      16.6       1.1       0.9       1.1       2.3
 4 C  dz2             0.1       0.3       0.3       0.0       0.0       0.1
 4 C  dx2y2           0.3       0.0       0.0       0.2       0.0       0.0
 4 C  dxy             0.0       0.1       0.0       0.1       0.0       0.0
 5 Cl s               0.0       0.4       0.0       0.2       0.0       0.0
 5 Cl pz              0.2       6.2       2.5       0.0       1.8       5.5
 5 Cl px              0.3       3.9       9.9       0.0       0.7      57.0
 5 Cl py              0.9       7.8       1.2      16.0       0.5      18.7
 5 Cl dyz             0.0       0.1       0.1       0.0       0.1       0.0
 5 Cl dxy             0.0       0.1       0.1       0.1       0.0       0.0
 6 H  s               1.9       5.9       0.1       8.8       3.2       0.1
 6 H  pz              0.0       0.0       0.1       0.0       0.1       0.0
 6 H  py              0.2       0.0       0.0       0.1       0.0       0.0
 7 H  s               2.1       0.3       0.1       0.0      12.4       0.0
 7 H  pz              0.0       0.1       0.0       0.1       0.0       0.0
 7 H  px              0.1       0.0       0.1       0.1       0.0       0.0
 8 H  s              13.5       0.1       4.1       5.1       0.9       0.3
 8 H  pz              0.0       0.1       0.2       0.0       0.0       0.0
 8 H  px              0.2       0.0       0.0       0.0       0.0       0.0
 9 H  s               0.4       0.7       0.1       0.9      16.5       0.0
10 H  s               0.1       1.0       2.1       7.6       5.2       0.9
10 H  pz              0.0       0.1       0.0       0.0       0.1       0.0
10 H  px              0.0       0.1       0.1       0.0       0.0       0.1
11 H  s               3.1       5.0       5.3       0.1       1.1       0.2
11 H  pz              0.1       0.1       0.1       0.0       0.0       0.0
12 H  s               1.9       9.3       0.2       3.2       0.0       0.7
12 H  py              0.1       0.1       0.0       0.0       0.0       0.0
13 H  s              13.4       0.0       4.0       3.2       0.5       0.1
13 H  px              0.2       0.0       0.1       0.0       0.0       0.0
13 H  py              0.0       0.1       0.0       0.0       0.0       0.0

                     24        25        26        27        28        29   
                  -0.26051   0.01399   0.08330   0.11057   0.12999   0.13187
                   2.00000   0.00000   0.00000   0.00000   0.00000   0.00000
                  --------  --------  --------  --------  --------  --------
 0 C  s               0.0       0.0      13.8      10.3       6.3       1.9
 0 C  pz              1.0       0.3       0.3       7.1       1.1       3.7
 0 C  px              0.1       0.2       0.5       2.5       8.5       3.5
 0 C  py              0.8       0.1       0.1       1.6       0.1       0.7
 0 C  dz2             0.0       0.0       0.3       0.3       0.1       0.1
 0 C  dxz             0.0       0.0       0.1       0.2       0.0       0.8
 0 C  dx2y2           0.0       0.0       0.1       0.1       0.6       0.0
 1 C  s               0.1       0.1       8.9       5.5       1.1       9.3
 1 C  pz              0.2       0.0       2.3      10.3       4.9       8.9
 1 C  px              0.8       0.9       1.6       1.3       0.8      17.6
 1 C  py              0.1       0.2       0.5       1.1       0.5       1.0
 1 C  dz2             0.0       0.0       0.0       0.7       0.2       0.0
 1 C  dxz             0.1       0.1       0.4       0.2       0.1       0.2
 1 C  dyz             0.0       0.0       0.1       0.1       0.2       0.0
 1 C  dx2y2           0.0       0.1       0.3       0.0       0.3       1.0
 1 C  dxy             0.0       0.6       0.1       0.1       0.1       0.3
 2 C  s               0.1       8.8       6.2       4.7       1.7       6.9
 2 C  pz              4.1       2.7       4.2       4.6       4.5       1.6
 2 C  px              0.6       4.9       2.3       1.6       0.5       8.3
 2 C  py              0.2      21.9       1.6       4.0       5.0       1.1
 2 C  dz2             0.2       0.2       0.2       1.0       0.1       0.2
 2 C  dxz             0.0       0.0       0.6       0.0       0.1       0.1
 2 C  dyz             0.5       0.2       0.0       0.2       1.0       0.1
 2 C  dx2y2           0.0       0.3       0.1       0.1       0.0       0.6
 2 C  dxy             0.0       0.4       0.1       0.0       0.0       0.3
 3 H  s               5.5       0.1       3.8       2.0       1.8       0.2
 3 H  pz              0.0       0.2       1.2       2.0       0.2       0.1
 3 H  px              0.0       0.1       0.5       0.0       0.0       0.9
 3 H  py              0.0       0.9       0.0       0.1       0.8       0.0
 4 C  s               0.5       0.3      14.5       5.9       9.7       1.2
 4 C  pz              0.9       0.4       0.6       6.9       0.5       2.7
 4 C  px              0.0       0.2       0.8       0.1       9.7       0.1
 4 C  py              1.8       0.8       1.4       6.5       9.0       3.8
 4 C  dz2             0.0       0.3       0.3       0.6       0.2       0.0
 4 C  dxz             0.0       0.0       0.1       0.0       0.0       0.2
 4 C  dyz             0.0       0.1       0.2       0.5       0.0       0.5
 4 C  dx2y2           0.0       0.6       0.1       0.0       0.6       0.0
 4 C  dxy             0.0       0.0       0.0       0.1       0.3       0.9
 5 Cl s               0.0       4.4       1.5       0.3       0.3       0.6
 5 Cl pz             69.9       2.0       0.0       0.2       0.6       0.1
 5 Cl px              9.4       4.6       0.2       0.2       0.2       0.6
 5 Cl py              1.1      20.2       0.4       0.0       0.3       0.5
 5 Cl dz2             0.0       2.5       0.0       0.5       0.3       0.0
 5 Cl dxz             0.0       0.4       0.2       0.1       1.0       0.2
 5 Cl dyz             0.1       3.1       0.3       0.5       1.2       0.0
 5 Cl dx2y2           0.0       4.4       0.3       0.1       0.5       0.2
 5 Cl dxy             0.0       6.8       0.1       0.3       2.0       2.3
 6 H  s               0.3       0.1       0.9       0.3       3.1       1.0
 6 H  pz              0.0       0.0       0.0       0.1       0.0       0.0
 6 H  px              0.1       0.0       0.2       0.0       0.0       0.4
 6 H  py              0.0       0.0       0.3       0.6       1.5       0.0
 7 H  s               0.0       0.1       2.1       3.7       1.9       0.0
 7 H  pz              0.0       0.0       0.1       1.3       0.0       0.0
 7 H  px              0.0       0.0       0.2       0.0       0.1       0.1
 7 H  py              0.0       0.0       0.8       0.8       1.1       0.1
 8 H  s               0.0       0.0       3.1       0.3       0.9       1.7
 8 H  pz              0.0       0.0       0.2       0.0       0.0       0.9
 8 H  px              0.0       0.0       0.9       0.2       0.2       0.5
 8 H  py              0.0       0.0       0.1       0.1       0.0       0.0
 9 H  s               0.1       0.5       2.5       0.1       1.4       0.8
 9 H  pz              0.0       0.0       0.2       0.8       0.0       0.9
 9 H  px              0.0       0.0       0.0       0.2       0.1       1.2
 9 H  py              0.0       0.1       0.8       0.0       0.7       0.2
10 H  s               0.1       1.3       3.2       0.3       0.4       0.7
10 H  pz              0.0       0.0       0.0       0.5       0.5       0.2
10 H  px              0.0       0.3       0.2       0.0       0.0       0.6
10 H  py              0.0       0.0       1.4       0.3       0.3       0.0
11 H  s               0.2       0.7       1.5       2.2       5.3       0.3
11 H  pz              0.0       0.1       0.3       1.7       1.4       0.0
11 H  px              0.0       0.0       0.4       0.1       0.0       0.0
11 H  py              0.0       0.0       0.3       0.2       0.2       0.1
12 H  s               0.4       1.2       2.6       0.9       0.5       4.1
12 H  pz              0.0       0.1       0.2       0.1       0.2       0.3
12 H  px              0.0       0.0       0.5       0.0       0.2       0.5
12 H  py              0.0       0.1       0.6       0.1       1.2       0.4
13 H  s               0.2       0.3       3.6       0.3       0.9       0.4
13 H  pz              0.0       0.0       0.2       0.0       0.0       0.2
13 H  px              0.0       0.1       1.2       0.2       0.3       0.1
13 H  py              0.0       0.0       0.0       0.2       0.5       0.7

                     30        31        32        33        34        35   
                   0.14064   0.14920   0.16154   0.17285   0.18076   0.19557
                   0.00000   0.00000   0.00000   0.00000   0.00000   0.00000
                  --------  --------  --------  --------  --------  --------
 0 C  s               3.7       1.6       0.3       0.2       0.8       0.2
 0 C  pz             15.5       4.4       3.9       0.2       3.5      13.9
 0 C  px              0.1       0.5      11.2       5.2      12.3       0.3
 0 C  py              4.7       3.6       2.1       6.9       2.9      11.1
 0 C  dz2             0.2       0.1       0.1       0.6       0.1       1.2
 0 C  dxz             0.0       0.0       1.2       0.0       0.2       0.5
 0 C  dyz             1.4       0.5       0.2       0.0       1.0       0.3
 0 C  dx2y2           0.6       0.1       0.3       0.9       0.0       0.1
 0 C  dxy             0.0       0.1       0.2       0.5       0.8       1.0
 1 C  s               4.5       0.6       1.1       0.2       0.1       0.5
 1 C  pz              0.3       1.3       3.8       3.3       0.8       9.2
 1 C  px              4.5       1.7       0.7       5.8       0.5       3.8
 1 C  py              2.9       9.5       1.7       6.2       5.3       0.9
 1 C  dz2             0.0       0.1       0.0       1.3       0.1       0.0
 1 C  dxz             0.3       0.1       0.9       0.1       0.1       0.0
 1 C  dyz             0.4       1.9       0.1       0.1       0.0       0.0
 1 C  dx2y2           0.4       0.1       0.9       0.5       0.1       0.0
 1 C  dxy             0.0       0.3       0.0       0.0       0.0       0.2
 2 C  s               2.2       0.3       0.8       0.3       0.5       0.1
 2 C  pz              1.3       2.5       4.9       1.5       0.2       4.1
 2 C  px              3.5       1.8       0.3       6.3       4.3       5.6
 2 C  py              3.2       2.3       5.6       0.5       1.4       0.6
 2 C  dz2             0.2       0.1       0.0       0.5       0.3       0.2
 2 C  dxz             0.6       0.3       0.5       0.3       0.2       0.0
 2 C  dyz             0.0       0.0       0.8       0.0       0.0       0.0
 2 C  dx2y2           0.0       0.4       0.2       1.0       0.1       0.4
 2 C  dxy             0.0       0.8       0.0       0.0       0.0       0.2
 3 H  s               4.6       0.8       5.1       1.9       0.1       0.1
 3 H  pz              1.0       0.0       0.7       0.7       0.0       0.4
 3 H  px              0.4       0.3       0.8       0.0       0.5       0.5
 3 H  py              0.0       0.0       0.9       0.0       0.0       0.1
 4 C  s               2.2       1.5       5.0       0.1       0.6       0.6
 4 C  pz              2.4      10.2      11.5       1.4       2.4       7.1
 4 C  px              3.1       4.6       1.2      11.1       6.0       1.6
 4 C  py              8.0       3.4       4.7       0.8       5.9       3.9
 4 C  dz2             0.0       0.8       0.0       0.4       0.1       0.2
 4 C  dxz             0.1       0.4       0.0       0.1       1.0       0.3
 4 C  dyz             0.2       1.3       0.3       0.0       0.0       0.0
 4 C  dx2y2           0.0       0.0       0.1       1.2       1.2       0.0
 4 C  dxy             0.2       0.0       0.1       0.6       0.4       0.1
 5 Cl s               0.8       0.2       1.8       0.3       0.4       0.1
 5 Cl pz              0.1       0.8       1.8       0.1       1.0       0.1
 5 Cl px              0.1       0.7       0.5       0.1       0.4       0.8
 5 Cl py              0.1       0.3       0.5       0.3       0.6       0.0
 5 Cl dz2             1.2       0.1       2.5       0.0       0.3       1.0
 5 Cl dxz             1.1       0.0       0.4       0.1       0.1       4.1
 5 Cl dyz             0.0       0.0       0.0       0.2       3.0       0.3
 5 Cl dx2y2           0.3       0.8       0.0       1.6       0.0       0.8
 5 Cl dxy             0.2       1.5       0.1       1.0       0.0       0.9
 6 H  s               1.7       0.2       4.4       0.7       5.3       7.7
 6 H  pz              1.8       0.0       0.1       0.0       0.7       0.0
 6 H  px              0.3       0.1       0.4       0.2       0.1       1.5
 6 H  py              0.1       0.0       0.4       0.1       0.4       0.3
 7 H  s               4.7       1.5       0.1       1.4       3.5       3.3
 7 H  pz              0.0       0.8       0.2       0.2       0.2       1.6
 7 H  px              0.0       0.0       0.1       0.4       1.0       0.1
 7 H  py              0.7       0.3       0.1       0.3       0.1       0.0
 8 H  s               2.5       0.7       0.5       8.4       2.1       1.6
 8 H  pz              0.0       0.2       0.4       0.0       0.2       0.1
 8 H  px              0.8       0.1       0.5       1.9       0.0       0.8
 8 H  py              0.1       0.0       0.2       0.2       0.7       0.9
 9 H  s               0.1       8.8       0.1       1.9       0.2       1.6
 9 H  pz              0.0       1.1       0.2       0.9       0.1       0.1
 9 H  px              0.1       0.1       0.0       0.1       0.0       0.2
 9 H  py              0.2       0.7       0.1       0.2       0.0       0.3
10 H  s               3.3       3.4       2.6       0.5       1.1       0.0
10 H  pz              0.4       0.8       0.1       0.0       0.0       0.0
10 H  px              0.0       0.4       0.0       0.8       0.3       0.0
10 H  py              1.9       0.4       0.5       0.0       0.2       0.0
11 H  s               0.3       8.6       2.2       2.1       2.0       1.1
11 H  pz              0.0       0.8       0.8       0.8       0.2       0.0
11 H  px              0.1       0.2       0.1       0.1       2.0       0.0
11 H  py              0.1       0.7       0.6       0.2       0.2       0.0
12 H  s               2.3       0.2       2.2       2.5      11.8       0.5
12 H  pz              0.0       0.9       0.2       0.1       0.2       0.0
12 H  px              0.7       0.3       0.2       0.1       0.2       0.1
12 H  py              0.8       0.1       0.0       0.7       2.4       0.0
13 H  s               0.1       3.8       1.5       8.3       3.4       0.4
13 H  pz              0.1       0.6       0.0       0.0       0.9       0.3
13 H  px              0.0       1.2       0.7       2.3       0.3       0.0
13 H  py              0.1       0.0       0.1       0.2       0.3       0.1

                     36        37        38        39        40        41   
                   0.19898   0.20423   0.21041   0.22573   0.23999   0.24348
                   0.00000   0.00000   0.00000   0.00000   0.00000   0.00000
                  --------  --------  --------  --------  --------  --------
 0 C  s               0.8       0.1       1.3       0.7       3.1       0.9
 0 C  pz              6.0       2.0       1.5       7.2      10.0       2.5
 0 C  px              4.4       8.9       0.7       1.5       1.3       9.9
 0 C  py              2.8      24.5       3.5      11.0      11.9       1.5
 0 C  dz2             0.0       0.1       0.0       0.0       0.1       0.2
 0 C  dxz             0.0       0.0       0.4       0.1       0.0       0.0
 0 C  dyz             0.0       0.0       0.0       2.2       0.0       0.1
 0 C  dx2y2           0.4       1.5       0.2       0.0       0.0       0.1
 0 C  dxy             0.5       0.1       0.2       0.0       0.0       0.0
 1 C  s               0.3       1.8       2.9       0.2       0.5       2.7
 1 C  pz              2.6       1.2       4.4       4.8       7.3       5.3
 1 C  px              2.9       0.2       1.9       0.0       9.9      11.5
 1 C  py              0.5       3.2       2.7       2.0       7.1      10.1
 1 C  dz2             0.0       0.7       0.1       0.1       1.4       0.0
 1 C  dxz             0.2       0.0       0.1       0.0       1.1       0.1
 1 C  dyz             0.1       0.1       0.2       1.6       0.3       0.0
 1 C  dx2y2           0.1       0.0       0.7       0.0       0.1       0.2
 1 C  dxy             0.0       0.0       0.8       0.0       0.0       0.1
 2 C  s               0.7       0.4       1.0       1.3       0.2       0.5
 2 C  pz             13.7       0.4       0.4       0.6       0.3       1.6
 2 C  px              2.1       0.6       1.8       1.3       4.8       6.8
 2 C  py              1.9       2.9       3.5       0.4       0.5       2.0
 2 C  dz2             0.0       0.1       0.6       0.2       0.0       0.4
 2 C  dxz             0.1       0.0       0.1       0.0       0.3       0.1
 2 C  dyz             0.0       0.2       0.1       0.1       0.1       0.2
 2 C  dx2y2           0.2       0.1       0.0       0.0       0.0       0.8
 2 C  dxy             0.1       0.0       0.3       0.0       0.1       0.0
 3 H  s               3.4       0.4       0.8       1.5       2.1       0.4
 3 H  pz              1.2       0.0       0.3       0.2       0.2       0.4
 3 H  px              0.2       0.0       0.1       0.0       0.3       0.2
 3 H  py              0.0       0.2       0.0       0.0       0.0       0.0
 4 C  s               2.2       0.0       0.2       0.1       0.2       2.6
 4 C  pz              7.2       9.5      11.7       6.9       0.0       1.6
 4 C  px              9.9       3.4       9.7       4.3       9.0       4.7
 4 C  py              4.5       0.2       6.6       6.9       1.7       6.4
 4 C  dz2             0.0       0.9       1.0       0.3       0.0       0.1
 4 C  dxz             0.0       0.0       0.0       0.5       0.0       0.0
 4 C  dyz             0.9       0.3       0.3       0.0       0.2       0.1
 4 C  dx2y2           0.5       0.3       0.0       0.3       0.3       0.1
 4 C  dxy             0.0       0.1       0.1       0.2       0.2       0.4
 5 Cl s               0.1       0.3       1.5       1.7       0.1       0.1
 5 Cl pz              0.2       0.2       0.3       0.4       0.7       0.3
 5 Cl px              0.5       0.7       0.1       1.4       0.3       0.5
 5 Cl py              0.4       2.3       0.7       0.5       0.5       0.5
 5 Cl dz2             0.0       1.1       0.0       0.5       0.7       0.8
 5 Cl dxz             2.6       0.1       1.6       0.8       0.1       4.6
 5 Cl dyz             0.0       0.0       0.1       2.6       1.7       0.7
 5 Cl dx2y2           0.1       0.5       1.9       0.1       0.4       1.1
 5 Cl dxy             0.1       0.2       0.7       0.7       0.1       3.4
 6 H  s               4.6       2.3       0.3       1.2       2.7       0.7
 6 H  pz              0.0       0.0       0.0       0.5       0.0       0.7
 6 H  px              0.2       0.0       0.0       0.1       0.2       0.0
 6 H  py              1.0       2.1       0.3       0.0       0.9       0.0
 7 H  s               2.2       1.5       2.2       6.7       0.0       1.1
 7 H  pz              0.1       0.1       0.1       0.3       0.3       0.0
 7 H  px              0.2       0.3       0.3       0.0       0.0       0.0
 7 H  py              1.0       0.0       0.5       0.1       0.0       0.3
 8 H  s               2.1       7.9       0.6       1.1       0.6       1.4
 8 H  pz              0.0       0.0       0.4       0.4       0.0       0.0
 8 H  px              0.9       1.9       0.0       0.3       0.2       0.7
 8 H  py              0.3       0.0       0.4       0.5       0.0       0.0
 9 H  s               1.2       1.3       0.6      10.6       1.3       0.0
 9 H  pz              0.0       0.0       0.0       2.1       0.0       0.0
 9 H  px              0.3       0.2       0.4       0.0       0.7       0.4
 9 H  py              0.2       1.3       1.0       0.9       0.8       0.2
10 H  s               0.4       1.0      12.6       1.1       0.4       2.6
10 H  pz              0.1       0.0       0.1       0.7       0.9       0.4
10 H  px              0.1       0.0       0.6       0.0       0.5       0.2
10 H  py              0.2       0.3       2.3       0.0       0.1       0.3
11 H  s               0.6       3.7       1.2       3.5       0.2       0.8
11 H  pz              0.0       0.2       1.1       0.3       0.1       0.0
11 H  px              0.0       0.2       0.0       0.4       0.1       0.0
11 H  py              0.5       0.0       0.2       0.0       0.2       0.1
12 H  s               0.6       0.1       3.8       2.3       3.9       1.0
12 H  pz              0.6       0.5       0.2       0.1       0.1       0.2
12 H  px              0.3       0.5       0.7       0.0       0.0       0.7
[...]
13 H  py              0.6       0.1       0.1       0.0       0.5       0.1

                    138       139       140       141       142       143   
                   3.54663   3.55579   3.58726   3.60893   3.62908  21.86898
                   0.00000   0.00000   0.00000   0.00000   0.00000   0.00000
                  --------  --------  --------  --------  --------  --------
 0 C  s               0.4       0.1       0.5       0.2       0.1       6.9
 0 C  pz              0.7       0.6       6.0       0.1       0.1       0.0
 0 C  px              0.1       0.8       1.5       1.6       3.1       0.0
 0 C  py              0.5       6.1       0.2       1.3       1.9       0.0
 0 C  dz2             0.8       0.1       0.0       1.5       0.0       0.0
 0 C  dxz             0.8       0.1       0.5       0.7       0.0       0.0
 0 C  dyz             0.0      10.1       1.7       1.6       6.0       0.0
 0 C  dx2y2           0.0       0.1      10.7       1.7       1.5       0.0
 0 C  dxy             0.1       1.0       2.6       0.0       4.2       0.0
 1 C  s               0.4       0.0       1.6       0.1       0.0      19.3
 1 C  pz              1.2       0.0       3.4       0.1       0.2       0.0
 1 C  px              0.2       0.1       0.2       1.3       0.5       0.0
 1 C  py              0.4       4.0       0.1       3.0       4.9       0.0
 1 C  dz2             0.0       1.3       0.5       3.1       0.4       0.0
 1 C  dxz             0.7       0.5       1.3       0.3       0.0       0.0
 1 C  dyz             2.4       3.0       0.8       2.8       9.5       0.0
 1 C  dx2y2           0.1       0.0       5.0       1.6       0.4       0.0
 1 C  dxy             0.2       0.9       0.7       0.6       3.8       0.0
 2 C  s               0.1       0.1       0.3       0.8       0.3      53.5
 2 C  pz              1.4       0.3       1.2       3.2       1.7       0.0
 2 C  px              0.0       0.1       0.4       2.1       0.4       0.0
 2 C  py              0.1       0.0       0.4       0.1       0.0       0.0
 2 C  dz2             0.3       0.4       0.1       6.2       0.9       0.0
 2 C  dxz             1.1       0.0       1.1       4.3       1.1       0.0
 2 C  dyz             0.3       0.0       1.5       1.2       1.9       0.0
 2 C  dx2y2           0.7       0.1       1.8       0.3       0.0       0.0
 3 H  s               0.8       0.3       0.7       4.6       1.5       0.0
 3 H  pz              1.4       0.4       1.5      10.2       3.2       0.0
 3 H  px              0.1       0.2       0.7       1.6       0.7       0.0
 3 H  py              0.6       0.2       0.3       0.7       0.1       0.0
 4 C  s               0.3       0.1       0.4       0.1       0.3      19.5
 4 C  pz              0.2       1.1       2.7       2.2       0.8       0.0
 4 C  px             10.5       1.0       0.4       0.3       0.3       0.0
 4 C  py              0.2       2.1       0.1       0.1       0.1       0.0
 4 C  dz2             6.7       2.0       0.6       3.3       0.5       0.0
 4 C  dxz             0.1       0.5       1.3       1.3       0.5       0.0
 4 C  dyz             0.1       0.0       1.5       1.2       0.8       0.0
 4 C  dx2y2          14.1       2.9       1.1       0.0       0.4       0.0
 4 C  dxy             1.4       2.7       0.2       0.2       0.0       0.0
 5 Cl s               0.1       0.0       0.0       0.1       0.0       0.4
 5 Cl px              0.1       0.1       0.0       0.3       0.0       0.0
 5 Cl py              0.2       0.0       0.0       0.3       0.0       0.0
 6 H  s               0.4       3.2       1.1       0.1       4.1       0.0
 6 H  pz              0.1       1.8       0.1       0.1       2.2       0.0
 6 H  px              0.5       1.7       0.5       0.2       0.8       0.0
 6 H  py              0.8       4.5       2.9       0.1       7.4       0.0
 7 H  s               0.0       4.2       3.1       1.5       0.7       0.0
 7 H  pz              0.0       4.9       2.6       1.9       1.1       0.0
 7 H  px              0.0       0.2       0.0       0.3       0.1       0.0
 7 H  py              0.2       5.2       5.6       1.9       0.6       0.0
 8 H  s               0.1       0.0       3.1       1.5       1.6       0.0
 8 H  pz              0.1       0.1       0.0       0.1       0.1       0.0
 8 H  px              0.4       0.0       7.0       3.2       3.1       0.0
 8 H  py              0.0       0.8       0.3       0.3       0.2       0.0
 9 H  s               1.1       1.6       1.1       2.3       3.2       0.0
 9 H  pz              1.1       1.9       1.6       3.1       4.1       0.0
 9 H  px              0.1       0.4       0.2       0.0       0.3       0.0
 9 H  py              1.8       1.2       2.3       2.5       3.0       0.0
10 H  s               0.1       2.2       1.1       0.9       3.9       0.0
10 H  pz              0.1       1.1       0.4       0.7       2.0       0.0
10 H  px              0.0       1.6       0.7       0.6       1.3       0.0
10 H  py              0.0       2.7       2.5       0.9       6.3       0.0
11 H  s               1.8       1.1       1.3       2.6       0.4       0.0
11 H  pz              3.5       1.9       3.1       6.6       0.7       0.0
11 H  px              0.0       0.6       0.6       0.3       0.3       0.0
11 H  py              0.5       0.0       0.3       0.1       0.0       0.0
12 H  s               1.0       3.2       0.5       0.2       0.1       0.0
12 H  pz              0.3       0.5       0.0       0.0       0.0       0.0
12 H  px              0.0       1.3       0.0       0.1       0.0       0.0
12 H  py              2.2       6.0       1.0       0.3       0.2       0.0
13 H  s               9.6       0.6       0.2       0.3       0.1       0.0
13 H  pz              0.0       0.1       0.1       0.1       0.0       0.0
13 H  px             23.9       1.6       0.7       0.7       0.1       0.0
13 H  py              0.2       0.3       0.0       0.1       0.0       0.0

                    144       145       146       147   
                  21.95093  21.95560  22.02957  25.29284
                   0.00000   0.00000   0.00000   0.00000
                  --------  --------  --------  --------
 0 C  s              32.2      57.7       2.8       0.1
 1 C  s               1.1       6.9      72.4       0.0
 2 C  s               9.7      14.9      21.1       0.9
 4 C  s              56.7      20.2       3.3       0.0
 5 Cl s               0.0       0.0       0.1      98.7


                      *****************************
                      * MAYER POPULATION ANALYSIS *
                      *****************************

  NA   - Mulliken gross atomic population
  ZA   - Total nuclear charge
  QA   - Mulliken gross atomic charge
  VA   - Mayer's total valence
  BVA  - Mayer's bonded valence
  FA   - Mayer's free valence

  ATOM       NA         ZA         QA         VA         BVA        FA
  0 C      6.5037     6.0000    -0.5037     3.8129     3.8129    -0.0000
  1 C      6.2333     6.0000    -0.2333     3.6268     3.6268     0.0000
  2 C      5.9538     6.0000     0.0462     3.6265     3.6265    -0.0000
  3 H      0.8312     1.0000     0.1688     0.9445     0.9445    -0.0000
  4 C      6.4938     6.0000    -0.4938     3.8307     3.8307     0.0000
  5 Cl    17.2224    17.0000    -0.2224     1.0139     1.0139     0.0000
  6 H      0.8285     1.0000     0.1715     0.9590     0.9590    -0.0000
  7 H      0.8507     1.0000     0.1493     0.9617     0.9617    -0.0000
  8 H      0.8520     1.0000     0.1480     0.9617     0.9617    -0.0000
  9 H      0.8443     1.0000     0.1557     0.9597     0.9597     0.0000
 10 H      0.8608     1.0000     0.1392     0.9636     0.9636     0.0000
 11 H      0.8314     1.0000     0.1686     0.9592     0.9592     0.0000
 12 H      0.8545     1.0000     0.1455     0.9627     0.9627     0.0000
 13 H      0.8398     1.0000     0.1602     0.9604     0.9604     0.0000

  Mayer bond orders larger than 0.100000
B(  0-C ,  1-C ) :   0.8953 B(  0-C ,  6-H ) :   0.9721 B(  0-C ,  7-H ) :   0.9789 
B(  0-C ,  8-H ) :   0.9665 B(  1-C ,  2-C ) :   0.9250 B(  1-C ,  9-H ) :   0.9673 
B(  1-C , 10-H ) :   0.9584 B(  2-C ,  3-H ) :   0.9514 B(  2-C ,  4-C ) :   0.9233 
B(  2-C ,  5-Cl) :   0.9272 B(  4-C , 11-H ) :   0.9733 B(  4-C , 12-H ) :   0.9617 
B(  4-C , 13-H ) :   0.9634 

-------
TIMINGS
-------

Total SCF time: 0 days 0 hours 0 min 9 sec 

Total time                  ....       9.434 sec
Sum of individual times     ....       9.401 sec  ( 99.6%)

SCF preparation             ....       0.245 sec  (  2.6%)
Fock matrix formation       ....       7.154 sec  ( 75.8%)
  Startup                   ....       0.008 sec  (  0.1% of F)
  Split-RI-J                ....       1.148 sec  ( 16.0% of F)
  XC integration            ....       5.906 sec  ( 82.6% of F)
    XC Preparation          ....       0.000 sec  (  0.0% of XC)
    Basis function eval.    ....       1.146 sec  ( 19.4% of XC)
    Density eval.           ....       1.768 sec  ( 29.9% of XC)
    XC-Functional eval.     ....       0.904 sec  ( 15.3% of XC)
    XC-Potential eval.      ....       1.845 sec  ( 31.2% of XC)
Diagonalization             ....       0.000 sec  (  0.0%)
Density matrix formation    ....       0.033 sec  (  0.4%)
Total Energy calculation    ....       0.002 sec  (  0.0%)
Population analysis         ....       1.862 sec  ( 19.7%)
Orbital Transformation      ....       0.013 sec  (  0.1%)
Orbital Orthonormalization  ....       0.000 sec  (  0.0%)
DIIS solution               ....       0.080 sec  (  0.8%)
  MO trafo                  ....       0.000 sec  (  0.0 % of DIIS)
  Orb grad                  ....       0.000 sec  (  0.0 % of DIIS)
  Energy W gradient         ....       0.000 sec  (  0.0 % of DIIS)
  DIIS error                ....       0.005 sec  (  6.8 % of DIIS)
  DIIS work                 ....       0.067 sec  ( 83.6 % of DIIS)
  Form Q                    ....       0.000 sec  (  0.0 % of DIIS)
  Form QpQm                 ....       0.000 sec  (  0.0 % of DIIS)
  Exp/Cayley                ....       0.000 sec  (  0.0 % of DIIS)
  Orb update                ....       0.000 sec  (  0.0 % of DIIS)
  Wake-sleep                ....       0.001 sec  (  1.4 % of DIIS)
SOSCF solution              ....       0.012 sec  (  0.1%)
  MO trafo                  ....       0.009 sec  ( 76.1 % of SOSCF)
  Orb grad                  ....       0.000 sec  (  0.6 % of SOSCF)
  Rot update                ....       0.000 sec  (  0.2 % of SOSCF)
  Step                      ....       0.003 sec  ( 22.7 % of SOSCF)
Finished LeanSCF after  11.2 sec

Maximum memory used throughout the entire LEANSCF-calculation: 16.0 MB


-------------------------------------------------------------------------------
                          DFT DISPERSION CORRECTION                            
                                                                               
                                DFTD4 V3.4.0                                   
-------------------------------------------------------------------------------
The R2SCAN3C composite method is recognized
Using three-body term ABC
Active option DFTDOPT                   ...         5   

-------------------------   ----------------
Dispersion correction           -0.003501298
-------------------------   ----------------

------------------   -----------------
gCP correction             0.008805097
------------------   -----------------

-------------------------   --------------------
FINAL SINGLE POINT ENERGY      -617.973672239621
-------------------------   --------------------


------------------------------------------------------------------------------
                              ORCA PROPERTY CALCULATIONS
------------------------------------------------------------------------------

GBWName                                 ... sp.gbw
Number of atoms                         ...     14
Number of basis functions               ...    148
Max core memory                         ...   1024 MB

Electric properties:
Dipole moment                           ... YES
Quadrupole moment                       ...  NO
Static polarizability (Dipole/Dipole)   ...  NO
Static polarizability (Dipole/Quad.)    ...  NO
Static polarizability (Quad./Quad.)     ...  NO
Static polarizability (Velocity)        ...  NO

Atomic electric properties:
Dipole moment                           ...  NO
Quadrupole moment                       ...  NO
Static polarizability                   ...  NO

Choice of electric origin               ... Center of mass
Position of electric origin             ...     0.000014    -0.000014    -0.000003

General magnetic properties:
Magnetizability                         ...  NO

EPR properties:
g-Tensor (aka g-matrix)                 ...  NO
Zero-Field splitting spin-orbit         ...  NO
Zero-field splitting spin-spin          ...  NO
Hyperfine couplings                     ...  NO (   0 nuclei)
Quadrupole couplings                    ...  NO (   0 nuclei)
Contact density                         ...  NO (   0 nuclei)

NMR properties:
Chemical shifts                         ...  NO (   0 nuclei)
Spin-rotation constants                 ...  NO (   0 nuclei)
Spin-spin couplings                     ...  NO (   0 nuclei,    0 pairs)

Choice of magnetic origin               ... GIAO
Position of magnetic origin             ...     0.000000     0.000000     0.000000

Properties with geometric perturbations:
SCF Hessian                             ...  NO
IR spectrum                             ...  NO
VCD spectrum                            ...  NO
X-ray spectroscopy properties:
SCF XES/XAS/RIXS spectra                ...  NO


-------------
DIPOLE MOMENT
-------------

Method             : SCF
Type of density    : Electron Density
Multiplicity       :   1
Irrep              :   0
Energy             :  -617.9789760384400097 Eh
Relativity type    : 
Basis              : AO
                                X                 Y                 Z
Electronic contribution:     -7.194151262       7.105604837       1.370573483
Nuclear contribution   :      7.613276036      -7.839206360      -1.200336917
                        -----------------------------------------
Total Dipole Moment    :      0.419124775      -0.733601523       0.170236565
                        -----------------------------------------
Magnitude (a.u.)       :      0.861868470
Magnitude (Debye)      :      2.190695554



--------------------
Rotational spectrum 
--------------------
 
Rotational constants in cm-1:             0.161723             0.099910             0.076791 
Rotational constants in MHz :          4848.346443          2995.228561          2302.147133 

Dipole components along the rotational axes: 
x,y,z [a.u.] :    -0.672992    -0.476983     0.249771 
x,y,z [Debye]:    -1.710611    -1.212395     0.634867 

 

Dipole moment calculation done in   0.3 sec 

Maximum memory used throughout the entire PROP-calculation: 9.0 MB

--------------------------------
SUGGESTED CITATIONS FOR THIS RUN
--------------------------------

Below you find a list of papers that are relevant to this ORCA run
We neither can nor want to force you to cite these papers, but we appreciate if you do
You receive ORCA, which is the product of decades of hard work by many enthusiastic individuals, for free
The only thing we kindly ask in return is that you cite our papers,
We deeply appreciate it, if you show your appreciation for ORCA by not just citing the generic ORCA reference.

Please note that relegating all ORCA citations to the supporting information does *not* help us.
SI sections are not indexed - citations you put there will not count into any citation statistics
But we need these citations in order to attract the funding resources that allow us to do what we are doing

Therefore, if you are a happy ORCA user, please consider citing a few of the papers listed below in the main body of your paper

In addition to the list printed below, the program has created the file sp.bibtex that contains the list in bibtex format
You can import this file easily into all common literature databanks and citation aid programs


List of essential papers. We consider these as the minimum necessary citations

  1. Neese,F.
     Software update: the ORCA program system, version 5.0
     WIRES Comput. Molec. Sci., 2022 12(1)e1606
     doi.org/10.1002/wcms.1606
  2. Grimme,S.; Hansen,A.; Ehlert,S.; Mewes,J.
     r2SCAN-3c: A 'Swiss army knife' composite electronic-structure method
     J. Chem. Phys., 2021 154 064103
     doi.org/10.1063/5.0040021

List of papers to cite with high priority. The work reported in these papers was absolutely
necessary for this run to complete.
Our perspective: the developers of density functionals and basis sets usually get cited in chemistry papers
Good! But without the algorithms to do something with them, the functionals or basis sets would not do anything.
Hence, in our opinion, the algorithm design and method developments papers are equally worthy of getting cited

  1. Neese,F.
     An improvement of the resolution of the identity approximation for the formation of the Coulomb matrix
     J. Comp. Chem., 2003 24(14)1740-1747
     doi.org/10.1002/jcc.10318
  2. Neese,F.
     The SHARK Integral Generation and Digestion System
     J. Comp. Chem., 2022  1-16
     doi.org/10.1002/jcc.26942
  3. Lehtola,S.; Steigemann,C.; Oliveira,M.; Marques,M.
     Recent developments in Libxc - A comprehensive library of functionals for density functional theory
     Software X, 2018 7 
     doi.org/10.1016/j.softx.2017.11.002
  4. Caldeweyher,E.; Bannwarth,C.; Grimme,S.
     Extension of the D3 dispersion coefficient model
     J. Chem. Phys., 2017 147 034112
     doi.org/10.1063/1.4993215
  5. Caldeweyher,E.; Ehlert,S.; Hansen,A.; Neugebauer,H.; Spicher,S.; Bannwarth,C.; Grimme,S.
     A generally applicable atomic-charge dependent London dispersion correction
     J. Chem. Phys., 2019 150 154122
     doi.org/10.1063/1.5090222
  6. Caldeweyher,E.; Mewes,J.; Ehlert,S.; Grimme,S.
     Extension and evaluation of the D4 London-dispersion model for periodic systems
     Phys. Chem. Chem. Phys., 2020 22(16)8499-8512
     doi.org/10.1039/D0CP00502A
  7. Wittmann,L.; Gordiy,I.; Friede,M.; Helmich-Paris,B.; Grimme,S.; Hansen,A.; Bursch,M.
     Extension of the D3 and D4 London Dispersion Corrections to the full Actinides Series
     Phys. Chem. Chem. Phys., 2024 26(32)21379-21394
     doi.org/https://doi.org/10.1039/D4CP01514B 

List of suggested additional citations. These are papers that are important in the 'surrounding' of 
of this run, or papers that preceded the highly important papers. If you like your results we are grateful for a citation.

  1. Neese,F.
     The ORCA program system
     WIRES Comput. Molec. Sci., 2012 2(1)73-78
     doi.org/10.1002/wcms.81
  2. Neese,F.
     Software update: the ORCA program system, version 4.0
     WIRES Comput. Molec. Sci., 2018 8(1)1-6
     doi.org/10.1002/wcms.1327
  3. Neese,F.; Wennmohs,F.; Becker,U.; Riplinger,C.
     The ORCA quantum chemistry program package
     J. Chem. Phys., 2020 152 Art. No. L224108
     doi.org/10.1063/5.0004608

List of optional additional citations

  1. Neese,F.
     Approximate second-order SCF convergence for spin unrestricted wavefunctions
     Chem. Phys. Lett., 2000 325(1-3)93-98
     doi.org/10.1016/s0009-2614(00)00662-x

Timings for individual modules:

Sum of individual times          ...       12.134 sec (=   0.202 min)
Startup calculation              ...        0.517 sec (=   0.009 min)   4.3 %
SCF iterations                   ...       11.258 sec (=   0.188 min)  92.8 %
Property calculations            ...        0.358 sec (=   0.006 min)   3.0 %
                             ****ORCA TERMINATED NORMALLY****
TOTAL RUN TIME: 0 days 0 hours 0 minutes 13 seconds 320 msec
