
                                 *****************
                                 * O   R   C   A *
                                 *****************

                                            #,                                       
                                            ###                                      
                                            ####                                     
                                            #####                                    
                                            ######                                   
                                           ########,                                 
                                     ,,################,,,,,                         
                               ,,#################################,,                 
                          ,,##########################################,,             
                       ,#########################################, ''#####,          
                    ,#############################################,,   '####,        
                  ,##################################################,,,,####,       
                ,###########''''           ''''###############################       
              ,#####''   ,,,,##########,,,,          '''####'''          '####       
            ,##' ,,,,###########################,,,                        '##       
           ' ,,###''''                  '''############,,,                           
         ,,##''                                '''############,,,,        ,,,,,,###''
      ,#''                                            '''#######################'''  
     '                                                          ''''####''''         
             ,#######,   #######,   ,#######,      ##                                
            ,#'     '#,  ##    ##  ,#'     '#,    #''#        ,####,   ,####,        
            ##       ##  ##   ,#'  ##            #'  '#       #'       #'  '#        
            ##       ##  #######   ##           ,######,      #####,   #    #        
            '#,     ,#'  ##    ##  '#,     ,#' ,#      #,     #,   #   #,  ,#        
             '#######'   ##     ##  '#######'  #'      '#     '####' # '####'        



                #########################################################
                #                        -***-                          #
                #          Department of theory and spectroscopy        #
                #                                                       #
                #                      Frank Neese                      #
                #                                                       #
                #     Directorship, Architecture, Infrastructure        #
                #                    SHARK, DRIVERS                     #
                #        Core code/Algorithms in most modules           #
                #                                                       #
                #        Max Planck Institute fuer Kohlenforschung      #
                #                Kaiser Wilhelm Platz 1                 #
                #                 D-45470 Muelheim/Ruhr                 #
                #                      Germany                          #
                #                                                       #
                #                  All rights reserved                  #
                #                        -***-                          #
                #########################################################


                         Program Version 6.0.1  -  RELEASE   -


 With contributions from (in alphabetic order):
[Max-Planck-Institut fuer Kohlenforschung]                               
  Daniel Aravena         : Magnetic Suceptibility                        
  Michael Atanasov       : Ab Initio Ligand Field Theory (pilot matlab implementation)
  Alexander A. Auer      : GIAO ZORA, VPT2 properties, NMR spectrum      
  Ute Becker             : All parallelization in ORCA, NUMFREQ, NUMCALC 
  Giovanni Bistoni       : ED, misc. LED, open-shell LED, HFLD           
  Martin Brehm           : Molecular dynamics                            
  Dmytro Bykov           : pre 5.0 version of the SCF Hessian            
  Marcos Casanova-Páez   : Triplet and SCS-CIS(D). UHF-(DLPNO)-IP/EA/STEOM-CCSD. UHF-CVS-IP/STEOM-CCSD   
  Vijay G. Chilkuri      : MRCI spin determinant printing, contributions to CSF-ICE 
  Pauline Colinet        : FMM embedding                                 
  Dipayan Datta          : RHF DLPNO-CCSD density                        
  Achintya Kumar Dutta   : EOM-CC, STEOM-CC                              
  Nicolas Foglia         : Exact transition moments, OPA infrastructure, MCD improvements    
  Dmitry Ganyushin       : Spin-Orbit,Spin-Spin,Magnetic field MRCI      
  Miquel Garcia-Rates    : C-PCM and meta-GGA Hessian, CCSD/C-PCM, Gaussian charge scheme 
  Tiago L. C. Gouveia    : GS-ROHF, GS-ROCIS                             
  Yang Guo               : DLPNO-NEVPT2, F12-NEVPT2, CIM, IAO-localization        
  Andreas Hansen         : Spin unrestricted coupled pair/coupled cluster methods 
  Ingolf Harden          : AUTO-CI MPn and infrastructure                
  Benjamin Helmich-Paris : MC-RPA, TRAH-(SCF,CASSCF), AVAS, COSX integrals, SCF dyn. polar. 
  Lee Huntington         : MR-EOM, pCC                                   
  Robert Izsak           : Overlap fitted RIJCOSX, COSX-SCS-MP3, EOM     
  Riya Kayal             : Wick's Theorem for AUTO-CI, AUTO-CI UHF-CCSDT 
  Emily Kempfer          : AUTO-CI, RHF CISDT and CCSDT                  
  Christian Kollmar      : KDIIS, OOCD, Brueckner-CCSD(T), CCSD density, CASPT2, CASPT2-K, improved NEVPT2 
  Axel Koslowski         : Symmetry handling                             
  Simone Kossmann        : meta-GGA functionals, TD-DFT gradient, OOMP2, (MP2 Hessian; deprecated post 5.0) 
  Lucas Lang             : DCDCAS                                        
  Marvin Lechner         : AUTO-CI (C++ implementation), FIC-MRCC        
  Spencer Leger          : CASSCF response                               
  Dagmar Lenk            : GEPOL surface, SMD, ORCA-2-JSON               
  Dimitrios Liakos       : Extrapolation schemes; Compound Job, initial MDCI parallelization 
  Dimitrios Manganas     : Further ROCIS development; embedding schemes. LFT, Crystal Embedding 
  Dimitrios Pantazis     : SARC Basis sets                               
  Anastasios Papadopoulos: AUTO-CI, single reference methods and gradients 
  Taras Petrenko         : pre 6.0 DFT Hessian and TD-DFT gradient, (ASA, deprecated), ECA, 1-Electron XAS/XES, NRVS 
  Peter Pinski           : DLPNO-MP2, DLPNO-MP2 Gradient                 
  Christoph Reimann      : Effective Core Potentials                     
  Marius Retegan         : Local ZFS, SOC                                
  Christoph Riplinger    : Optimizer, TS searches, QM/MM, DLPNO-CCSD(T), (RO)-DLPNO pert. Triples 
  Michael Roemelt        : Original ROCIS implementation                 
  Masaaki Saitow         : Open-shell DLPNO-CCSD energy and density      
  Barbara Sandhoefer     : DKH picture change effects                    
  Kantharuban Sivalingam : CASSCF convergence/infrastructure, NEVPT2 and variants, FIC-MRCI 
  Bernardo de Souza      : ESD, SOC TD-DFT                               
  Georgi L. Stoychev     : AutoAux, RI-MP2 NMR, DLPNO-MP2 response, X2C  
  Van Anh Tran           : RI-MP2 g-tensors                              
  Willem Van den Heuvel  : Paramagnetic NMR                              
  Zikuan Wang            : NOTCH, Electric field optimization            
  Frank Wennmohs         : Technical directorship and infrastructure     
  Hang Xu                : AUTO-CI-Response properties                   
                                                                         
[FACCTs GmbH]                                                            
  Markus Bursch, Miquel Garcia-Rates, Christoph Riplinger, Bernardo de Souza, Georgi L. Stoychev 
                                                                 
  APM, Basis sets (HGBS, AHGBS, def-TZVP (Ac-Lr), def2-XVPD (La-Lu)), CI-OPT, improved COSX, DLPNO-Multilevel,           
  DOCKER, DRACO, updates on ESD, GOAT, IRC, LR-CPCM, MBIS, meta-GGA TD-DFT gradient, ML-optimized integration grids, 
  MM, NACMEs, nearIR, NEB, NEB-TS, NL-DFT gradient (VV10), 2- and 3-layer-ONIOM, interface openCOSMO-RS, QMMM,   
  Crystal-QMMM, SF, symmetry and pop. for TD-DFT, r2SCAN hybrids, SOLVATOR                                   
                                                                         
[Other institutions]                                                     
  V. Asgeirsson          : NEB                                           
  Christoph Bannwarth    : sTDA-DFT, sTD-DFT, PBEh-3c, B97-3c, D3        
  Sebastian Ehlert       : rSCAN, r2SCAN, r2SCAN-3c, D4, dhf basis sets  
  Marvin Friede          : D4 for Fr, Ra, Ac-Lr                          
  Lars Goerigk           : TD-DFT with DH, B97 family of functionals     
  Stefan Grimme          : VdW corrections, initial TS optimization, DFT functionals, gCP, sTDA/sTD-DF 
  Waldemar Hujo          : DFT-NL                                        
  H. Jonsson             : NEB                                           
  Holger Kruse           : gCP                                           
  Marcel Mueller         : wB97X-3c, vDZP basis set                      
  Hagen Neugebauer       : wr2SCAN                                       
  Tobias Risthaus        : range-separated hybrid DFT                    
  Lukas Wittmann         : regularized MP2, r2SCAN double-hybrids, wr2SCAN        
                                                                         
We gratefully acknowledge several colleagues who have allowed us to      
interface, adapt or use parts of their codes:                            
  Ed Valeev, F. Pavosevic, A. Kumar             : LibInt (2-el integral package), F12 methods 
  Garnet Chan, S. Sharma, J. Yang, R. Olivares  : DMRG                   
  Ulf Ekstrom                                   : XCFun DFT Library      
  Mihaly Kallay                                 : mrcc  (arbitrary order and MRCC methods)
  Frank Weinhold                                : gennbo (NPA and NBO analysis)           
  Simon Mueller                                 : openCOSMO-RS                            
  Christopher J. Cramer and Donald G. Truhlar   : smd solvation model                     
  S Lehtola, MJT Oliveira, MAL Marques          : LibXC Library                           
  Liviu Ungur et al                             : ANISO software                          


 Your calculation uses the libint2 library for the computation of 2-el integrals
 For citations please refer to: http://libint.valeyev.net

 Your ORCA version has been built with support for libXC version: 6.2.2
 For citations please refer to: https://libxc.gitlab.io

 This ORCA versions uses:
   CBLAS   interface :  Fast vector & matrix operations
   LAPACKE interface :  Fast linear algebra routines
   SCALAPACK package :  Parallel linear algebra routines
   Shared memory     :  Shared parallel matrices
   BLAS/LAPACK       :  OpenBLAS 0.3.27  USE64BITINT DYNAMIC_ARCH NO_AFFINITY Zen SINGLE_THREADED
        Core in use  :  Zen
   Copyright (c) 2011-2014, The OpenBLAS Project


Your calculation utilizes the geometrical counterpoise correction gCP
Please cite in your paper:
H.Kruse, S. Grimme J.Chem.Phys., 136, (2012), 154101 
   

Your calculation utilizes the atom-pairwise dispersion correction
based on EEQ partial charges (D4)


================================================================================

----- Orbital basis set information -----
Your calculation utilizes the basis: def2-mTZVPP
   Stefan Grimme, Andreas Hansen, Sebastian Ehlert, and Jan-Michael Mewes 
   J. Chem. Phys. 154, 064103 (2021). DOI: 10.1063/5.0040021

----- AuxJ basis set information -----
Your calculation utilizes the auxiliary basis: def2/J
   F. Weigend, Phys. Chem. Chem. Phys. 8, 1057 (2006).

================================================================================
                                        WARNINGS
                       Please study these warnings very carefully!
================================================================================



WARNING: SCAN, rSCAN, or r2SCAN functional requested.
  ===> : libXC variant has now been activated.



================================================================================
                                       INPUT FILE
================================================================================
NAME = sp.inp
|  1> ! r2scan-3c def2/J RI DEFGRID2 scfconv6 printgap
|  2> %output
|  3>     printlevel normal
|  4> end
|  5> * xyz 0 1
|  6> C 3.3046228697 -0.3329588765 0.8887979744
|  7> C 1.937432825 -0.1762172325 0.3100878634
|  8> C 1.4324835779 1.0165937045 -0.0204224228
|  9> C 0.084190655 1.2261352977 -0.5395462097
| 10> O -0.3621909044 2.3425374311 -0.7170062788
| 11> C -0.7667032513 -0.0038070426 -0.8255595684
| 12> H -1.2245934759 0.1763441392 -1.8065108479
| 13> C 0.0689423515 -1.2809899263 -0.9359114099
| 14> C 1.142645853 -1.4311477291 0.1385773859
| 15> C -1.9515353995 -0.0148376809 0.171470586
| 16> C -3.0265099857 -1.0173209486 -0.2420724038
| 17> C -1.5417247752 -0.253087984 1.6228731471
| 18> H 3.9397575446 -0.8857167132 0.1963021173
| 19> H 3.2569981898 -0.904271671 1.815360584
| 20> H 3.7637848105 0.6312097846 1.0888844294
| 21> H 2.0107757222 1.9198969569 0.1205277281
| 22> H -0.5846774257 -2.1541409687 -0.9284259768
| 23> H 0.5719429541 -1.2605809419 -1.9068941579
| 24> H 0.6975102548 -1.6893709557 1.1022553375
| 25> H 1.8109224619 -2.2538899681 -0.1299413126
| 26> H -2.3851366735 0.9901376816 0.1084086248
| 27> H -3.3422710456 -0.847300115 -1.2687009939
| 28> H -3.8951421855 -0.9142458471 0.404318434
| 29> H -2.6652166001 -2.0398699836 -0.1559958094
| 30> H -0.6965724657 0.3737846072 1.8974620452
| 31> H -1.2849623901 -1.2963065112 1.7912177028
| 32> H -2.3729825399 -0.0079856081 2.2811970283
| 33> *
| 34> 
| 35>                          ****END OF INPUT****
================================================================================

                       ****************************
                       * Single Point Calculation *
                       ****************************

---------------------------------
CARTESIAN COORDINATES (ANGSTROEM)
---------------------------------
  C      3.304623   -0.332959    0.888798
  C      1.937433   -0.176217    0.310088
  C      1.432484    1.016594   -0.020422
  C      0.084191    1.226135   -0.539546
  O     -0.362191    2.342537   -0.717006
  C     -0.766703   -0.003807   -0.825560
  H     -1.224593    0.176344   -1.806511
  C      0.068942   -1.280990   -0.935911
  C      1.142646   -1.431148    0.138577
  C     -1.951535   -0.014838    0.171471
  C     -3.026510   -1.017321   -0.242072
  C     -1.541725   -0.253088    1.622873
  H      3.939758   -0.885717    0.196302
  H      3.256998   -0.904272    1.815361
  H      3.763785    0.631210    1.088884
  H      2.010776    1.919897    0.120528
  H     -0.584677   -2.154141   -0.928426
  H      0.571943   -1.260581   -1.906894
  H      0.697510   -1.689371    1.102255
  H      1.810922   -2.253890   -0.129941
  H     -2.385137    0.990138    0.108409
  H     -3.342271   -0.847300   -1.268701
  H     -3.895142   -0.914246    0.404318
  H     -2.665217   -2.039870   -0.155996
  H     -0.696572    0.373785    1.897462
  H     -1.284962   -1.296307    1.791218
  H     -2.372983   -0.007986    2.281197

----------------------------
CARTESIAN COORDINATES (A.U.)
----------------------------
  NO LB      ZA    FRAG     MASS         X           Y           Z
   0 C     6.0000    0    12.011    6.244832   -0.629201    1.679585
   1 C     6.0000    0    12.011    3.661217   -0.333002    0.585981
   2 C     6.0000    0    12.011    2.707002    1.921084   -0.038593
   3 C     6.0000    0    12.011    0.159097    2.317060   -1.019595
   4 O     8.0000    0    15.999   -0.684442    4.426754   -1.354946
   5 C     6.0000    0    12.011   -1.448859   -0.007194   -1.560081
   6 H     1.0000    0     1.008   -2.314146    0.333242   -3.413811
   7 C     6.0000    0    12.011    0.130282   -2.420720   -1.768616
   8 C     6.0000    0    12.011    2.159288   -2.704477    0.261873
   9 C     6.0000    0    12.011   -3.687867   -0.028039    0.324032
  10 C     6.0000    0    12.011   -5.719275   -1.922458   -0.457451
  11 C     6.0000    0    12.011   -2.913438   -0.478267    3.066786
  12 H     1.0000    0     1.008    7.445063   -1.673762    0.370957
  13 H     1.0000    0     1.008    6.154835   -1.708826    3.430534
  14 H     1.0000    0     1.008    7.112523    1.192814    2.057693
  15 H     1.0000    0     1.008    3.799815    3.628079    0.227764
  16 H     1.0000    0     1.008   -1.104880   -4.070736   -1.754471
  17 H     1.0000    0     1.008    1.080816   -2.382153   -3.603508
  18 H     1.0000    0     1.008    1.318103   -3.192448    2.082961
  19 H     1.0000    0     1.008    3.422148   -4.259235   -0.245553
  20 H     1.0000    0     1.008   -4.507255    1.871089    0.204863
  21 H     1.0000    0     1.008   -6.315977   -1.601165   -2.397497
  22 H     1.0000    0     1.008   -7.360752   -1.727674    0.764051
  23 H     1.0000    0     1.008   -5.036529   -3.854796   -0.294789
  24 H     1.0000    0     1.008   -1.316331    0.706351    3.585684
  25 H     1.0000    0     1.008   -2.428227   -2.449664    3.384911
  26 H     1.0000    0     1.008   -4.484287   -0.015091    4.310838

--------------------------------
INTERNAL COORDINATES (ANGSTROEM)
--------------------------------
 C      0   0   0     0.000000000000     0.00000000     0.00000000
 C      1   0   0     1.492877072590     0.00000000     0.00000000
 C      2   1   0     1.336790455852   122.37498453     0.00000000
 C      3   2   1     1.459894171284   124.39162564   182.50715362
 O      4   3   2     1.215360973603   121.53186250   173.67739762
 C      4   3   2     1.522689148052   117.83629126   355.04090208
 H      6   4   3     1.097443993487   105.57233560   225.08949039
 C      6   4   3     1.530253972652   112.49165796   342.01938920
 C      2   1   3     1.495310244080   116.30302406   181.03942484
 C      6   4   3     1.548553526092   108.20241851   113.19089034
 C     10   6   4     1.526944945768   111.65099866   166.72103239
 C     10   6   4     1.526852104522   114.06554311   292.35305229
 H      1   2   3     1.090177872365   109.91001099   245.19897392
 H      1   2   3     1.089580051581   110.16181468   126.99325811
 H      1   2   3     1.086501488449   111.42251362     5.76458796
 H      3   2   1     1.081778866032   120.72646519     0.23077828
 H      8   6   4     1.090718839894   109.90122005   168.06643367
 H      8   6   4     1.093724659032   107.43287973   284.44700129
 H      9   2   1     1.092474315460   108.28614702    81.03482562
 H      9   2   1     1.093435278963   109.56016056   324.98989132
 H     10   6   4     1.096340437545   105.01315860    50.01996930
 H     11  10   6     1.087464203005   110.94375289   306.69144166
 H     11  10   6     1.087643089561   109.82016535   186.97404604
 H     11  10   6     1.087910207490   111.21433906    67.61546705
 H     12  10   6     1.087497464278   111.01802225    46.89677216
 H     12  10   6     1.087461129112   111.11371808   285.04066499
 H     12  10   6     1.088326687445   109.56393242   166.24784323

---------------------------
INTERNAL COORDINATES (A.U.)
---------------------------
 C      0   0   0     0.000000000000     0.00000000     0.00000000
 C      1   0   0     2.821128818805     0.00000000     0.00000000
 C      2   1   0     2.526167860001   122.37498453     0.00000000
 C      3   2   1     2.758800168234   124.39162564   182.50715362
 O      4   3   2     2.296699393966   121.53186250   173.67739762
 C      4   3   2     2.877465476913   117.83629126   355.04090208
 H      6   4   3     2.073868595007   105.57233560   225.08949039
 C      6   4   3     2.891760923658   112.49165796   342.01938920
 C      2   1   3     2.825726846558   116.30302406   181.03942484
 C      6   4   3     2.926342068032   108.20241851   113.19089034
 C     10   6   4     2.885507769077   111.65099866   166.72103239
 C     10   6   4     2.885332324548   114.06554311   292.35305229
 H      1   2   3     2.060137616031   109.91001099   245.19897392
 H      1   2   3     2.059007898472   110.16181468   126.99325811
 H      1   2   3     2.053190257266   111.42251362     5.76458796
 H      3   2   1     2.044265794265   120.72646519     0.23077828
 H      8   6   4     2.061159896508   109.90122005   168.06643367
 H      8   6   4     2.066840071486   107.43287973   284.44700129
 H      9   2   1     2.064477264563   108.28614702    81.03482562
 H      9   2   1     2.066293222409   109.56016056   324.98989132
 H     10   6   4     2.071783176504   105.01315860    50.01996930
 H     11  10   6     2.055009524123   110.94375289   306.69144166
 H     11  10   6     2.055347570723   109.82016535   186.97404604
 H     11  10   6     2.055852350454   111.21433906    67.61546705
 H     12  10   6     2.055072378819   111.01802225    46.89677216
 H     12  10   6     2.055003715306   111.11371808   285.04066499
 H     12  10   6     2.056639383508   109.56393242   166.24784323

---------------------
BASIS SET INFORMATION
---------------------
There are 3 groups of distinct atoms

 Group   1 Type C   : 11s6p1d contracted to 5s3p1d pattern {62111/411/1}
 Group   2 Type O   : 11s6p2d contracted to 5s3p2d pattern {62111/411/11}
 Group   3 Type H   : 4s1p contracted to 2s1p pattern {31/1}

Atom   0C    basis set group =>   1
Atom   1C    basis set group =>   1
Atom   2C    basis set group =>   1
Atom   3C    basis set group =>   1
Atom   4O    basis set group =>   2
Atom   5C    basis set group =>   1
Atom   6H    basis set group =>   3
Atom   7C    basis set group =>   1
Atom   8C    basis set group =>   1
Atom   9C    basis set group =>   1
Atom  10C    basis set group =>   1
Atom  11C    basis set group =>   1
Atom  12H    basis set group =>   3
Atom  13H    basis set group =>   3
Atom  14H    basis set group =>   3
Atom  15H    basis set group =>   3
Atom  16H    basis set group =>   3
Atom  17H    basis set group =>   3
Atom  18H    basis set group =>   3
Atom  19H    basis set group =>   3
Atom  20H    basis set group =>   3
Atom  21H    basis set group =>   3
Atom  22H    basis set group =>   3
Atom  23H    basis set group =>   3
Atom  24H    basis set group =>   3
Atom  25H    basis set group =>   3
Atom  26H    basis set group =>   3
---------------------------------
AUXILIARY/J BASIS SET INFORMATION
---------------------------------
There are 3 groups of distinct atoms

 Group   1 Type C   : 12s5p4d2f1g contracted to 6s4p3d1f1g pattern {711111/2111/211/2/1}
 Group   2 Type O   : 12s5p4d2f1g contracted to 6s4p3d1f1g pattern {711111/2111/211/2/1}
 Group   3 Type H   : 5s2p1d contracted to 3s1p1d pattern {311/2/1}

Atom   0C    basis set group =>   1
Atom   1C    basis set group =>   1
Atom   2C    basis set group =>   1
Atom   3C    basis set group =>   1
Atom   4O    basis set group =>   2
Atom   5C    basis set group =>   1
Atom   6H    basis set group =>   3
Atom   7C    basis set group =>   1
Atom   8C    basis set group =>   1
Atom   9C    basis set group =>   1
Atom  10C    basis set group =>   1
Atom  11C    basis set group =>   1
Atom  12H    basis set group =>   3
Atom  13H    basis set group =>   3
Atom  14H    basis set group =>   3
Atom  15H    basis set group =>   3
Atom  16H    basis set group =>   3
Atom  17H    basis set group =>   3
Atom  18H    basis set group =>   3
Atom  19H    basis set group =>   3
Atom  20H    basis set group =>   3
Atom  21H    basis set group =>   3
Atom  22H    basis set group =>   3
Atom  23H    basis set group =>   3
Atom  24H    basis set group =>   3
Atom  25H    basis set group =>   3
Atom  26H    basis set group =>   3

Checking for AutoStart:
The File: sp.gbw exists
Trying to determine its content:
     ... Fine, the file contains calculation information
     ... Fine, the calculation information was read
     ... Fine, the file contains a basis set
     ... Fine, the basis set was read
     ... Fine, the file contains a geometry
     ... Fine, the geometry was read
     ... Fine, the file contains a set of orbitals
     ... Fine, the orbitals can be read
     => possible old guess file was deleted
     => GBW file was renamed to GES file
     => GES file is set as startup file
     => Guess is set to MORead
     ... now leaving AutoStart

------------------------------------------------------------------------------
                             ORCA STARTUP CALCULATIONS
                           -- RI-GTO INTEGRALS CHOSEN --
------------------------------------------------------------------------------
------------------------------------------------------------------------------
                   ___                                                        
                  /   \      - P O W E R E D   B Y -                         
                 /     \                                                     
                 |  |  |   _    _      __       _____    __    __             
                 |  |  |  | |  | |    /  \     |  _  \  |  |  /  |          
                  \  \/   | |  | |   /    \    | | | |  |  | /  /          
                 / \  \   | |__| |  /  /\  \   | |_| |  |  |/  /          
                |  |  |   |  __  | /  /__\  \  |    /   |      \           
                |  |  |   | |  | | |   __   |  |    \   |  |\   \          
                \     /   | |  | | |  |  |  |  | |\  \  |  | \   \       
                 \___/    |_|  |_| |__|  |__|  |_| \__\ |__|  \__/        
                                                                              
                      - O R C A' S   B I G   F R I E N D -                    
                                      &                                       
                       - I N T E G R A L  F E E D E R -                       
                                                                              
 v1 FN, 2020, v2 2021, v3 2022-2024                                           
------------------------------------------------------------------------------


----------------------
SHARK INTEGRAL PACKAGE
----------------------

Number of atoms                             ...     27
Number of basis functions                   ...    294
Number of shells                            ...    148
Maximum angular momentum                    ...      2
Integral batch strategy                     ... SHARK/LIBINT Hybrid
RI-J (if used) integral strategy            ... SPLIT-RIJ (Revised 2003 algorithm where possible)
Printlevel                                  ...      1
Contraction scheme used                     ... SEGMENTED contraction
Prescreening option                         ... SCHWARTZ
   Thresh                                   ... 1.000e-10
   Tcut                                     ... 1.000e-11
   Tpresel                                  ... 1.000e-11 
Coulomb Range Separation                    ... NOT USED
Exchange Range Separation                   ... NOT USED
Multipole approximations                    ... NOT USED
Finite Nucleus Model                        ... NOT USED
CABS basis                                  ... NOT available
Auxiliary Coulomb fitting basis             ... AVAILABLE
   # of basis functions in Aux-J            ...    715
   # of shells in Aux-J                     ...    245
   Maximum angular momentum in Aux-J        ...      4
Auxiliary J/K fitting basis                 ... NOT available
Auxiliary Correlation fitting basis         ... NOT available
Auxiliary 'external' fitting basis          ... NOT available

Checking pre-screening integrals            ... done (  0.0 sec) Dimension = 148
Check shell pair data                       ... done (  0.0 sec)
Shell pair information
Shell pair cut-off parameter TPreSel        ...   1.0e-11
Total number of shell pairs                 ...     11026
Shell pairs after pre-screening             ...      9561
Total number of primitive shell pairs       ...     39350
Primitive shell pairs kept                  ...     23380
          la=0 lb=0:   3268 shell pairs
          la=1 lb=0:   3705 shell pairs
          la=1 lb=1:   1088 shell pairs
          la=2 lb=0:    907 shell pairs
          la=2 lb=1:    521 shell pairs
          la=2 lb=2:     72 shell pairs

Calculating one electron integrals          ... done (  0.0 sec)
Calculating RI/J V-Matrix + Cholesky decomp.... done (  0.0 sec)
Calculating Nuclear repulsion               ... done (  0.0 sec) ENN=    645.337096983559 Eh

Diagonalization of the overlap matrix:
Smallest eigenvalue                        ... 4.890e-05
Time for diagonalization                   ...    0.008 sec
Threshold for overlap eigenvalues          ... 1.000e-07
Number of eigenvalues below threshold      ... 0
Time for construction of square roots      ...    0.006 sec
Total time needed                          ...    0.015 sec

-------------------
DFT GRID GENERATION
-------------------

General Integration Accuracy     IntAcc      ... 4.388
Radial Grid Type                 RadialGrid  ... OptM3 with GC (2021)
Angular Grid (max. ang.)         AngularGrid ... 4 (Lebedev-302)
Angular grid pruning method      GridPruning ... 4 (adaptive)
Weight generation scheme         WeightScheme... mBecke (2022)
Basis function cutoff            BFCut       ... 1.0000e-10
Integration weight cutoff        WCut        ... 1.0000e-14
Partially contracted basis set               ... off
Rotationally invariant grid construction     ... off
Angular grids for H and He will be reduced by one unit
Diffuse basis detected: some atoms will have their outermost
                        angular grid increased by 1.

Total number of grid points                  ...   116779
Total number of batches                      ...     1838
Average number of points per batch           ...       63
Average number of grid points per atom       ...     4325
Initializing property integral containers    ... done (  0.0 sec)

SHARK setup successfully completed in   1.4 seconds

Maximum memory used throughout the entire STARTUP-calculation: 56.8 MB
-------------------------------------------------------------------------------
                                 ORCA GUESS
                   Start orbitals & Density for SCF / CASSCF
-------------------------------------------------------------------------------

------------
SCF SETTINGS
------------
Hamiltonian:
 Density Functional     Method          .... DFT(GTOs)
  Functional kind                       .... Exchange
  Functional name                       .... Re-regularized SCAN exchange by Furness et al
  Functional family                     .... MGGA
  Functional refs                              
    [ 0] J. W. Furness, A. D. Kaplan, J. Ning, J. P. Perdew, and J. Sun.,  J. Phys. Chem. Lett. 11, 8208-8215 (2020), doi: 10.1021/acs.jpclett.0c02405
    [ 1] J. W. Furness, A. D. Kaplan, J. Ning, J. P. Perdew, and J. Sun.,  J. Phys. Chem. Lett. 11, 9248-9248 (2020), doi: 10.1021/acs.jpclett.0c03077
  Functional external parameters        .... 6
    Parameter  0 _c1        =  6.670000e-01 : c1 parameter        
    Parameter  1 _c2        =  8.000000e-01 : c2 parameter        
    Parameter  2 _d         =  1.240000e+00 : d parameter         
    Parameter  3 _k1        =  6.500000e-02 : k1 parameter        
    Parameter  4 _eta       =  1.000000e-03 : eta parameter       
    Parameter  5 _dp2       =  3.610000e-01 : dp2 parameter       
  Functional kind                       .... Correlation
  Functional name                       .... Re-regularized SCAN correlation by Furness et al
  Functional family                     .... MGGA
  Functional refs                              
    [ 0] J. W. Furness, A. D. Kaplan, J. Ning, J. P. Perdew, and J. Sun.,  J. Phys. Chem. Lett. 11, 8208-8215 (2020), doi: 10.1021/acs.jpclett.0c02405
    [ 1] J. W. Furness, A. D. Kaplan, J. Ning, J. P. Perdew, and J. Sun.,  J. Phys. Chem. Lett. 11, 9248-9248 (2020), doi: 10.1021/acs.jpclett.0c03077
  Functional external parameters        .... 1
    Parameter  0 _eta       =  1.000000e-03 : Regularization parameter
 Gradients option       PostSCFGGA      .... off
 RI-approximation to the Coulomb term is turned on
   Number of AuxJ basis functions       .... 715


General Settings:
 Integral files         IntName         .... sp
 Hartree-Fock type      HFTyp           .... RHF
 Total Charge           Charge          ....    0
 Multiplicity           Mult            ....    1
 Number of Electrons    NEL             ....   84
 Basis Dimension        Dim             ....  294
 Nuclear Repulsion      ENuc            ....    645.3370969836 Eh

Convergence Acceleration:
 AO-DIIS                CNVDIIS         .... on
   Start iteration      DIISMaxIt       ....    12
   Startup error        DIISStart       ....  0.200000
   # of expansion vecs  DIISMaxEq       ....     5
   Bias factor          DIISBfac        ....   1.050
   Max. coefficient     DIISMaxC        ....  10.000
 MO-DIIS                CNVKDIIS        .... off
 Trust-Rad. Augm. Hess. CNVTRAH         .... auto
   Auto Start mean grad. ratio tolernc. ....  1.125000
   Auto Start start iteration           ....     1
   Auto Start num. interpolation iter.  ....    10
   Max. Number of Micro iterations      ....    24
   Max. Number of Macro iterations      .... Maxiter - #DIIS iter
   Number of Davidson start vectors     ....     2
   Converg. threshold    (grad. norm)   ....   3.330e-04
   Grad. Scal. Fac. for Micro threshold ....   0.100
   Minimum threshold for Micro iter.    ....   1.000e-02
   NR start threshold (gradient norm)   ....   1.000e-04
   Initial trust radius                 ....   0.400
   Minimum AH scaling param. (alpha)    ....   1.000
   Maximum AH scaling param. (alpha)    .... 1000.000
   Quad. conv. algorithm                .... NR
   White noise on init. David. guess    .... on
   Maximum white noise                  ....   0.010
   Pseudo random numbers                .... off
   Inactive MOs                         .... canonical
   Orbital update algorithm             .... Taylor
   Preconditioner                       .... Diag
   Full preconditioner red. dimension   ....   250
   COSX micro iterations for RIJONX calc.... off
 SOSCF                  CNVSOSCF        .... on
   Start iteration      SOSCFMaxIt      ....   150
   Startup grad/error   SOSCFStart      ....  0.003300
   Hessian update       SOSCFHessUp     .... L-BFGS
 Level Shifting         CNVShift        .... on
   Level shift para.    LevelShift      ....    0.2500
   Turn off err/grad.   ShiftErr        ....    0.0010
 Zerner damping         CNVZerner       .... off
 Static damping         CNVDamp         .... on
   Fraction old density DampFac         ....    0.7000
   Max. Damping (<1)    DampMax         ....    0.9800
   Min. Damping (>=0)   DampMin         ....    0.0000
   Turn off err/grad.   DampErr         ....    0.1000

SCF Procedure:
 Maximum # iterations   MaxIter         ....   125
 SCF integral mode      SCFMode         .... Direct
   Integral package                     .... SHARK and LIBINT hybrid scheme
 Reset frequency        DirectResetFreq ....    20
 Integral Threshold     Thresh          ....  1.000e-10 Eh
 Primitive CutOff       TCut            ....  1.000e-11 Eh

Convergence Tolerance:
 Convergence Check Mode ConvCheckMode   .... Total+1el-Energy
 Convergence forced     ConvForced      .... 0
 Energy Change          TolE            ....  1.000e-06 Eh
 1-El. energy change                    ....  1.000e-03 Eh
 Orbital Gradient       TolG            ....  3.330e-04
 Orbital Rotation angle TolX            ....  3.330e-04
 DIIS Error             TolErr          ....  1.000e-06

---------------------
INITIAL GUESS: MOREAD
---------------------
Guess MOs are being read from file: sp.ges
Input Geometry matches current geometry (good)
Atom 0: N(Shells)= 9 and 6 - projection required
Input basis set needs projection
NBasis(read)= 186
NBasis(calc)= 294
Basis set overlap was calculated
Using GuessMode=FMatrix for the initial guess
C*T matrix was formed
Effective Fockian was calculated
Effective Fockian was diagonalized
Initial density was built
                      ------------------
                      INITIAL GUESS DONE (   0.0 sec)
                      ------------------
             **** ENERGY FILE WAS UPDATED (sp.en.tmp) ****
Finished Guess after   0.2 sec
Maximum memory used throughout the entire GUESS-calculation: 25.4 MB

-------------------------------------------------------------------------------------------
                                      ORCA LEAN-SCF
                              memory conserving SCF solver
-------------------------------------------------------------------------------------------

----------------------------------------D-I-I-S--------------------------------------------
Iteration    Energy (Eh)           Delta-E    RMSDP     MaxDP     DIISErr   Damp  Time(sec)
-------------------------------------------------------------------------------------------
               ***  Starting incremental Fock matrix formation  ***
    1    -465.5604551125202306     0.00e+00  6.24e-03  3.58e-01  6.23e-01  0.700   5.2
    2    -465.6295545346547442    -6.91e-02  4.78e-03  2.34e-01  4.38e-01  0.700   5.5
    3    -465.6783977671398134    -4.88e-02  3.44e-03  1.56e-01  3.07e-01  0.700   4.7
    4    -465.7126873676415926    -3.43e-02  2.44e-03  1.06e-01  2.15e-01  0.700   5.3
                               ***Turning on AO-DIIS***
    5    -465.7367373912122730    -2.41e-02  1.74e-03  7.09e-02  1.50e-01  0.700   4.6
    6    -465.7535951923209723    -1.69e-02  1.23e-03  4.87e-02  1.05e-01  0.700   4.4
    7    -465.7654117677648173    -1.18e-02  8.64e-04  3.35e-02  7.37e-02  0.700   4.4
    8    -465.7736904313339892    -8.28e-03  2.03e-03  7.66e-02  5.17e-02  0.000   4.3
                              *** Initializing SOSCF ***
---------------------------------------S-O-S-C-F--------------------------------------
Iteration    Energy (Eh)           Delta-E    RMSDP     MaxDP     MaxGrad    Time(sec)
--------------------------------------------------------------------------------------
    9    -465.7930319852114280    -1.93e-02  1.08e-05  4.13e-04  3.13e-04     4.5
               *** Restarting incremental Fock matrix formation ***
   10    -465.7930320185805613    -3.34e-08  3.69e-05  3.33e-03  1.35e-04     5.6
   11    -465.7930306526454842     1.37e-06  2.10e-05  1.93e-03  3.97e-04     3.7
   12    -465.7930322706806692    -1.62e-06  5.40e-06  2.72e-04  3.68e-05     3.6
                  *** Gradient check signals convergence ***

               *****************************************************
               *                     SUCCESS                       *
               *           SCF CONVERGED AFTER  12 CYCLES          *
               *****************************************************

             **** ENERGY FILE WAS UPDATED (sp.en.tmp) ****

----------------
TOTAL SCF ENERGY
----------------

Total Energy       :       -465.79303227068067 Eh          -12674.87279 eV

Components:
Nuclear Repulsion  :        645.33709698355915 Eh           17560.51517 eV
Electronic Energy  :      -1111.13012925423982 Eh          -30235.38795 eV
One Electron Energy:      -1909.59485149213992 Eh          -51962.71764 eV
Two Electron Energy:        798.46472223790022 Eh           21727.32969 eV

Virial components:
Potential Energy   :       -929.60367346868520 Eh          -25295.80197 eV
Kinetic Energy     :        463.81064119800448 Eh           12620.92918 eV
Virial Ratio       :          2.00427413883294

DFT components:
N(Alpha)           :       42.000038746367 electrons
N(Beta)            :       42.000038746367 electrons
N(Total)           :       84.000077492734 electrons
E(X)               :      -66.067084940814 Eh       
E(C)               :       -2.670964480568 Eh       
E(XC)              :      -68.738049421383 Eh       

---------------
SCF CONVERGENCE
---------------

  Last Energy change         ...    1.6180e-06  Tolerance :   1.0000e-06
  Last MAX-Density change    ...    2.7223e-04  Tolerance :   1.0000e-05
  Last RMS-Density change    ...    5.3975e-06  Tolerance :   1.0000e-06
  Last DIIS Error            ...    3.1275e-04  Tolerance :   1.0000e-06
  Last Orbital Gradient      ...    3.6775e-05  Tolerance :   3.3300e-04
  Last Orbital Rotation      ...    2.0451e-04  Tolerance :   3.3300e-04


----------------
ORBITAL ENERGIES
----------------

  NO   OCC          E(Eh)            E(eV) 
   0   2.0000     -18.921973      -514.8931 
   1   2.0000     -10.102740      -274.9095 
   2   2.0000     -10.068068      -273.9661 
   3   2.0000     -10.046136      -273.3693 
   4   2.0000     -10.041948      -273.2553 
   5   2.0000     -10.038471      -273.1607 
   6   2.0000     -10.038410      -273.1590 
   7   2.0000     -10.036442      -273.1055 
   8   2.0000     -10.029213      -272.9087 
   9   2.0000     -10.018607      -272.6201 
  10   2.0000     -10.018428      -272.6153 
  11   2.0000      -0.991952       -26.9924 
  12   2.0000      -0.822548       -22.3827 
  13   2.0000      -0.779514       -21.2117 
  14   2.0000      -0.728219       -19.8158 
  15   2.0000      -0.698642       -19.0110 
  16   2.0000      -0.667845       -18.1730 
  17   2.0000      -0.653129       -17.7725 
  18   2.0000      -0.595556       -16.2059 
  19   2.0000      -0.551739       -15.0136 
  20   2.0000      -0.526448       -14.3254 
  21   2.0000      -0.476292       -12.9606 
  22   2.0000      -0.458523       -12.4770 
  23   2.0000      -0.442118       -12.0306 
  24   2.0000      -0.421166       -11.4605 
  25   2.0000      -0.418182       -11.3793 
  26   2.0000      -0.410836       -11.1794 
  27   2.0000      -0.390829       -10.6350 
  28   2.0000      -0.387598       -10.5471 
  29   2.0000      -0.377484       -10.2719 
  30   2.0000      -0.365027        -9.9329 
  31   2.0000      -0.358807        -9.7636 
  32   2.0000      -0.354993        -9.6599 
  33   2.0000      -0.350175        -9.5288 
  34   2.0000      -0.339037        -9.2257 
  35   2.0000      -0.326878        -8.8948 
  36   2.0000      -0.311667        -8.4809 
  37   2.0000      -0.300123        -8.1667 
  38   2.0000      -0.287082        -7.8119 
  39   2.0000      -0.280836        -7.6419 
  40   2.0000      -0.241844        -6.5809 
  41   2.0000      -0.201576        -5.4852 
  42   0.0000      -0.075645        -2.0584 
  43   0.0000       0.034820         0.9475 
  44   0.0000       0.064373         1.7517 
  45   0.0000       0.089603         2.4382 
  46   0.0000       0.101012         2.7487 
  47   0.0000       0.109190         2.9712 
  48   0.0000       0.114884         3.1261 
  49   0.0000       0.116800         3.1783 
  50   0.0000       0.122008         3.3200 
  51   0.0000       0.132600         3.6082 
  52   0.0000       0.136824         3.7232 
*Only the first 10 virtual orbitals were printed.

                    ********************************
                    * MULLIKEN POPULATION ANALYSIS *
                    ********************************

-----------------------
MULLIKEN ATOMIC CHARGES
-----------------------
   0 C :   -0.515937
   1 C :    0.189237
   2 C :   -0.294111
   3 C :    0.155894
   4 O :   -0.343479
   5 C :   -0.012699
   6 H :    0.177970
   7 C :   -0.420564
   8 C :   -0.257135
   9 C :   -0.052362
  10 C :   -0.499401
  11 C :   -0.560486
  12 H :    0.168117
  13 H :    0.157921
  14 H :    0.160067
  15 H :    0.168188
  16 H :    0.163998
  17 H :    0.167590
  18 H :    0.178280
  19 H :    0.161270
  20 H :    0.186672
  21 H :    0.151995
  22 H :    0.151299
  23 H :    0.149348
  24 H :    0.169265
  25 H :    0.145130
  26 H :    0.153932
Sum of atomic charges:   -0.0000000

--------------------------------
MULLIKEN REDUCED ORBITAL CHARGES
--------------------------------
  0 C s       :     3.366139  s :     3.366139
      pz      :     1.062768  p :     3.122586
      px      :     0.939225
      py      :     1.120592
      dz2     :     0.004105  d :     0.027211
      dxz     :     0.005970
      dyz     :     0.005422
      dx2y2   :     0.005674
      dxy     :     0.006040

  1 C s       :     3.141136  s :     3.141136
      pz      :     0.886185  p :     2.620991
      px      :     0.829189
      py      :     0.905617
      dz2     :     0.004897  d :     0.048636
      dxz     :     0.006315
      dyz     :     0.008943
      dx2y2   :     0.013969
      dxy     :     0.014512

  2 C s       :     3.197203  s :     3.197203
      pz      :     1.017767  p :     3.062408
      px      :     1.039672
      py      :     1.004969
      dz2     :     0.003299  d :     0.034500
      dxz     :     0.004102
      dyz     :     0.005140
      dx2y2   :     0.010955
      dxy     :     0.011004

  3 C s       :     3.222440  s :     3.222440
      pz      :     0.753802  p :     2.527411
      px      :     0.927524
      py      :     0.846086
      dz2     :     0.006616  d :     0.094254
      dxz     :     0.008986
      dyz     :     0.017152
      dx2y2   :     0.031495
      dxy     :     0.030005

  4 O s       :     3.832732  s :     3.832732
      pz      :     1.410830  p :     4.484767
      px      :     1.695170
      py      :     1.378767
      dz2     :     0.003669  d :     0.025979
      dxz     :     0.002127
      dyz     :     0.010115
      dx2y2   :     0.002644
      dxy     :     0.007424

  5 C s       :     3.043340  s :     3.043340
      pz      :     1.069050  p :     2.925804
      px      :     0.964061
      py      :     0.892693
      dz2     :     0.008947  d :     0.043556
      dxz     :     0.008858
      dyz     :     0.005033
      dx2y2   :     0.007686
      dxy     :     0.013032

  6 H s       :     0.804495  s :     0.804495
      pz      :     0.009452  p :     0.017534
      px      :     0.004699
      py      :     0.003384

  7 C s       :     3.329971  s :     3.329971
      pz      :     1.011052  p :     3.053929
      px      :     1.016246
      py      :     1.026631
      dz2     :     0.008478  d :     0.036663
      dxz     :     0.009272
      dyz     :     0.003184
      dx2y2   :     0.005440
      dxy     :     0.010290

  8 C s       :     3.206230  s :     3.206230
      pz      :     1.037922  p :     3.013256
      px      :     0.995803
      py      :     0.979531
      dz2     :     0.008922  d :     0.037650
      dxz     :     0.007542
      dyz     :     0.004861
      dx2y2   :     0.005126
      dxy     :     0.011199

  9 C s       :     3.112335  s :     3.112335
      pz      :     0.886815  p :     2.893628
      px      :     0.931518
      py      :     1.075295
      dz2     :     0.012275  d :     0.046399
      dxz     :     0.011324
      dyz     :     0.005342
      dx2y2   :     0.007978
      dxy     :     0.009479

 10 C s       :     3.350407  s :     3.350407
      pz      :     1.095999  p :     3.121799
      px      :     1.021013
      py      :     1.004787
      dz2     :     0.006424  d :     0.027195
      dxz     :     0.006636
      dyz     :     0.001715
      dx2y2   :     0.007068
      dxy     :     0.005351

 11 C s       :     3.376526  s :     3.376526
      pz      :     0.982641  p :     3.156828
      px      :     1.110174
      py      :     1.064012
      dz2     :     0.007062  d :     0.027132
      dxz     :     0.007369
      dyz     :     0.003789
      dx2y2   :     0.004336
      dxy     :     0.004576

 12 H s       :     0.813530  s :     0.813530
      pz      :     0.006544  p :     0.018353
      px      :     0.006238
      py      :     0.005572

 13 H s       :     0.823747  s :     0.823747
      pz      :     0.009094  p :     0.018332
      px      :     0.003556
      py      :     0.005682

 14 H s       :     0.821806  s :     0.821806
      pz      :     0.003813  p :     0.018126
      px      :     0.004835
      py      :     0.009478

 15 H s       :     0.812314  s :     0.812314
      pz      :     0.004073  p :     0.019497
      px      :     0.005800
      py      :     0.009624

 16 H s       :     0.817813  s :     0.817813
      pz      :     0.003512  p :     0.018189
      px      :     0.006362
      py      :     0.008315

 17 H s       :     0.814715  s :     0.814715
      pz      :     0.009287  p :     0.017695
      px      :     0.004933
      py      :     0.003474

 18 H s       :     0.803292  s :     0.803292
      pz      :     0.009364  p :     0.018428
      px      :     0.005045
      py      :     0.004019

 19 H s       :     0.820868  s :     0.820868
      pz      :     0.003917  p :     0.017862
      px      :     0.006142
      py      :     0.007802

 20 H s       :     0.795900  s :     0.795900
      pz      :     0.003173  p :     0.017428
      px      :     0.004208
      py      :     0.010047

 21 H s       :     0.829776  s :     0.829776
      pz      :     0.010166  p :     0.018229
      px      :     0.004284
      py      :     0.003779

 22 H s       :     0.830416  s :     0.830416
      pz      :     0.006142  p :     0.018285
      px      :     0.008394
      py      :     0.003749

 23 H s       :     0.832287  s :     0.832287
      pz      :     0.003757  p :     0.018365
      px      :     0.004449
      py      :     0.010159

 24 H s       :     0.812303  s :     0.812303
      pz      :     0.004131  p :     0.018432
      px      :     0.008243
      py      :     0.006058

 25 H s       :     0.836448  s :     0.836448
      pz      :     0.003869  p :     0.018421
      px      :     0.004186
      py      :     0.010366

 26 H s       :     0.827846  s :     0.827846
      pz      :     0.006374  p :     0.018222
      px      :     0.007768
      py      :     0.004080


------------------------
MULLIKEN OVERLAP CHARGES
------------------------
B(  0-C ,  1-C ) :   0.2085 B(  0-C ,  2-C ) :   0.0705 B(  0-C ,  8-C ) :  -0.1174 
B(  0-C , 12-H ) :   0.8505 B(  0-C , 13-H ) :   0.8035 B(  0-C , 14-H ) :   0.8654 
B(  1-C ,  2-C ) :  -0.6237 B(  1-C ,  3-C ) :   0.3633 B(  1-C ,  4-O ) :   0.0611 
B(  1-C ,  5-C ) :   0.1615 B(  1-C ,  7-C ) :   0.1059 B(  1-C ,  8-C ) :  -0.3741 
B(  1-C , 12-H ) :  -0.1135 B(  1-C , 13-H ) :  -0.0536 B(  1-C , 14-H ) :  -0.1464 
B(  1-C , 15-H ) :  -0.1531 B(  1-C , 16-H ) :   0.0509 B(  1-C , 18-H ) :  -0.0523 
B(  1-C , 19-H ) :  -0.1019 B(  2-C ,  3-C ) :  -0.1638 B(  2-C ,  4-O ) :  -0.2801 
B(  2-C ,  5-C ) :  -0.5396 B(  2-C ,  8-C ) :   0.3197 B(  2-C , 15-H ) :   0.8573 
B(  3-C ,  4-O ) :   1.2109 B(  3-C ,  5-C ) :   0.2562 B(  3-C ,  6-H ) :  -0.0889 
B(  3-C ,  7-C ) :   0.0568 B(  3-C ,  8-C ) :  -0.1519 B(  3-C ,  9-C ) :   0.0607 
B(  4-O ,  5-C ) :  -0.2564 B(  5-C ,  6-H ) :   0.8910 B(  5-C ,  7-C ) :  -0.4790 
B(  5-C ,  9-C ) :   0.0980 B(  5-C , 10-C ) :  -0.2229 B(  5-C , 11-C ) :  -0.1285 
B(  5-C , 16-H ) :  -0.0895 B(  5-C , 17-H ) :  -0.0917 B(  5-C , 20-H ) :  -0.1213 
B(  5-C , 23-H ) :  -0.0503 B(  6-H ,  7-C ) :  -0.1141 B(  6-H ,  9-C ) :  -0.0564 
B(  7-C ,  8-C ) :  -0.2196 B(  7-C ,  9-C ) :  -0.0605 B(  7-C , 16-H ) :   0.8912 
B(  7-C , 17-H ) :   0.8147 B(  7-C , 19-H ) :  -0.1211 B(  8-C ,  9-C ) :   0.0561 
B(  8-C , 16-H ) :  -0.1480 B(  8-C , 18-H ) :   0.7973 B(  8-C , 19-H ) :   0.8524 
B(  9-C , 10-C ) :   0.4607 B(  9-C , 11-C ) :   0.3385 B(  9-C , 20-H ) :   0.8882 
B(  9-C , 21-H ) :  -0.1169 B(  9-C , 22-H ) :  -0.0951 B(  9-C , 23-H ) :  -0.0732 
B(  9-C , 24-H ) :  -0.1159 B(  9-C , 25-H ) :  -0.1110 B( 10-C , 11-C ) :  -0.1975 
B( 10-C , 21-H ) :   0.8353 B( 10-C , 22-H ) :   0.8069 B( 10-C , 23-H ) :   0.8763 
B( 11-C , 20-H ) :  -0.0520 B( 11-C , 24-H ) :   0.8321 B( 11-C , 25-H ) :   0.8611 
B( 11-C , 26-H ) :   0.7702 B( 12-H , 13-H ) :  -0.0514 B( 24-H , 25-H ) :  -0.0506 



                     *******************************
                     * LOEWDIN POPULATION ANALYSIS *
                     *******************************

----------------------
LOEWDIN ATOMIC CHARGES
----------------------
   0 C :   -0.386436
   1 C :   -0.064907
   2 C :   -0.170831
   3 C :    0.226206
   4 O :   -0.471281
   5 C :   -0.191857
   6 H :    0.187460
   7 C :   -0.275082
   8 C :   -0.277753
   9 C :   -0.215142
  10 C :   -0.412301
  11 C :   -0.406702
  12 H :    0.169159
  13 H :    0.167795
  14 H :    0.163019
  15 H :    0.182543
  16 H :    0.162447
  17 H :    0.166184
  18 H :    0.176198
  19 H :    0.166394
  20 H :    0.175999
  21 H :    0.155485
  22 H :    0.156363
  23 H :    0.149176
  24 H :    0.162588
  25 H :    0.148778
  26 H :    0.156498

-------------------------------
LOEWDIN REDUCED ORBITAL CHARGES
-------------------------------
  0 C s       :     2.956954  s :     2.956954
      pz      :     1.134619  p :     3.365786
      px      :     1.073496
      py      :     1.157670
      dz2     :     0.009719  d :     0.063696
      dxz     :     0.013632
      dyz     :     0.013290
      dx2y2   :     0.013107
      dxy     :     0.013948

  1 C s       :     2.890286  s :     2.890286
      pz      :     0.905360  p :     3.075382
      px      :     1.046110
      py      :     1.123912
      dz2     :     0.008786  d :     0.099239
      dxz     :     0.011830
      dyz     :     0.016719
      dx2y2   :     0.030637
      dxy     :     0.031268

  2 C s       :     2.906165  s :     2.906165
      pz      :     1.030671  p :     3.187206
      px      :     1.053272
      py      :     1.103264
      dz2     :     0.006385  d :     0.077459
      dxz     :     0.008042
      dyz     :     0.010246
      dx2y2   :     0.025804
      dxy     :     0.026983

  3 C s       :     2.806570  s :     2.806570
      pz      :     0.765768  p :     2.764289
      px      :     0.987119
      py      :     1.011402
      dz2     :     0.015204  d :     0.202935
      dxz     :     0.017184
      dyz     :     0.031787
      dx2y2   :     0.071327
      dxy     :     0.067432

  4 O s       :     3.555401  s :     3.555401
      pz      :     1.410721  p :     4.673395
      px      :     1.708327
      py      :     1.554347
      dz2     :     0.028374  d :     0.242485
      dxz     :     0.018325
      dyz     :     0.042995
      dx2y2   :     0.079372
      dxy     :     0.073419

  5 C s       :     2.896307  s :     2.896307
      pz      :     1.105852  p :     3.206564
      px      :     1.063842
      py      :     1.036870
      dz2     :     0.018998  d :     0.088987
      dxz     :     0.019533
      dyz     :     0.008645
      dx2y2   :     0.014818
      dxy     :     0.026993

  6 H s       :     0.768851  s :     0.768851
      pz      :     0.023558  p :     0.043689
      px      :     0.011958
      py      :     0.008172

  7 C s       :     2.919141  s :     2.919141
      pz      :     1.102576  p :     3.276081
      px      :     1.079536
      py      :     1.093970
      dz2     :     0.018796  d :     0.079860
      dxz     :     0.020912
      dyz     :     0.005594
      dx2y2   :     0.011091
      dxy     :     0.023466

  8 C s       :     2.913153  s :     2.913153
      pz      :     1.116496  p :     3.283431
      px      :     1.087991
      py      :     1.078944
      dz2     :     0.018727  d :     0.081169
      dxz     :     0.017711
      dyz     :     0.009578
      dx2y2   :     0.010158
      dxy     :     0.024996

  9 C s       :     2.900945  s :     2.900945
      pz      :     1.057720  p :     3.219188
      px      :     1.044871
      py      :     1.116598
      dz2     :     0.025567  d :     0.095009
      dxz     :     0.023477
      dyz     :     0.009452
      dx2y2   :     0.016006
      dxy     :     0.020508

 10 C s       :     2.968250  s :     2.968250
      pz      :     1.150639  p :     3.380123
      px      :     1.110238
      py      :     1.119246
      dz2     :     0.015796  d :     0.063929
      dxz     :     0.015751
      dyz     :     0.003596
      dx2y2   :     0.015907
      dxy     :     0.012879

 11 C s       :     2.964625  s :     2.964625
      pz      :     1.080970  p :     3.378337
      px      :     1.153307
      py      :     1.144059
      dz2     :     0.016596  d :     0.063740
      dxz     :     0.016818
      dyz     :     0.007845
      dx2y2   :     0.011099
      dxy     :     0.011382

 12 H s       :     0.787135  s :     0.787135
      pz      :     0.016033  p :     0.043706
      px      :     0.014573
      py      :     0.013100

 13 H s       :     0.788563  s :     0.788563
      pz      :     0.022351  p :     0.043642
      px      :     0.007866
      py      :     0.013425

 14 H s       :     0.793553  s :     0.793553
      pz      :     0.008361  p :     0.043428
      px      :     0.011115
      py      :     0.023952

 15 H s       :     0.772629  s :     0.772629
      pz      :     0.009108  p :     0.044827
      px      :     0.013106
      py      :     0.022614

 16 H s       :     0.793184  s :     0.793184
      pz      :     0.008185  p :     0.044369
      px      :     0.015602
      py      :     0.020582

 17 H s       :     0.790579  s :     0.790579
      pz      :     0.023079  p :     0.043237
      px      :     0.011865
      py      :     0.008293

 18 H s       :     0.778572  s :     0.778572
      pz      :     0.023758  p :     0.045230
      px      :     0.012118
      py      :     0.009354

 19 H s       :     0.790149  s :     0.790149
      pz      :     0.009411  p :     0.043457
      px      :     0.015210
      py      :     0.018836

 20 H s       :     0.779743  s :     0.779743
      pz      :     0.007900  p :     0.044258
      px      :     0.010539
      py      :     0.025818

 21 H s       :     0.801014  s :     0.801014
      pz      :     0.025341  p :     0.043501
      px      :     0.009687
      py      :     0.008473

 22 H s       :     0.799969  s :     0.799969
      pz      :     0.014763  p :     0.043668
      px      :     0.020485
      py      :     0.008420

 23 H s       :     0.806874  s :     0.806874
      pz      :     0.008288  p :     0.043950
      px      :     0.010490
      py      :     0.025172

 24 H s       :     0.792944  s :     0.792944
      pz      :     0.009595  p :     0.044469
      px      :     0.020173
      py      :     0.014701

 25 H s       :     0.807246  s :     0.807246
      pz      :     0.008855  p :     0.043976
      px      :     0.009464
      py      :     0.025657

 26 H s       :     0.799904  s :     0.799904
      pz      :     0.015363  p :     0.043598
      px      :     0.019218
      py      :     0.009016


---------------------------------
LOEWDIN BOND ORDERS (THRESH 0.050000)
---------------------------------
B(  0-C ,  1-C ) :   1.1302 B(  0-C ,  2-C ) :   0.1020 B(  0-C ,  8-C ) :   0.0804 
B(  0-C , 12-H ) :   0.9035 B(  0-C , 13-H ) :   0.9044 B(  0-C , 14-H ) :   0.9164 
B(  1-C ,  2-C ) :   1.7719 B(  1-C ,  3-C ) :   0.1128 B(  1-C ,  4-O ) :   0.1049 
B(  1-C ,  7-C ) :   0.0667 B(  1-C ,  8-C ) :   1.0818 B(  1-C , 15-H ) :   0.0584 
B(  2-C ,  3-C ) :   1.0625 B(  2-C ,  4-O ) :   0.2266 B(  2-C ,  5-C ) :   0.0789 
B(  2-C ,  8-C ) :   0.0848 B(  2-C , 15-H ) :   0.8510 B(  3-C ,  4-O ) :   2.2992 
B(  3-C ,  5-C ) :   0.9333 B(  3-C ,  7-C ) :   0.0620 B(  3-C ,  9-C ) :   0.0748 
B(  4-O ,  5-C ) :   0.2127 B(  4-O ,  9-C ) :   0.0519 B(  5-C ,  6-H ) :   0.8270 
B(  5-C ,  7-C ) :   1.0601 B(  5-C ,  8-C ) :   0.0535 B(  5-C ,  9-C ) :   1.0141 
B(  5-C , 10-C ) :   0.0682 B(  5-C , 11-C ) :   0.0571 B(  7-C ,  8-C ) :   1.0895 
B(  7-C ,  9-C ) :   0.0524 B(  7-C , 16-H ) :   0.8777 B(  7-C , 17-H ) :   0.8809 
B(  8-C , 18-H ) :   0.8595 B(  8-C , 19-H ) :   0.8732 B(  9-C , 10-C ) :   1.1084 
B(  9-C , 11-C ) :   1.1048 B(  9-C , 20-H ) :   0.8427 B( 10-C , 11-C ) :   0.0726 
B( 10-C , 21-H ) :   0.9229 B( 10-C , 22-H ) :   0.9198 B( 10-C , 23-H ) :   0.9210 
B( 11-C , 24-H ) :   0.9097 B( 11-C , 25-H ) :   0.9184 B( 11-C , 26-H ) :   0.9202 


------------------------------------------
LOEWDIN REDUCED ORBITAL POPULATIONS PER MO
-------------------------------------------
THRESHOLD FOR PRINTING IS 0.1%%
                      0         1         2         3         4         5   
                 -18.92197 -10.10274 -10.06807 -10.04614 -10.04195 -10.03847
                   2.00000   2.00000   2.00000   2.00000   2.00000   2.00000
                  --------  --------  --------  --------  --------  --------
 0 C  s               0.0       0.0       0.0       0.0      99.7       0.0
 1 C  s               0.0       0.0      99.5       0.0       0.0       0.0
 2 C  py              0.0       0.0       0.1       0.0       0.0       0.0
 3 C  s               0.0      99.2       0.0       0.0       0.0       0.0
 4 O  s              99.9       0.0       0.0       0.0       0.0       0.0
 4 O  py              0.0       0.2       0.0       0.0       0.0       0.0
 4 O  dx2y2           0.0       0.1       0.0       0.0       0.0       0.0
 4 O  dxy             0.0       0.1       0.0       0.0       0.0       0.0
 8 C  s               0.0       0.0       0.0      99.7       0.0       0.0
 9 C  s               0.0       0.0       0.0       0.0       0.0      99.6

                      6         7         8         9        10        11   
                 -10.03841 -10.03644 -10.02921 -10.01861 -10.01843  -0.99195
                   2.00000   2.00000   2.00000   2.00000   2.00000   2.00000
                  --------  --------  --------  --------  --------  --------
 1 C  s               0.0       0.0       0.0       0.0       0.0       0.1
 1 C  py              0.0       0.0       0.1       0.0       0.0       0.1
 2 C  s               0.0       0.0      99.6       0.0       0.0       1.3
 2 C  pz              0.0       0.0       0.0       0.0       0.0       0.3
 2 C  px              0.0       0.0       0.0       0.0       0.0       1.7
 2 C  py              0.0       0.0       0.0       0.0       0.0       0.3
 3 C  s               0.0       0.0       0.0       0.0       0.0      17.7
 3 C  pz              0.0       0.0       0.0       0.0       0.0       0.2
 3 C  px              0.0       0.0       0.1       0.0       0.0       1.7
 3 C  py              0.0       0.1       0.0       0.0       0.0      10.7
 3 C  dz2             0.0       0.0       0.0       0.0       0.0       0.5
 3 C  dx2y2           0.0       0.0       0.0       0.0       0.0       0.6
 3 C  dxy             0.0       0.0       0.0       0.0       0.0       0.5
 4 O  s               0.0       0.0       0.0       0.0       0.0      52.6
 4 O  pz              0.0       0.0       0.0       0.0       0.0       0.1
 4 O  px              0.0       0.0       0.0       0.0       0.0       0.9
 4 O  py              0.0       0.0       0.0       0.0       0.0       5.3
 4 O  dz2             0.0       0.0       0.0       0.0       0.0       0.2
 4 O  dx2y2           0.0       0.0       0.0       0.0       0.0       0.2
 4 O  dxy             0.0       0.0       0.0       0.0       0.0       0.2
 5 C  s               0.1      99.5       0.0       0.0       0.0       1.2
 5 C  px              0.0       0.0       0.0       0.0       0.0       0.3
 5 C  py              0.1       0.0       0.0       0.0       0.0       1.7
 7 C  s              99.5       0.1       0.0       0.0       0.0       0.1
 7 C  py              0.0       0.1       0.0       0.0       0.0       0.2
 9 C  s               0.0       0.1       0.0       0.0       0.0       0.1
 9 C  px              0.0       0.0       0.0       0.0       0.0       0.2
 9 C  py              0.0       0.0       0.0       0.0       0.0       0.1
10 C  s               0.0       0.0       0.0       0.0      99.7       0.0
11 C  s               0.0       0.0       0.0      99.7       0.0       0.0
15 H  s               0.0       0.0       0.0       0.0       0.0       0.1

                     12        13        14        15        16        17   
                  -0.82255  -0.77951  -0.72822  -0.69864  -0.66785  -0.65313
                   2.00000   2.00000   2.00000   2.00000   2.00000   2.00000
                  --------  --------  --------  --------  --------  --------
 0 C  s               5.3       5.3       9.3       5.1      16.0       1.1
 0 C  pz              0.3       0.2       0.0       0.0       0.1       0.0
 0 C  px              1.8       0.8       0.2       0.0       0.8       0.1
 0 C  py              0.0       0.0       0.1       0.5       0.0       0.0
 1 C  s              18.3       8.3       3.3       0.0       0.4       0.2
 1 C  pz              0.1       0.1       0.6       0.9       1.1       0.2
 1 C  px              0.5       0.4       3.7       2.0       8.3       0.5
 1 C  py              0.1       0.1       1.9      12.7       0.0       0.1
 1 C  dz2             0.1       0.0       0.0       0.0       0.0       0.0
 1 C  dx2y2           0.0       0.0       0.0       0.0       0.2       0.0
 1 C  dxy             0.0       0.0       0.1       0.2       0.0       0.0
 2 C  s               9.3       3.1       1.9      16.5       2.5       0.6
 2 C  pz              0.1       0.2       0.3       0.2       0.0       0.0
 2 C  px              0.0       0.8       1.0       1.1       0.0       0.0
 2 C  py              3.4       0.8       0.1       0.3       0.1       0.0
 3 C  s               1.8       0.1       0.1       6.0       0.2       0.0
 3 C  pz              0.2       0.1       0.3       0.6       0.7       0.0
 3 C  px              0.8       2.5       0.3       4.0       2.8       0.5
 3 C  py              4.3       1.6       0.5       4.9       1.5       0.3
 3 C  dx2y2           0.0       0.0       0.0       0.2       0.0       0.0
 4 O  s               1.6       0.3       0.0       3.5       0.1       0.0
 4 O  px              0.0       0.1       0.0       0.4       0.1       0.0
 4 O  py              0.2       0.1       0.0       0.9       0.2       0.0
 4 O  dz2             0.1       0.0       0.0       0.3       0.0       0.0
 4 O  dx2y2           0.0       0.1       0.0       0.1       0.2       0.0
 4 O  dxy             0.0       0.1       0.0       0.5       0.1       0.0
 5 C  s               6.8      10.3       2.2       2.4      10.1       0.5
 5 C  pz              0.3       0.7       0.9       0.0       0.8       0.3
 5 C  px              0.6       1.7       3.2       0.7       0.0       0.2
 5 C  py              0.5       0.2       1.5       1.7       0.0       0.2
 6 H  s               0.7       1.4       0.4       0.4       2.8       0.0
 6 H  pz              0.0       0.1       0.0       0.0       0.2       0.0
 7 C  s               9.2       1.9      14.8       1.7       0.6       0.0
 7 C  pz              1.0       0.0       0.1       0.5       1.2       0.0
 7 C  px              0.3       1.7       0.2       1.0       2.8       0.0
 7 C  py              0.6       0.7       0.0       1.8       1.4       0.1
 8 C  s              13.5       0.9       5.3       9.8       5.7       0.2
 8 C  pz              0.2       0.3       1.6       0.0       0.2       0.0
 8 C  px              0.0       1.6       2.6       0.1       0.0       0.0
 8 C  py              2.0       0.5       0.4       0.7       0.0       0.0
 9 C  s               2.9      19.0       6.1       0.2       0.0       0.0
 9 C  pz              0.1       0.0       1.2       0.4       5.3       6.1
 9 C  px              0.5       0.1       1.2       0.7       0.8       6.9
 9 C  py              0.1       0.4       0.2       0.3       0.2       2.0
 9 C  dz2             0.0       0.0       0.0       0.0       0.0       0.2
 9 C  dxz             0.0       0.0       0.0       0.0       0.1       0.0
 9 C  dxy             0.0       0.0       0.0       0.0       0.0       0.1
10 C  s               0.7       7.9       5.9       1.2       0.4      25.2
10 C  pz              0.0       0.2       0.2       0.0       0.3       0.4
10 C  px              0.3       1.4       0.2       0.0       0.0       0.4
10 C  py              0.1       0.9       0.3       0.0       0.0       0.2
11 C  s               0.9       7.5       5.8       0.8       7.9      17.6
11 C  pz              0.4       2.1       0.4       0.0       0.1       0.4
11 C  px              0.0       0.2       0.3       0.0       0.0       0.4
12 H  s               0.6       0.7       1.6       1.2       4.0       0.3
12 H  pz              0.0       0.0       0.1       0.0       0.1       0.0
12 H  px              0.0       0.0       0.1       0.0       0.1       0.0
13 H  s               0.6       0.7       1.6       1.3       3.9       0.3
13 H  pz              0.0       0.0       0.1       0.1       0.2       0.0
14 H  s               0.6       0.7       1.8       0.8       3.9       0.3
14 H  py              0.0       0.1       0.1       0.1       0.3       0.0
15 H  s               0.9       0.4       0.4       2.7       0.4       0.1
15 H  py              0.0       0.0       0.0       0.2       0.0       0.0
16 H  s               1.0       0.3       2.4       0.5       0.1       0.0
16 H  py              0.0       0.0       0.1       0.0       0.0       0.0
17 H  s               1.0       0.2       2.6       0.3       0.2       0.0
17 H  pz              0.1       0.0       0.2       0.0       0.0       0.0
18 H  s               1.5       0.1       0.8       2.2       1.6       0.0
18 H  pz              0.1       0.0       0.1       0.2       0.1       0.0
19 H  s               1.5       0.2       0.9       2.6       1.2       0.0
19 H  py              0.1       0.0       0.0       0.1       0.1       0.0
20 H  s               0.3       2.4       1.0       0.0       0.0       0.0
20 H  py              0.0       0.2       0.1       0.0       0.0       0.0
21 H  s               0.1       1.0       0.9       0.2       0.0       6.4
21 H  pz              0.0       0.1       0.1       0.0       0.0       0.5
22 H  s               0.1       1.0       1.0       0.2       0.1       5.8
22 H  pz              0.0       0.0       0.0       0.0       0.0       0.2
22 H  px              0.0       0.1       0.1       0.0       0.0       0.3
23 H  s               0.1       1.0       0.9       0.2       0.1       5.8
23 H  py              0.0       0.1       0.1       0.0       0.0       0.4
24 H  s               0.1       0.9       0.8       0.1       1.7       4.7
24 H  px              0.0       0.0       0.0       0.0       0.1       0.2
24 H  py              0.0       0.0       0.0       0.0       0.0       0.1
25 H  s               0.1       0.9       0.9       0.2       1.9       3.9
25 H  py              0.0       0.1       0.1       0.0       0.1       0.3
26 H  s               0.1       1.0       1.0       0.2       1.9       4.0
26 H  pz              0.0       0.0       0.0       0.0       0.1       0.1
26 H  px              0.0       0.0       0.1       0.0       0.1       0.2

                     18        19        20        21        22        23   
                  -0.59556  -0.55174  -0.52645  -0.47629  -0.45852  -0.44212
                   2.00000   2.00000   2.00000   2.00000   2.00000   2.00000
                  --------  --------  --------  --------  --------  --------
 0 C  s               1.5       2.3       0.5       0.0       0.3       0.1
 0 C  pz              0.1       0.8       0.3       0.4       1.9       0.3
 0 C  px              1.0       3.4       2.0       0.1       1.0       3.1
 0 C  py              0.4       1.4       0.0       0.7       0.0      10.3
 1 C  s               1.1       6.1       3.5       0.5       0.0       0.6
 1 C  pz              0.0       0.1       0.0       2.1       0.5       0.1
 1 C  px              1.0       0.0       0.1       0.2       3.8       0.1
 1 C  py              5.3       4.1       0.2       1.0       0.2      10.7
 2 C  s               1.9       0.1       2.3       1.3       0.7       0.0
 2 C  pz              0.0       2.4       0.1       1.0       0.2       1.4
 2 C  px              0.3      12.3       0.3       2.7       2.8       4.0
 2 C  py              1.1       3.9       7.2       5.0       5.4       1.9
 2 C  dx2y2           0.0       0.4       0.1       0.0       0.0       0.0
 3 C  s               0.2       8.8       0.0       0.8       0.0       0.0
 3 C  pz              0.1       0.2       1.9       0.0       2.2       0.3
 3 C  px              3.3       2.4       3.7       0.0       0.0       8.4
 3 C  py              1.4       2.6       1.3       0.7       0.2       1.8
 3 C  dx2y2           0.0       0.1       0.1       0.0       0.1       0.0
 4 O  s               0.3       4.1       0.2       0.1       0.9       0.0
 4 O  pz              0.0       0.1       0.6       0.0       0.4       0.1
 4 O  px              0.4       1.5       1.0       0.0       0.2       4.6
 4 O  py              0.4       3.1       0.0       0.4       1.2       0.9
 4 O  dz2             0.0       0.2       0.0       0.0       0.1       0.0
 4 O  dyz             0.0       0.1       0.2       0.0       0.1       0.0
 4 O  dx2y2           0.3       0.2       0.3       0.1       0.0       0.4
 4 O  dxy             0.2       0.8       0.1       0.0       0.0       0.4
 5 C  s               2.1       0.1       1.7       2.3       0.4       0.0
 5 C  pz              0.6       0.1       3.5       0.3      12.0       0.5
 5 C  px              2.2       4.1       2.5       3.6       1.4       0.5
 5 C  py              6.7       2.9       0.2       1.4       2.2       7.2
 5 C  dxy             0.1       0.2       0.0       0.0       0.0       0.0
 6 H  s               0.7       0.2       1.6       2.4       6.1       0.1
 6 H  pz              0.1       0.0       0.0       0.1       0.2       0.0
 7 C  s              13.4       1.0       0.3       0.9       0.1       0.0
 7 C  pz              2.1       0.7       0.6       3.4       7.3       2.1
 7 C  px              0.4       0.8       0.3       6.6       1.2       3.3
 7 C  py              1.3       0.1       3.9       0.2       0.5       1.3
 8 C  s               4.1       1.5       0.9       0.9       0.4       0.5
 8 C  pz              3.9       0.5       0.2       9.4       1.4       0.4
 8 C  px              3.8       0.0       0.8       1.2       7.7       6.7
 8 C  py              0.2       1.7       4.6       4.2       6.7       3.3
 9 C  s               2.1       2.7       8.9       1.1       0.2       0.4
 9 C  pz              1.9       0.4       0.0       2.7       0.3       0.0
 9 C  px              0.5       0.1       0.2       4.0       1.8       0.1
 9 C  py              2.2       0.4       2.2       3.4       1.8       4.6
10 C  s               1.1       2.1       2.2       0.0       0.0       0.3
10 C  pz              0.0       0.0       0.2       1.3       0.2       0.1
10 C  px              0.2       1.3       2.0       0.7       0.5       4.5
10 C  py              0.8       1.1       3.6       1.8       0.8       0.0
10 C  dxy             0.0       0.0       0.1       0.0       0.0       0.0
11 C  s               2.8       0.5       2.6       0.1       0.6       0.0
11 C  pz              1.0       0.9       5.2       0.6       3.3       0.5
11 C  px              0.0       0.1       0.4       2.9       1.2       0.2
11 C  py              0.3       0.1       0.8       2.3       0.4       1.3
11 C  dz2             0.0       0.0       0.1       0.0       0.0       0.0
12 H  s               0.4       1.8       0.4       0.4       0.0       0.2
13 H  s               0.3       2.1       0.4       0.0       0.8       0.3
14 H  s               1.1       0.7       0.7       0.1       0.4       5.7
14 H  py              0.1       0.1       0.0       0.0       0.0       0.1
15 H  s               1.3       0.1       3.2       4.9       4.0       0.0
15 H  px              0.0       0.0       0.1       0.0       0.0       0.0
15 H  py              0.1       0.0       0.1       0.2       0.1       0.0
16 H  s               5.8       0.7       0.7       0.2       0.1       0.0
16 H  px              0.2       0.0       0.0       0.0       0.0       0.0
16 H  py              0.3       0.0       0.0       0.0       0.0       0.0
17 H  s               5.1       0.5       0.0       3.9       2.1       0.1
17 H  pz              0.3       0.0       0.0       0.2       0.0       0.0
17 H  px              0.1       0.0       0.0       0.0       0.0       0.0
18 H  s               1.7       1.2       0.5       6.9       0.2       1.0
18 H  pz              0.1       0.1       0.1       0.2       0.0       0.1
19 H  s               1.5       1.2       1.2       0.4       6.7       0.2
19 H  py              0.1       0.0       0.0       0.0       0.2       0.0
20 H  s               1.2       1.2       5.1       3.1       0.5       0.7
20 H  py              0.1       0.1       0.3       0.2       0.0       0.0
21 H  s               0.2       0.8       1.3       0.2       0.2       0.7
22 H  s               0.5       1.3       1.4       0.5       0.1       1.2
23 H  s               0.7       1.0       1.9       0.6       0.4       0.0
24 H  s               0.7       0.3       1.4       0.3       0.1       0.5
25 H  s               1.2       0.4       2.2       1.8       0.0       0.2
25 H  py              0.1       0.0       0.1       0.0       0.0       0.0
26 H  s               1.1       0.2       1.5       0.1       2.3       0.1

                     24        25        26        27        28        29   
                  -0.42117  -0.41818  -0.41084  -0.39083  -0.38760  -0.37748
                   2.00000   2.00000   2.00000   2.00000   2.00000   2.00000
                  --------  --------  --------  --------  --------  --------
 0 C  s               0.2       0.0       0.0       0.0       0.0       0.0
 0 C  pz              2.5      14.7       2.3       1.9      23.4       0.0
 0 C  px              9.3       7.2       1.5       3.9       0.0       0.4
 0 C  py              0.0       0.3       2.5       0.2       0.3      16.7
 0 C  dyz             0.0       0.1       0.0       0.0       0.1       0.0
 0 C  dx2y2           0.1       0.0       0.0       0.0       0.1       0.0
 0 C  dxy             0.0       0.0       0.0       0.0       0.0       0.1
 1 C  s               1.2       0.2       0.0       0.3       0.0       0.0
 1 C  pz              1.0       9.7       1.4       1.1       0.1       0.2
 1 C  px              6.8       0.7       0.2       1.7       3.0       0.7
 1 C  py              0.0       0.3       0.4       0.5       0.6       3.1
 1 C  dyz             0.0       0.0       0.0       0.0       0.0       0.1
 1 C  dx2y2           0.0       0.0       0.0       0.0       0.1       0.1
 1 C  dxy             0.0       0.0       0.0       0.0       0.0       0.5
 2 C  s               0.5       0.0       0.1       0.2       0.1       1.2
 2 C  pz              0.4       1.3       0.0       0.5       0.1       0.0
 2 C  px              0.0       1.1       0.5       1.3       0.2       0.5
 2 C  py              0.1       0.1       0.0       6.7       1.5       4.9
 2 C  dxy             0.1       0.0       0.0       0.2       0.0       0.0
 3 C  s               2.4       0.1       0.5       0.8       0.0       0.2
 3 C  pz              1.1       0.7       4.3       0.7       0.0       0.0
[...]
22 H  s               0.6       0.7       0.1       0.0       0.0       0.0
22 H  pz              0.7       1.0       0.1       0.0       0.0       0.0
22 H  px              0.7       1.0       0.1       0.1       0.0       0.0
23 H  s               0.7       0.0       0.0       0.2       0.1       0.0
23 H  px              0.1       0.0       0.0       0.2       0.0       0.1
23 H  py              1.4       0.0       0.0       0.5       0.3       0.1
24 H  s               1.9       0.6       0.0       1.0       0.4       0.0
24 H  pz              0.5       0.0       0.0       0.2       0.3       0.0
24 H  px              2.4       1.3       0.0       1.4       0.3       0.0
24 H  py              1.3       0.4       0.0       0.8       0.5       0.0
25 H  s               0.7       0.8       0.1       0.9       0.3       0.0
25 H  pz              0.1       0.1       0.1       0.1       0.0       0.0
25 H  px              0.5       0.1       0.0       0.2       0.2       0.0
25 H  py              1.8       1.6       0.1       1.7       0.4       0.0
26 H  s               1.9       0.0       0.7       0.0       0.2       0.1
26 H  pz              1.0       0.0       0.5       0.0       0.1       0.0
26 H  px              3.0       0.1       1.2       0.0       0.3       0.1
26 H  py              0.9       0.0       0.1       0.0       0.0       0.0

                    282       283       284       285       286       287   
                   4.42306  21.67440  21.97069  22.00110  22.05228  22.10415
                   0.00000   0.00000   0.00000   0.00000   0.00000   0.00000
                  --------  --------  --------  --------  --------  --------
 0 C  s               0.0      15.1      54.2      22.6       0.6       0.7
 1 C  s               0.0      49.1       1.1       1.7       1.0       2.5
 2 C  s               0.0      28.7       5.2       6.1       0.3       4.2
 2 C  py              0.2       0.1       0.0       0.0       0.0       0.0
 2 C  dxy             0.2       0.0       0.0       0.0       0.0       0.0
 3 C  s               6.2       1.7       1.5       1.3       1.6       0.0
 3 C  pz              0.2       0.0       0.0       0.0       0.0       0.0
 3 C  px              1.1       0.0       0.0       0.0       0.0       0.0
 3 C  py              6.9       0.0       0.0       0.0       0.0       0.0
 3 C  dz2             1.4       0.0       0.0       0.0       0.0       0.0
 3 C  dyz             0.3       0.0       0.0       0.0       0.0       0.0
 3 C  dx2y2           2.7       0.0       0.0       0.0       0.0       0.0
 3 C  dxy             2.3       0.0       0.0       0.0       0.0       0.0
 4 O  s              19.4       0.0       0.0       0.0       0.0       0.0
 4 O  pz              0.5       0.0       0.0       0.0       0.0       0.0
 4 O  px              3.1       0.0       0.0       0.0       0.0       0.0
 4 O  py             19.0       0.0       0.0       0.0       0.0       0.0
 4 O  dz2             7.2       0.0       0.0       0.0       0.0       0.0
 4 O  dxz             0.3       0.0       0.0       0.0       0.0       0.0
 4 O  dyz             2.0       0.0       0.0       0.0       0.0       0.0
 4 O  dx2y2          13.1       0.0       0.0       0.0       0.0       0.0
 4 O  dxy            12.4       0.0       0.0       0.0       0.0       0.0
 5 C  s               0.1       0.1       0.4       0.0       1.3       1.6
 7 C  s               0.0       2.4       2.4       0.6      22.6      53.3
 8 C  s               0.0       1.1       0.1       2.1       2.2       6.5
 9 C  s               0.1       0.0       1.9      12.2       7.2       7.1
 9 C  px              0.1       0.0       0.0       0.0       0.0       0.0
10 C  s               0.0       0.1      21.7      46.0      20.0       3.3
11 C  s               0.0       1.4      11.0       6.9      42.9      20.4
15 H  s               0.1       0.0       0.0       0.0       0.0       0.0
15 H  py              0.1       0.0       0.0       0.0       0.0       0.0

                    288       289       290       291       292       293   
                  22.14893  22.16123  22.19166  22.23827  22.31196  43.69366
                   0.00000   0.00000   0.00000   0.00000   0.00000   0.00000
                  --------  --------  --------  --------  --------  --------
 0 C  s               5.3       0.1       0.0       0.9       0.0       0.0
 1 C  s               7.9       2.8       5.3      18.8       9.5       0.0
 2 C  s               3.6       0.6       1.1      24.0      25.7       0.0
 3 C  s              11.9      12.5      46.0       2.3      20.2       0.0
 4 O  s               0.0       0.1       0.1       0.0       0.0      99.9
 5 C  s               0.1      18.7      26.4      23.6      27.5       0.0
 7 C  s               0.9      10.6       0.1       4.6       2.2       0.0
 8 C  s              49.0      30.4       5.2       0.5       2.5       0.0
 9 C  s               6.5      22.0      12.3      20.8       9.7       0.0
10 C  s               0.1       1.1       0.6       4.1       2.3       0.0
11 C  s              14.0       0.7       2.3       0.0       0.0       0.0



                      *****************************
                      * MAYER POPULATION ANALYSIS *
                      *****************************

  NA   - Mulliken gross atomic population
  ZA   - Total nuclear charge
  QA   - Mulliken gross atomic charge
  VA   - Mayer's total valence
  BVA  - Mayer's bonded valence
  FA   - Mayer's free valence

  ATOM       NA         ZA         QA         VA         BVA        FA
  0 C      6.5159     6.0000    -0.5159     3.8296     3.8296    -0.0000
  1 C      5.8108     6.0000     0.1892     3.2432     3.2432     0.0000
  2 C      6.2941     6.0000    -0.2941     3.7853     3.7853    -0.0000
  3 C      5.8441     6.0000     0.1559     4.0613     4.0613    -0.0000
  4 O      8.3435     8.0000    -0.3435     2.0150     2.0150     0.0000
  5 C      6.0127     6.0000    -0.0127     3.2882     3.2882    -0.0000
  6 H      0.8220     1.0000     0.1780     0.9551     0.9551     0.0000
  7 C      6.4206     6.0000    -0.4206     3.7582     3.7582     0.0000
  8 C      6.2571     6.0000    -0.2571     3.6282     3.6282    -0.0000
  9 C      6.0524     6.0000    -0.0524     3.4783     3.4783     0.0000
 10 C      6.4994     6.0000    -0.4994     3.7658     3.7658    -0.0000
 11 C      6.5605     6.0000    -0.5605     3.7467     3.7467     0.0000
 12 H      0.8319     1.0000     0.1681     0.9553     0.9553    -0.0000
 13 H      0.8421     1.0000     0.1579     0.9587     0.9587    -0.0000
 14 H      0.8399     1.0000     0.1601     0.9635     0.9635    -0.0000
 15 H      0.8318     1.0000     0.1682     0.9641     0.9641    -0.0000
 16 H      0.8360     1.0000     0.1640     0.9577     0.9577    -0.0000
 17 H      0.8324     1.0000     0.1676     0.9528     0.9528    -0.0000
 18 H      0.8217     1.0000     0.1783     0.9562     0.9562     0.0000
 19 H      0.8387     1.0000     0.1613     0.9589     0.9589    -0.0000
 20 H      0.8133     1.0000     0.1867     0.9508     0.9508    -0.0000
 21 H      0.8480     1.0000     0.1520     0.9637     0.9637    -0.0000
 22 H      0.8487     1.0000     0.1513     0.9624     0.9624    -0.0000
 23 H      0.8507     1.0000     0.1493     0.9645     0.9645     0.0000
 24 H      0.8307     1.0000     0.1693     0.9585     0.9585    -0.0000
 25 H      0.8549     1.0000     0.1451     0.9619     0.9619     0.0000
 26 H      0.8461     1.0000     0.1539     0.9629     0.9629     0.0000

  Mayer bond orders larger than 0.100000
B(  0-C ,  1-C ) :   0.8360 B(  0-C , 12-H ) :   0.9674 B(  0-C , 13-H ) :   0.9609 
B(  0-C , 14-H ) :   0.9932 B(  1-C ,  2-C ) :   1.6472 B(  1-C ,  8-C ) :   0.8586 
B(  2-C ,  3-C ) :   1.1243 B(  2-C , 15-H ) :   0.9468 B(  3-C ,  4-O ) :   1.9219 
B(  3-C ,  5-C ) :   0.9182 B(  5-C ,  6-H ) :   0.9701 B(  5-C ,  7-C ) :   0.8546 
B(  5-C ,  9-C ) :   0.8625 B(  7-C ,  8-C ) :   0.9037 B(  7-C , 16-H ) :   0.9957 
B(  7-C , 17-H ) :   0.9878 B(  8-C , 18-H ) :   0.9552 B(  8-C , 19-H ) :   0.9716 
B(  9-C , 10-C ) :   0.8806 B(  9-C , 11-C ) :   0.8621 B(  9-C , 20-H ) :   0.9605 
B( 10-C , 21-H ) :   0.9826 B( 10-C , 22-H ) :   0.9716 B( 10-C , 23-H ) :   0.9860 
B( 11-C , 24-H ) :   0.9726 B( 11-C , 25-H ) :   0.9837 B( 11-C , 26-H ) :   0.9643 


-------
TIMINGS
-------

Total SCF time: 0 days 0 hours 1 min 0 sec 

Total time                  ....      60.498 sec
Sum of individual times     ....      60.429 sec  ( 99.9%)

SCF preparation             ....       1.402 sec  (  2.3%)
Fock matrix formation       ....      55.267 sec  ( 91.4%)
  Startup                   ....       0.014 sec  (  0.0% of F)
  Split-RI-J                ....      14.895 sec  ( 27.0% of F)
  XC integration            ....      40.144 sec  ( 72.6% of F)
    XC Preparation          ....       0.000 sec  (  0.0% of XC)
    Basis function eval.    ....       6.837 sec  ( 17.0% of XC)
    Density eval.           ....      14.689 sec  ( 36.6% of XC)
    XC-Functional eval.     ....       3.988 sec  (  9.9% of XC)
    XC-Potential eval.      ....      12.346 sec  ( 30.8% of XC)
Diagonalization             ....       0.000 sec  (  0.0%)
Density matrix formation    ....       0.083 sec  (  0.1%)
Total Energy calculation    ....       0.009 sec  (  0.0%)
Population analysis         ....       3.146 sec  (  5.2%)
Orbital Transformation      ....       0.054 sec  (  0.1%)
Orbital Orthonormalization  ....       0.000 sec  (  0.0%)
DIIS solution               ....       0.373 sec  (  0.6%)
  MO trafo                  ....       0.000 sec  (  0.0 % of DIIS)
  Orb grad                  ....       0.000 sec  (  0.0 % of DIIS)
  Energy W gradient         ....       0.000 sec  (  0.0 % of DIIS)
  DIIS error                ....       0.053 sec  ( 14.3 % of DIIS)
  DIIS work                 ....       0.285 sec  ( 76.5 % of DIIS)
  Form Q                    ....       0.000 sec  (  0.0 % of DIIS)
  Form QpQm                 ....       0.000 sec  (  0.0 % of DIIS)
  Exp/Cayley                ....       0.000 sec  (  0.0 % of DIIS)
  Orb update                ....       0.000 sec  (  0.0 % of DIIS)
  Wake-sleep                ....       0.007 sec  (  1.8 % of DIIS)
SOSCF solution              ....       0.093 sec  (  0.2%)
  MO trafo                  ....       0.051 sec  ( 54.8 % of SOSCF)
  Orb grad                  ....       0.000 sec  (  0.5 % of SOSCF)
  Rot update                ....       0.007 sec  (  8.0 % of SOSCF)
  Step                      ....       0.034 sec  ( 36.6 % of SOSCF)
Finished LeanSCF after  63.1 sec

Maximum memory used throughout the entire LEANSCF-calculation: 37.3 MB


-------------------------------------------------------------------------------
                          DFT DISPERSION CORRECTION                            
                                                                               
                                DFTD4 V3.4.0                                   
-------------------------------------------------------------------------------
The R2SCAN3C composite method is recognized
Using three-body term ABC
Active option DFTDOPT                   ...         5   

-------------------------   ----------------
Dispersion correction           -0.009899913
-------------------------   ----------------

------------------   -----------------
gCP correction             0.011626430
------------------   -----------------

-------------------------   --------------------
FINAL SINGLE POINT ENERGY      -465.791305753237
-------------------------   --------------------


------------------------------------------------------------------------------
                              ORCA PROPERTY CALCULATIONS
------------------------------------------------------------------------------

GBWName                                 ... sp.gbw
Number of atoms                         ...     27
Number of basis functions               ...    294
Max core memory                         ...   1024 MB

Electric properties:
Dipole moment                           ... YES
Quadrupole moment                       ...  NO
Static polarizability (Dipole/Dipole)   ...  NO
Static polarizability (Dipole/Quad.)    ...  NO
Static polarizability (Quad./Quad.)     ...  NO
Static polarizability (Velocity)        ...  NO

Atomic electric properties:
Dipole moment                           ...  NO
Quadrupole moment                       ...  NO
Static polarizability                   ...  NO

Choice of electric origin               ... Center of mass
Position of electric origin             ...    -0.000001    -0.000024     0.000009

General magnetic properties:
Magnetizability                         ...  NO

EPR properties:
g-Tensor (aka g-matrix)                 ...  NO
Zero-Field splitting spin-orbit         ...  NO
Zero-field splitting spin-spin          ...  NO
Hyperfine couplings                     ...  NO (   0 nuclei)
Quadrupole couplings                    ...  NO (   0 nuclei)
Contact density                         ...  NO (   0 nuclei)

NMR properties:
Chemical shifts                         ...  NO (   0 nuclei)
Spin-rotation constants                 ...  NO (   0 nuclei)
Spin-spin couplings                     ...  NO (   0 nuclei,    0 pairs)

Choice of magnetic origin               ... GIAO
Position of magnetic origin             ...     0.000000     0.000000     0.000000

Properties with geometric perturbations:
SCF Hessian                             ...  NO
IR spectrum                             ...  NO
VCD spectrum                            ...  NO
X-ray spectroscopy properties:
SCF XES/XAS/RIXS spectra                ...  NO


-------------
DIPOLE MOMENT
-------------

Method             : SCF
Type of density    : Electron Density
Multiplicity       :   1
Irrep              :   0
Energy             :  -465.7930322706806692 Eh
Relativity type    : 
Basis              : AO
                                X                 Y                 Z
Electronic contribution:      2.894351936       8.070197929      -3.931974079
Nuclear contribution   :     -2.256841903      -9.499198665       4.313813471
                        -----------------------------------------
Total Dipole Moment    :      0.637510032      -1.429000736       0.381839392
                        -----------------------------------------
Magnitude (a.u.)       :      1.610671743
Magnitude (Debye)      :      4.094002216



--------------------
Rotational spectrum 
--------------------
 
Rotational constants in cm-1:             0.055462             0.027968             0.023254 
Rotational constants in MHz :          1662.707213           838.466615           697.129203 

Dipole components along the rotational axes: 
x,y,z [a.u.] :     0.608634    -1.490596     0.044182 
x,y,z [Debye]:     1.547026    -3.788793     0.112302 

 

Dipole moment calculation done in   0.7 sec 

Maximum memory used throughout the entire PROP-calculation: 23.1 MB

--------------------------------
SUGGESTED CITATIONS FOR THIS RUN
--------------------------------

Below you find a list of papers that are relevant to this ORCA run
We neither can nor want to force you to cite these papers, but we appreciate if you do
You receive ORCA, which is the product of decades of hard work by many enthusiastic individuals, for free
The only thing we kindly ask in return is that you cite our papers,
We deeply appreciate it, if you show your appreciation for ORCA by not just citing the generic ORCA reference.

Please note that relegating all ORCA citations to the supporting information does *not* help us.
SI sections are not indexed - citations you put there will not count into any citation statistics
But we need these citations in order to attract the funding resources that allow us to do what we are doing

Therefore, if you are a happy ORCA user, please consider citing a few of the papers listed below in the main body of your paper

In addition to the list printed below, the program has created the file sp.bibtex that contains the list in bibtex format
You can import this file easily into all common literature databanks and citation aid programs


List of essential papers. We consider these as the minimum necessary citations

  1. Neese,F.
     Software update: the ORCA program system, version 5.0
     WIRES Comput. Molec. Sci., 2022 12(1)e1606
     doi.org/10.1002/wcms.1606
  2. Grimme,S.; Hansen,A.; Ehlert,S.; Mewes,J.
     r2SCAN-3c: A 'Swiss army knife' composite electronic-structure method
     J. Chem. Phys., 2021 154 064103
     doi.org/10.1063/5.0040021

List of papers to cite with high priority. The work reported in these papers was absolutely
necessary for this run to complete.
Our perspective: the developers of density functionals and basis sets usually get cited in chemistry papers
Good! But without the algorithms to do something with them, the functionals or basis sets would not do anything.
Hence, in our opinion, the algorithm design and method developments papers are equally worthy of getting cited

  1. Neese,F.
     An improvement of the resolution of the identity approximation for the formation of the Coulomb matrix
     J. Comp. Chem., 2003 24(14)1740-1747
     doi.org/10.1002/jcc.10318
  2. Neese,F.
     The SHARK Integral Generation and Digestion System
     J. Comp. Chem., 2022  1-16
     doi.org/10.1002/jcc.26942
  3. Lehtola,S.; Steigemann,C.; Oliveira,M.; Marques,M.
     Recent developments in Libxc - A comprehensive library of functionals for density functional theory
     Software X, 2018 7 
     doi.org/10.1016/j.softx.2017.11.002
  4. Caldeweyher,E.; Bannwarth,C.; Grimme,S.
     Extension of the D3 dispersion coefficient model
     J. Chem. Phys., 2017 147 034112
     doi.org/10.1063/1.4993215
  5. Caldeweyher,E.; Ehlert,S.; Hansen,A.; Neugebauer,H.; Spicher,S.; Bannwarth,C.; Grimme,S.
     A generally applicable atomic-charge dependent London dispersion correction
     J. Chem. Phys., 2019 150 154122
     doi.org/10.1063/1.5090222
  6. Caldeweyher,E.; Mewes,J.; Ehlert,S.; Grimme,S.
     Extension and evaluation of the D4 London-dispersion model for periodic systems
     Phys. Chem. Chem. Phys., 2020 22(16)8499-8512
     doi.org/10.1039/D0CP00502A
  7. Wittmann,L.; Gordiy,I.; Friede,M.; Helmich-Paris,B.; Grimme,S.; Hansen,A.; Bursch,M.
     Extension of the D3 and D4 London Dispersion Corrections to the full Actinides Series
     Phys. Chem. Chem. Phys., 2024 26(32)21379-21394
     doi.org/https://doi.org/10.1039/D4CP01514B 

List of suggested additional citations. These are papers that are important in the 'surrounding' of 
of this run, or papers that preceded the highly important papers. If you like your results we are grateful for a citation.

  1. Neese,F.
     The ORCA program system
     WIRES Comput. Molec. Sci., 2012 2(1)73-78
     doi.org/10.1002/wcms.81
  2. Neese,F.
     Software update: the ORCA program system, version 4.0
     WIRES Comput. Molec. Sci., 2018 8(1)1-6
     doi.org/10.1002/wcms.1327
  3. Neese,F.; Wennmohs,F.; Becker,U.; Riplinger,C.
     The ORCA quantum chemistry program package
     J. Chem. Phys., 2020 152 Art. No. L224108
     doi.org/10.1063/5.0004608

List of optional additional citations

  1. Neese,F.
     Approximate second-order SCF convergence for spin unrestricted wavefunctions
     Chem. Phys. Lett., 2000 325(1-3)93-98
     doi.org/10.1016/s0009-2614(00)00662-x

Timings for individual modules:

Sum of individual times          ...       65.559 sec (=   1.093 min)
Startup calculation              ...        1.409 sec (=   0.023 min)   2.1 %
SCF iterations                   ...       63.360 sec (=   1.056 min)  96.6 %
Property calculations            ...        0.789 sec (=   0.013 min)   1.2 %
                             ****ORCA TERMINATED NORMALLY****
TOTAL RUN TIME: 0 days 0 hours 1 minutes 8 seconds 197 msec
