
                                 *****************
                                 * O   R   C   A *
                                 *****************

                                            #,                                       
                                            ###                                      
                                            ####                                     
                                            #####                                    
                                            ######                                   
                                           ########,                                 
                                     ,,################,,,,,                         
                               ,,#################################,,                 
                          ,,##########################################,,             
                       ,#########################################, ''#####,          
                    ,#############################################,,   '####,        
                  ,##################################################,,,,####,       
                ,###########''''           ''''###############################       
              ,#####''   ,,,,##########,,,,          '''####'''          '####       
            ,##' ,,,,###########################,,,                        '##       
           ' ,,###''''                  '''############,,,                           
         ,,##''                                '''############,,,,        ,,,,,,###''
      ,#''                                            '''#######################'''  
     '                                                          ''''####''''         
             ,#######,   #######,   ,#######,      ##                                
            ,#'     '#,  ##    ##  ,#'     '#,    #''#        ,####,   ,####,        
            ##       ##  ##   ,#'  ##            #'  '#       #'       #'  '#        
            ##       ##  #######   ##           ,######,      #####,   #    #        
            '#,     ,#'  ##    ##  '#,     ,#' ,#      #,     #,   #   #,  ,#        
             '#######'   ##     ##  '#######'  #'      '#     '####' # '####'        



                #########################################################
                #                        -***-                          #
                #          Department of theory and spectroscopy        #
                #                                                       #
                #                      Frank Neese                      #
                #                                                       #
                #     Directorship, Architecture, Infrastructure        #
                #                    SHARK, DRIVERS                     #
                #        Core code/Algorithms in most modules           #
                #                                                       #
                #        Max Planck Institute fuer Kohlenforschung      #
                #                Kaiser Wilhelm Platz 1                 #
                #                 D-45470 Muelheim/Ruhr                 #
                #                      Germany                          #
                #                                                       #
                #                  All rights reserved                  #
                #                        -***-                          #
                #########################################################


                         Program Version 6.0.1  -  RELEASE   -


 With contributions from (in alphabetic order):
[Max-Planck-Institut fuer Kohlenforschung]                               
  Daniel Aravena         : Magnetic Suceptibility                        
  Michael Atanasov       : Ab Initio Ligand Field Theory (pilot matlab implementation)
  Alexander A. Auer      : GIAO ZORA, VPT2 properties, NMR spectrum      
  Ute Becker             : All parallelization in ORCA, NUMFREQ, NUMCALC 
  Giovanni Bistoni       : ED, misc. LED, open-shell LED, HFLD           
  Martin Brehm           : Molecular dynamics                            
  Dmytro Bykov           : pre 5.0 version of the SCF Hessian            
  Marcos Casanova-Páez   : Triplet and SCS-CIS(D). UHF-(DLPNO)-IP/EA/STEOM-CCSD. UHF-CVS-IP/STEOM-CCSD   
  Vijay G. Chilkuri      : MRCI spin determinant printing, contributions to CSF-ICE 
  Pauline Colinet        : FMM embedding                                 
  Dipayan Datta          : RHF DLPNO-CCSD density                        
  Achintya Kumar Dutta   : EOM-CC, STEOM-CC                              
  Nicolas Foglia         : Exact transition moments, OPA infrastructure, MCD improvements    
  Dmitry Ganyushin       : Spin-Orbit,Spin-Spin,Magnetic field MRCI      
  Miquel Garcia-Rates    : C-PCM and meta-GGA Hessian, CCSD/C-PCM, Gaussian charge scheme 
  Tiago L. C. Gouveia    : GS-ROHF, GS-ROCIS                             
  Yang Guo               : DLPNO-NEVPT2, F12-NEVPT2, CIM, IAO-localization        
  Andreas Hansen         : Spin unrestricted coupled pair/coupled cluster methods 
  Ingolf Harden          : AUTO-CI MPn and infrastructure                
  Benjamin Helmich-Paris : MC-RPA, TRAH-(SCF,CASSCF), AVAS, COSX integrals, SCF dyn. polar. 
  Lee Huntington         : MR-EOM, pCC                                   
  Robert Izsak           : Overlap fitted RIJCOSX, COSX-SCS-MP3, EOM     
  Riya Kayal             : Wick's Theorem for AUTO-CI, AUTO-CI UHF-CCSDT 
  Emily Kempfer          : AUTO-CI, RHF CISDT and CCSDT                  
  Christian Kollmar      : KDIIS, OOCD, Brueckner-CCSD(T), CCSD density, CASPT2, CASPT2-K, improved NEVPT2 
  Axel Koslowski         : Symmetry handling                             
  Simone Kossmann        : meta-GGA functionals, TD-DFT gradient, OOMP2, (MP2 Hessian; deprecated post 5.0) 
  Lucas Lang             : DCDCAS                                        
  Marvin Lechner         : AUTO-CI (C++ implementation), FIC-MRCC        
  Spencer Leger          : CASSCF response                               
  Dagmar Lenk            : GEPOL surface, SMD, ORCA-2-JSON               
  Dimitrios Liakos       : Extrapolation schemes; Compound Job, initial MDCI parallelization 
  Dimitrios Manganas     : Further ROCIS development; embedding schemes. LFT, Crystal Embedding 
  Dimitrios Pantazis     : SARC Basis sets                               
  Anastasios Papadopoulos: AUTO-CI, single reference methods and gradients 
  Taras Petrenko         : pre 6.0 DFT Hessian and TD-DFT gradient, (ASA, deprecated), ECA, 1-Electron XAS/XES, NRVS 
  Peter Pinski           : DLPNO-MP2, DLPNO-MP2 Gradient                 
  Christoph Reimann      : Effective Core Potentials                     
  Marius Retegan         : Local ZFS, SOC                                
  Christoph Riplinger    : Optimizer, TS searches, QM/MM, DLPNO-CCSD(T), (RO)-DLPNO pert. Triples 
  Michael Roemelt        : Original ROCIS implementation                 
  Masaaki Saitow         : Open-shell DLPNO-CCSD energy and density      
  Barbara Sandhoefer     : DKH picture change effects                    
  Kantharuban Sivalingam : CASSCF convergence/infrastructure, NEVPT2 and variants, FIC-MRCI 
  Bernardo de Souza      : ESD, SOC TD-DFT                               
  Georgi L. Stoychev     : AutoAux, RI-MP2 NMR, DLPNO-MP2 response, X2C  
  Van Anh Tran           : RI-MP2 g-tensors                              
  Willem Van den Heuvel  : Paramagnetic NMR                              
  Zikuan Wang            : NOTCH, Electric field optimization            
  Frank Wennmohs         : Technical directorship and infrastructure     
  Hang Xu                : AUTO-CI-Response properties                   
                                                                         
[FACCTs GmbH]                                                            
  Markus Bursch, Miquel Garcia-Rates, Christoph Riplinger, Bernardo de Souza, Georgi L. Stoychev 
                                                                 
  APM, Basis sets (HGBS, AHGBS, def-TZVP (Ac-Lr), def2-XVPD (La-Lu)), CI-OPT, improved COSX, DLPNO-Multilevel,           
  DOCKER, DRACO, updates on ESD, GOAT, IRC, LR-CPCM, MBIS, meta-GGA TD-DFT gradient, ML-optimized integration grids, 
  MM, NACMEs, nearIR, NEB, NEB-TS, NL-DFT gradient (VV10), 2- and 3-layer-ONIOM, interface openCOSMO-RS, QMMM,   
  Crystal-QMMM, SF, symmetry and pop. for TD-DFT, r2SCAN hybrids, SOLVATOR                                   
                                                                         
[Other institutions]                                                     
  V. Asgeirsson          : NEB                                           
  Christoph Bannwarth    : sTDA-DFT, sTD-DFT, PBEh-3c, B97-3c, D3        
  Sebastian Ehlert       : rSCAN, r2SCAN, r2SCAN-3c, D4, dhf basis sets  
  Marvin Friede          : D4 for Fr, Ra, Ac-Lr                          
  Lars Goerigk           : TD-DFT with DH, B97 family of functionals     
  Stefan Grimme          : VdW corrections, initial TS optimization, DFT functionals, gCP, sTDA/sTD-DF 
  Waldemar Hujo          : DFT-NL                                        
  H. Jonsson             : NEB                                           
  Holger Kruse           : gCP                                           
  Marcel Mueller         : wB97X-3c, vDZP basis set                      
  Hagen Neugebauer       : wr2SCAN                                       
  Tobias Risthaus        : range-separated hybrid DFT                    
  Lukas Wittmann         : regularized MP2, r2SCAN double-hybrids, wr2SCAN        
                                                                         
We gratefully acknowledge several colleagues who have allowed us to      
interface, adapt or use parts of their codes:                            
  Ed Valeev, F. Pavosevic, A. Kumar             : LibInt (2-el integral package), F12 methods 
  Garnet Chan, S. Sharma, J. Yang, R. Olivares  : DMRG                   
  Ulf Ekstrom                                   : XCFun DFT Library      
  Mihaly Kallay                                 : mrcc  (arbitrary order and MRCC methods)
  Frank Weinhold                                : gennbo (NPA and NBO analysis)           
  Simon Mueller                                 : openCOSMO-RS                            
  Christopher J. Cramer and Donald G. Truhlar   : smd solvation model                     
  S Lehtola, MJT Oliveira, MAL Marques          : LibXC Library                           
  Liviu Ungur et al                             : ANISO software                          


 Your calculation uses the libint2 library for the computation of 2-el integrals
 For citations please refer to: http://libint.valeyev.net

 Your ORCA version has been built with support for libXC version: 6.2.2
 For citations please refer to: https://libxc.gitlab.io

 This ORCA versions uses:
   CBLAS   interface :  Fast vector & matrix operations
   LAPACKE interface :  Fast linear algebra routines
   SCALAPACK package :  Parallel linear algebra routines
   Shared memory     :  Shared parallel matrices
   BLAS/LAPACK       :  OpenBLAS 0.3.27  USE64BITINT DYNAMIC_ARCH NO_AFFINITY Zen SINGLE_THREADED
        Core in use  :  Zen
   Copyright (c) 2011-2014, The OpenBLAS Project


Your calculation utilizes the geometrical counterpoise correction gCP
Please cite in your paper:
H.Kruse, S. Grimme J.Chem.Phys., 136, (2012), 154101 
   

Your calculation utilizes the atom-pairwise dispersion correction
based on EEQ partial charges (D4)


================================================================================

----- Orbital basis set information -----
Your calculation utilizes the basis: def2-mTZVPP
   Stefan Grimme, Andreas Hansen, Sebastian Ehlert, and Jan-Michael Mewes 
   J. Chem. Phys. 154, 064103 (2021). DOI: 10.1063/5.0040021

----- AuxJ basis set information -----
Your calculation utilizes the auxiliary basis: def2/J
   F. Weigend, Phys. Chem. Chem. Phys. 8, 1057 (2006).

================================================================================
                                        WARNINGS
                       Please study these warnings very carefully!
================================================================================



WARNING: SCAN, rSCAN, or r2SCAN functional requested.
  ===> : libXC variant has now been activated.



================================================================================
                                       INPUT FILE
================================================================================
NAME = sp.inp
|  1> ! r2scan-3c def2/J RI DEFGRID2 scfconv6 printgap
|  2> %output
|  3>     printlevel normal
|  4> end
|  5> * xyz 0 1
|  6> C -1.2692132517 -0.942448659 -0.1085079174
|  7> C -0.4207412679 0.3120512418 -0.3039836488
|  8> C -1.1265247431 1.5630356826 0.2425387953
|  9> C 0.946887392 0.1255063423 0.3692224446
| 10> O 1.6839173444 -0.9489969161 -0.1626677507
| 11> H -2.1941592992 -0.8722091179 -0.6761939994
| 12> H -1.5127460421 -1.0707104992 0.9438922784
| 13> H -0.7207783455 -1.8213359081 -0.4401391486
| 14> H -0.2419363072 0.4386045547 -1.3794282247
| 15> H -2.0854056726 1.3019318114 0.6818476655
| 16> H -1.3057478878 2.290866252 -0.544266839
| 17> H -0.5268609925 2.042649373 1.0127141983
| 18> H 1.5253947174 1.058731442 0.2901241609
| 19> H 0.8126514711 -0.1102419225 1.4276085822
| 20> H 1.7987507733 -0.8036710676 -1.1086397131
| 21> *
| 22> 
| 23>                          ****END OF INPUT****
================================================================================

                       ****************************
                       * Single Point Calculation *
                       ****************************

---------------------------------
CARTESIAN COORDINATES (ANGSTROEM)
---------------------------------
  C     -1.269213   -0.942449   -0.108508
  C     -0.420741    0.312051   -0.303984
  C     -1.126525    1.563036    0.242539
  C      0.946887    0.125506    0.369222
  O      1.683917   -0.948997   -0.162668
  H     -2.194159   -0.872209   -0.676194
  H     -1.512746   -1.070710    0.943892
  H     -0.720778   -1.821336   -0.440139
  H     -0.241936    0.438605   -1.379428
  H     -2.085406    1.301932    0.681848
  H     -1.305748    2.290866   -0.544267
  H     -0.526861    2.042649    1.012714
  H      1.525395    1.058731    0.290124
  H      0.812651   -0.110242    1.427609
  H      1.798751   -0.803671   -1.108640

----------------------------
CARTESIAN COORDINATES (A.U.)
----------------------------
  NO LB      ZA    FRAG     MASS         X           Y           Z
   0 C     6.0000    0    12.011   -2.398465   -1.780970   -0.205050
   1 C     6.0000    0    12.011   -0.795086    0.589691   -0.574446
   2 C     6.0000    0    12.011   -2.128823    2.953709    0.458332
   3 C     6.0000    0    12.011    1.789358    0.237173    0.697729
   4 O     8.0000    0    15.999    3.182143   -1.793344   -0.307397
   5 H     1.0000    0     1.008   -4.146360   -1.648236   -1.277821
   6 H     1.0000    0     1.008   -2.858676   -2.023350    1.783698
   7 H     1.0000    0     1.008   -1.362074   -3.441826   -0.831742
   8 H     1.0000    0     1.008   -0.457193    0.828842   -2.606742
   9 H     1.0000    0     1.008   -3.940846    2.460295    1.288505
  10 H     1.0000    0     1.008   -2.467506    4.329110   -1.028515
  11 H     1.0000    0     1.008   -0.995623    3.860048    1.913752
  12 H     1.0000    0     1.008    2.882578    2.000712    0.548255
  13 H     1.0000    0     1.008    1.535689   -0.208327    2.697789
  14 H     1.0000    0     1.008    3.399146   -1.518718   -2.095025

--------------------------------
INTERNAL COORDINATES (ANGSTROEM)
--------------------------------
 C      0   0   0     0.000000000000     0.00000000     0.00000000
 C      1   0   0     1.527051233576     0.00000000     0.00000000
 C      2   1   0     1.536808109978   111.59426004     0.00000000
 C      2   1   3     1.535712731959   109.81039296   123.02031913
 O      4   2   1     1.407365475953   113.16898228    60.85834434
 H      1   2   3     1.087532193370   110.65149535    63.56528172
 H      1   2   3     1.087798461008   110.18790127   303.20309275
 H      1   2   3     1.087751311871   110.15767207   183.88043126
 H      2   1   3     1.097528127571   108.10026717   239.86038702
 H      3   2   1     1.086563459698   110.69894811     1.25070254
 H      3   2   1     1.086702065663   111.31258928   241.18518102
 H      3   2   1     1.087564277268   110.95251012   120.93614489
 H      4   2   1     1.100834388424   109.48285267   184.17849032
 H      4   2   1     1.092601365128   109.96445337   303.28037719
 H      5   4   2     0.963934267615   108.55246332    57.55388107

---------------------------
INTERNAL COORDINATES (A.U.)
---------------------------
 C      0   0   0     0.000000000000     0.00000000     0.00000000
 C      1   0   0     2.885708623926     0.00000000     0.00000000
 C      2   1   0     2.904146448248   111.59426004     0.00000000
 C      2   1   3     2.902076483778   109.81039296   123.02031913
 O      4   2   1     2.659535319886   113.16898228    60.85834434
 H      1   2   3     2.055138007292   110.65149535    63.56528172
 H      1   2   3     2.055641180206   110.18790127   303.20309275
 H      1   2   3     2.055552081249   110.15767207   183.88043126
 H      2   1   3     2.074027585385   108.10026717   239.86038702
 H      3   2   1     2.053307365955   110.69894811     1.25070254
 H      3   2   1     2.053569293269   111.31258928   241.18518102
 H      3   2   1     2.055198637072   110.95251012   120.93614489
 H      4   2   1     2.080275512923   109.48285267   184.17849032
 H      4   2   1     2.064717353641   109.96445337   303.28037719
 H      5   4   2     1.821571776894   108.55246332    57.55388107

---------------------
BASIS SET INFORMATION
---------------------
There are 3 groups of distinct atoms

 Group   1 Type C   : 11s6p1d contracted to 5s3p1d pattern {62111/411/1}
 Group   2 Type O   : 11s6p2d contracted to 5s3p2d pattern {62111/411/11}
 Group   3 Type H   : 4s1p contracted to 2s1p pattern {31/1}

Atom   0C    basis set group =>   1
Atom   1C    basis set group =>   1
Atom   2C    basis set group =>   1
Atom   3C    basis set group =>   1
Atom   4O    basis set group =>   2
Atom   5H    basis set group =>   3
Atom   6H    basis set group =>   3
Atom   7H    basis set group =>   3
Atom   8H    basis set group =>   3
Atom   9H    basis set group =>   3
Atom  10H    basis set group =>   3
Atom  11H    basis set group =>   3
Atom  12H    basis set group =>   3
Atom  13H    basis set group =>   3
Atom  14H    basis set group =>   3
---------------------------------
AUXILIARY/J BASIS SET INFORMATION
---------------------------------
There are 3 groups of distinct atoms

 Group   1 Type C   : 12s5p4d2f1g contracted to 6s4p3d1f1g pattern {711111/2111/211/2/1}
 Group   2 Type O   : 12s5p4d2f1g contracted to 6s4p3d1f1g pattern {711111/2111/211/2/1}
 Group   3 Type H   : 5s2p1d contracted to 3s1p1d pattern {311/2/1}

Atom   0C    basis set group =>   1
Atom   1C    basis set group =>   1
Atom   2C    basis set group =>   1
Atom   3C    basis set group =>   1
Atom   4O    basis set group =>   2
Atom   5H    basis set group =>   3
Atom   6H    basis set group =>   3
Atom   7H    basis set group =>   3
Atom   8H    basis set group =>   3
Atom   9H    basis set group =>   3
Atom  10H    basis set group =>   3
Atom  11H    basis set group =>   3
Atom  12H    basis set group =>   3
Atom  13H    basis set group =>   3
Atom  14H    basis set group =>   3

Checking for AutoStart:
The File: sp.gbw exists
Trying to determine its content:
     ... Fine, the file contains calculation information
     ... Fine, the calculation information was read
     ... Fine, the file contains a basis set
     ... Fine, the basis set was read
     ... Fine, the file contains a geometry
     ... Fine, the geometry was read
     ... Fine, the file contains a set of orbitals
     ... Fine, the orbitals can be read
     => possible old guess file was deleted
     => GBW file was renamed to GES file
     => GES file is set as startup file
     => Guess is set to MORead
     ... now leaving AutoStart

------------------------------------------------------------------------------
                             ORCA STARTUP CALCULATIONS
                           -- RI-GTO INTEGRALS CHOSEN --
------------------------------------------------------------------------------
------------------------------------------------------------------------------
                   ___                                                        
                  /   \      - P O W E R E D   B Y -                         
                 /     \                                                     
                 |  |  |   _    _      __       _____    __    __             
                 |  |  |  | |  | |    /  \     |  _  \  |  |  /  |          
                  \  \/   | |  | |   /    \    | | | |  |  | /  /          
                 / \  \   | |__| |  /  /\  \   | |_| |  |  |/  /          
                |  |  |   |  __  | /  /__\  \  |    /   |      \           
                |  |  |   | |  | | |   __   |  |    \   |  |\   \          
                \     /   | |  | | |  |  |  |  | |\  \  |  | \   \       
                 \___/    |_|  |_| |__|  |__|  |_| \__\ |__|  \__/        
                                                                              
                      - O R C A' S   B I G   F R I E N D -                    
                                      &                                       
                       - I N T E G R A L  F E E D E R -                       
                                                                              
 v1 FN, 2020, v2 2021, v3 2022-2024                                           
------------------------------------------------------------------------------


----------------------
SHARK INTEGRAL PACKAGE
----------------------

Number of atoms                             ...     15
Number of basis functions                   ...    150
Number of shells                            ...     76
Maximum angular momentum                    ...      2
Integral batch strategy                     ... SHARK/LIBINT Hybrid
RI-J (if used) integral strategy            ... SPLIT-RIJ (Revised 2003 algorithm where possible)
Printlevel                                  ...      1
Contraction scheme used                     ... SEGMENTED contraction
Prescreening option                         ... SCHWARTZ
   Thresh                                   ... 1.000e-10
   Tcut                                     ... 1.000e-11
   Tpresel                                  ... 1.000e-11 
Coulomb Range Separation                    ... NOT USED
Exchange Range Separation                   ... NOT USED
Multipole approximations                    ... NOT USED
Finite Nucleus Model                        ... NOT USED
CABS basis                                  ... NOT available
Auxiliary Coulomb fitting basis             ... AVAILABLE
   # of basis functions in Aux-J            ...    355
   # of shells in Aux-J                     ...    125
   Maximum angular momentum in Aux-J        ...      4
Auxiliary J/K fitting basis                 ... NOT available
Auxiliary Correlation fitting basis         ... NOT available
Auxiliary 'external' fitting basis          ... NOT available

Checking pre-screening integrals            ... done (  0.0 sec) Dimension = 76
Check shell pair data                       ... done (  0.0 sec)
Shell pair information
Shell pair cut-off parameter TPreSel        ...   1.0e-11
Total number of shell pairs                 ...      2926
Shell pairs after pre-screening             ...      2808
Total number of primitive shell pairs       ...     10151
Primitive shell pairs kept                  ...      7411
          la=0 lb=0:    983 shell pairs
          la=1 lb=0:   1078 shell pairs
          la=1 lb=1:    315 shell pairs
          la=2 lb=0:    263 shell pairs
          la=2 lb=1:    148 shell pairs
          la=2 lb=2:     21 shell pairs

Calculating one electron integrals          ... done (  0.0 sec)
Calculating RI/J V-Matrix + Cholesky decomp.... done (  0.0 sec)
Calculating Nuclear repulsion               ... done (  0.0 sec) ENN=    193.487090911995 Eh

Diagonalization of the overlap matrix:
Smallest eigenvalue                        ... 2.392e-04
Time for diagonalization                   ...    0.002 sec
Threshold for overlap eigenvalues          ... 1.000e-07
Number of eigenvalues below threshold      ... 0
Time for construction of square roots      ...    0.003 sec
Total time needed                          ...    0.006 sec

-------------------
DFT GRID GENERATION
-------------------

General Integration Accuracy     IntAcc      ... 4.388
Radial Grid Type                 RadialGrid  ... OptM3 with GC (2021)
Angular Grid (max. ang.)         AngularGrid ... 4 (Lebedev-302)
Angular grid pruning method      GridPruning ... 4 (adaptive)
Weight generation scheme         WeightScheme... mBecke (2022)
Basis function cutoff            BFCut       ... 1.0000e-10
Integration weight cutoff        WCut        ... 1.0000e-14
Partially contracted basis set               ... off
Rotationally invariant grid construction     ... off
Angular grids for H and He will be reduced by one unit
Diffuse basis detected: some atoms will have their outermost
                        angular grid increased by 1.

Total number of grid points                  ...    62615
Total number of batches                      ...      986
Average number of points per batch           ...       63
Average number of grid points per atom       ...     4174
Initializing property integral containers    ... done (  0.0 sec)

SHARK setup successfully completed in   0.5 seconds

Maximum memory used throughout the entire STARTUP-calculation: 27.4 MB
-------------------------------------------------------------------------------
                                 ORCA GUESS
                   Start orbitals & Density for SCF / CASSCF
-------------------------------------------------------------------------------

------------
SCF SETTINGS
------------
Hamiltonian:
 Density Functional     Method          .... DFT(GTOs)
  Functional kind                       .... Exchange
  Functional name                       .... Re-regularized SCAN exchange by Furness et al
  Functional family                     .... MGGA
  Functional refs                              
    [ 0] J. W. Furness, A. D. Kaplan, J. Ning, J. P. Perdew, and J. Sun.,  J. Phys. Chem. Lett. 11, 8208-8215 (2020), doi: 10.1021/acs.jpclett.0c02405
    [ 1] J. W. Furness, A. D. Kaplan, J. Ning, J. P. Perdew, and J. Sun.,  J. Phys. Chem. Lett. 11, 9248-9248 (2020), doi: 10.1021/acs.jpclett.0c03077
  Functional external parameters        .... 6
    Parameter  0 _c1        =  6.670000e-01 : c1 parameter        
    Parameter  1 _c2        =  8.000000e-01 : c2 parameter        
    Parameter  2 _d         =  1.240000e+00 : d parameter         
    Parameter  3 _k1        =  6.500000e-02 : k1 parameter        
    Parameter  4 _eta       =  1.000000e-03 : eta parameter       
    Parameter  5 _dp2       =  3.610000e-01 : dp2 parameter       
  Functional kind                       .... Correlation
  Functional name                       .... Re-regularized SCAN correlation by Furness et al
  Functional family                     .... MGGA
  Functional refs                              
    [ 0] J. W. Furness, A. D. Kaplan, J. Ning, J. P. Perdew, and J. Sun.,  J. Phys. Chem. Lett. 11, 8208-8215 (2020), doi: 10.1021/acs.jpclett.0c02405
    [ 1] J. W. Furness, A. D. Kaplan, J. Ning, J. P. Perdew, and J. Sun.,  J. Phys. Chem. Lett. 11, 9248-9248 (2020), doi: 10.1021/acs.jpclett.0c03077
  Functional external parameters        .... 1
    Parameter  0 _eta       =  1.000000e-03 : Regularization parameter
 Gradients option       PostSCFGGA      .... off
 RI-approximation to the Coulomb term is turned on
   Number of AuxJ basis functions       .... 355


General Settings:
 Integral files         IntName         .... sp
 Hartree-Fock type      HFTyp           .... RHF
 Total Charge           Charge          ....    0
 Multiplicity           Mult            ....    1
 Number of Electrons    NEL             ....   42
 Basis Dimension        Dim             ....  150
 Nuclear Repulsion      ENuc            ....    193.4870909120 Eh

Convergence Acceleration:
 AO-DIIS                CNVDIIS         .... on
   Start iteration      DIISMaxIt       ....    12
   Startup error        DIISStart       ....  0.200000
   # of expansion vecs  DIISMaxEq       ....     5
   Bias factor          DIISBfac        ....   1.050
   Max. coefficient     DIISMaxC        ....  10.000
 MO-DIIS                CNVKDIIS        .... off
 Trust-Rad. Augm. Hess. CNVTRAH         .... auto
   Auto Start mean grad. ratio tolernc. ....  1.125000
   Auto Start start iteration           ....     1
   Auto Start num. interpolation iter.  ....    10
   Max. Number of Micro iterations      ....    24
   Max. Number of Macro iterations      .... Maxiter - #DIIS iter
   Number of Davidson start vectors     ....     2
   Converg. threshold    (grad. norm)   ....   3.330e-04
   Grad. Scal. Fac. for Micro threshold ....   0.100
   Minimum threshold for Micro iter.    ....   1.000e-02
   NR start threshold (gradient norm)   ....   1.000e-04
   Initial trust radius                 ....   0.400
   Minimum AH scaling param. (alpha)    ....   1.000
   Maximum AH scaling param. (alpha)    .... 1000.000
   Quad. conv. algorithm                .... NR
   White noise on init. David. guess    .... on
   Maximum white noise                  ....   0.010
   Pseudo random numbers                .... off
   Inactive MOs                         .... canonical
   Orbital update algorithm             .... Taylor
   Preconditioner                       .... Diag
   Full preconditioner red. dimension   ....   250
   COSX micro iterations for RIJONX calc.... off
 SOSCF                  CNVSOSCF        .... on
   Start iteration      SOSCFMaxIt      ....   150
   Startup grad/error   SOSCFStart      ....  0.003300
   Hessian update       SOSCFHessUp     .... L-BFGS
 Level Shifting         CNVShift        .... on
   Level shift para.    LevelShift      ....    0.2500
   Turn off err/grad.   ShiftErr        ....    0.0010
 Zerner damping         CNVZerner       .... off
 Static damping         CNVDamp         .... on
   Fraction old density DampFac         ....    0.7000
   Max. Damping (<1)    DampMax         ....    0.9800
   Min. Damping (>=0)   DampMin         ....    0.0000
   Turn off err/grad.   DampErr         ....    0.1000

SCF Procedure:
 Maximum # iterations   MaxIter         ....   125
 SCF integral mode      SCFMode         .... Direct
   Integral package                     .... SHARK and LIBINT hybrid scheme
 Reset frequency        DirectResetFreq ....    20
 Integral Threshold     Thresh          ....  1.000e-10 Eh
 Primitive CutOff       TCut            ....  1.000e-11 Eh

Convergence Tolerance:
 Convergence Check Mode ConvCheckMode   .... Total+1el-Energy
 Convergence forced     ConvForced      .... 0
 Energy Change          TolE            ....  1.000e-06 Eh
 1-El. energy change                    ....  1.000e-03 Eh
 Orbital Gradient       TolG            ....  3.330e-04
 Orbital Rotation angle TolX            ....  3.330e-04
 DIIS Error             TolErr          ....  1.000e-06

---------------------
INITIAL GUESS: MOREAD
---------------------
Guess MOs are being read from file: sp.ges
Input Geometry matches current geometry (good)
Atom 0: N(Shells)= 9 and 6 - projection required
Input basis set needs projection
NBasis(read)= 90
NBasis(calc)= 150
Basis set overlap was calculated
Using GuessMode=FMatrix for the initial guess
C*T matrix was formed
Effective Fockian was calculated
Effective Fockian was diagonalized
Initial density was built
                      ------------------
                      INITIAL GUESS DONE (   0.0 sec)
                      ------------------
             **** ENERGY FILE WAS UPDATED (sp.en.tmp) ****
Finished Guess after   0.1 sec
Maximum memory used throughout the entire GUESS-calculation: 10.8 MB

-------------------------------------------------------------------------------------------
                                      ORCA LEAN-SCF
                              memory conserving SCF solver
-------------------------------------------------------------------------------------------

----------------------------------------D-I-I-S--------------------------------------------
Iteration    Energy (Eh)           Delta-E    RMSDP     MaxDP     DIISErr   Damp  Time(sec)
-------------------------------------------------------------------------------------------
               ***  Starting incremental Fock matrix formation  ***
    1    -233.4663096773628297     0.00e+00  3.66e-03  8.10e-02  6.23e-01  0.700   1.0
    2    -233.5061829039101724    -3.99e-02  3.08e-03  6.48e-02  4.38e-01  0.700   0.9
    3    -233.5344553800408960    -2.83e-02  2.29e-03  4.69e-02  3.07e-01  0.700   0.9
    4    -233.5543167823105648    -1.99e-02  1.65e-03  3.32e-02  2.15e-01  0.700   0.8
                               ***Turning on AO-DIIS***
    5    -233.5682560566118298    -1.39e-02  1.20e-03  2.37e-02  1.51e-01  0.700   0.8
    6    -233.5780331670348744    -9.78e-03  8.54e-04  1.67e-02  1.05e-01  0.700   0.8
    7    -233.5848897908188917    -6.86e-03  6.04e-04  1.17e-02  7.37e-02  0.700   0.8
    8    -233.5896960151833639    -4.81e-03  1.42e-03  2.74e-02  5.16e-02  0.000   0.8
                              *** Initializing SOSCF ***
---------------------------------------S-O-S-C-F--------------------------------------
Iteration    Energy (Eh)           Delta-E    RMSDP     MaxDP     MaxGrad    Time(sec)
--------------------------------------------------------------------------------------
    9    -233.6009316319470202    -1.12e-02  1.00e-05  1.84e-04  1.63e-04     1.0
               *** Restarting incremental Fock matrix formation ***
   10    -233.6009317379674997    -1.06e-07  8.12e-06  3.47e-04  2.38e-05     1.0
                  *** Gradient check signals convergence ***

               *****************************************************
               *                     SUCCESS                       *
               *           SCF CONVERGED AFTER  10 CYCLES          *
               *****************************************************

             **** ENERGY FILE WAS UPDATED (sp.en.tmp) ****

----------------
TOTAL SCF ENERGY
----------------

Total Energy       :       -233.60093173796750 Eh           -6356.60452 eV

Components:
Nuclear Repulsion  :        193.48709091199501 Eh            5265.05141 eV
Electronic Energy  :       -427.08802264996251 Eh          -11621.65593 eV
One Electron Energy:       -698.86482982474490 Eh          -19017.07883 eV
Two Electron Energy:        271.77680717478239 Eh            7395.42290 eV

Virial components:
Potential Energy   :       -466.19024427224326 Eh          -12685.68147 eV
Kinetic Energy     :        232.58931253427576 Eh            6329.07696 eV
Virial Ratio       :          2.00434937956809

DFT components:
N(Alpha)           :       20.999958497905 electrons
N(Beta)            :       20.999958497905 electrons
N(Total)           :       41.999916995809 electrons
E(X)               :      -32.660349413969 Eh       
E(C)               :       -1.312587086470 Eh       
E(XC)              :      -33.972936500440 Eh       

---------------
SCF CONVERGENCE
---------------

  Last Energy change         ...    1.0602e-07  Tolerance :   1.0000e-06
  Last MAX-Density change    ...    3.4731e-04  Tolerance :   1.0000e-05
  Last RMS-Density change    ...    8.1202e-06  Tolerance :   1.0000e-06
  Last DIIS Error            ...    1.6260e-04  Tolerance :   1.0000e-06
  Last Orbital Gradient      ...    2.3773e-05  Tolerance :   3.3300e-04
  Last Orbital Rotation      ...    3.8153e-05  Tolerance :   3.3300e-04


----------------
ORBITAL ENERGIES
----------------

  NO   OCC          E(Eh)            E(eV) 
   0   2.0000     -18.947005      -515.5742 
   1   2.0000     -10.071928      -274.0711 
   2   2.0000     -10.036833      -273.1161 
   3   2.0000     -10.020670      -272.6763 
   4   2.0000     -10.013114      -272.4707 
   5   2.0000      -0.986628       -26.8475 
   6   2.0000      -0.766023       -20.8446 
   7   2.0000      -0.652095       -17.7444 
   8   2.0000      -0.639071       -17.3900 
   9   2.0000      -0.545069       -14.8321 
  10   2.0000      -0.465417       -12.6646 
  11   2.0000      -0.439098       -11.9485 
  12   2.0000      -0.412986       -11.2379 
  13   2.0000      -0.384766       -10.4700 
  14   2.0000      -0.366005        -9.9595 
  15   2.0000      -0.358700        -9.7607 
  16   2.0000      -0.331716        -9.0264 
  17   2.0000      -0.309314        -8.4169 
  18   2.0000      -0.302879        -8.2417 
  19   2.0000      -0.281728        -7.6662 
  20   2.0000      -0.234251        -6.3743 
  21   0.0000       0.063676         1.7327 
  22   0.0000       0.089673         2.4401 
  23   0.0000       0.120730         3.2852 
  24   0.0000       0.124470         3.3870 
  25   0.0000       0.133088         3.6215 
  26   0.0000       0.145214         3.9515 
  27   0.0000       0.150165         4.0862 
  28   0.0000       0.154643         4.2080 
  29   0.0000       0.162525         4.4225 
  30   0.0000       0.177270         4.8238 
  31   0.0000       0.196948         5.3592 
*Only the first 10 virtual orbitals were printed.

                    ********************************
                    * MULLIKEN POPULATION ANALYSIS *
                    ********************************

-----------------------
MULLIKEN ATOMIC CHARGES
-----------------------
   0 C :   -0.531527
   1 C :    0.107498
   2 C :   -0.562876
   3 C :   -0.231513
   4 O :   -0.418199
   5 H :    0.148943
   6 H :    0.148968
   7 H :    0.165369
   8 H :    0.130449
   9 H :    0.161508
  10 H :    0.151470
  11 H :    0.158008
  12 H :    0.136306
  13 H :    0.142816
  14 H :    0.292780
Sum of atomic charges:    0.0000000

--------------------------------
MULLIKEN REDUCED ORBITAL CHARGES
--------------------------------
  0 C s       :     3.357138  s :     3.357138
      pz      :     1.081857  p :     3.147348
      px      :     1.053251
      py      :     1.012240
      dz2     :     0.006377  d :     0.027041
      dxz     :     0.005003
      dyz     :     0.003113
      dx2y2   :     0.005810
      dxy     :     0.006739

  1 C s       :     2.994549  s :     2.994549
      pz      :     1.050244  p :     2.853210
      px      :     0.898222
      py      :     0.904743
      dz2     :     0.010648  d :     0.044743
      dxz     :     0.006837
      dyz     :     0.005988
      dx2y2   :     0.010492
      dxy     :     0.010778

  2 C s       :     3.365669  s :     3.365669
      pz      :     1.074482  p :     3.171262
      px      :     1.082207
      py      :     1.014573
      dz2     :     0.002520  d :     0.025945
      dxz     :     0.005266
      dyz     :     0.007535
      dx2y2   :     0.005497
      dxy     :     0.005127

  3 C s       :     3.348377  s :     3.348377
      pz      :     1.002368  p :     2.823241
      px      :     0.920918
      py      :     0.899955
      dz2     :     0.013441  d :     0.059896
      dxz     :     0.007788
      dyz     :     0.007397
      dx2y2   :     0.014998
      dxy     :     0.016272

  4 O s       :     3.758353  s :     3.758353
      pz      :     1.315848  p :     4.646506
      px      :     1.755044
      py      :     1.575614
      dz2     :     0.004207  d :     0.013340
      dxz     :     0.001155
      dyz     :     0.003728
      dx2y2   :     0.001573
      dxy     :     0.002678

  5 H s       :     0.832810  s :     0.832810
      pz      :     0.005593  p :     0.018247
      px      :     0.008980
      py      :     0.003674

  6 H s       :     0.832824  s :     0.832824
      pz      :     0.010418  p :     0.018207
      px      :     0.004057
      py      :     0.003732

  7 H s       :     0.816248  s :     0.816248
      pz      :     0.004174  p :     0.018383
      px      :     0.005765
      py      :     0.008443

  8 H s       :     0.851985  s :     0.851985
      pz      :     0.010638  p :     0.017567
      px      :     0.003489
      py      :     0.003440

  9 H s       :     0.820052  s :     0.820052
      pz      :     0.005030  p :     0.018440
      px      :     0.009415
      py      :     0.003995

 10 H s       :     0.830074  s :     0.830074
      pz      :     0.007381  p :     0.018456
      px      :     0.004010
      py      :     0.007065

 11 H s       :     0.823503  s :     0.823503
      pz      :     0.007420  p :     0.018489
      px      :     0.005850
      py      :     0.005220

 12 H s       :     0.846753  s :     0.846753
      pz      :     0.003190  p :     0.016941
      px      :     0.005045
      py      :     0.008706

 13 H s       :     0.840022  s :     0.840022
      pz      :     0.010965  p :     0.017163
      px      :     0.003244
      py      :     0.002954

 14 H s       :     0.663764  s :     0.663764
      pz      :     0.021663  p :     0.043456
      px      :     0.011856
      py      :     0.009937


------------------------
MULLIKEN OVERLAP CHARGES
------------------------
B(  0-C ,  1-C ) :   0.2915 B(  0-C ,  3-C ) :  -0.1900 B(  0-C ,  5-H ) :   0.8076 
B(  0-C ,  6-H ) :   0.8567 B(  0-C ,  7-H ) :   0.8274 B(  0-C ,  8-H ) :  -0.0710 
B(  1-C ,  2-C ) :   0.0705 B(  1-C ,  3-C ) :   0.3963 B(  1-C ,  4-O ) :  -0.2136 
B(  1-C ,  5-H ) :  -0.0801 B(  1-C ,  6-H ) :  -0.1034 B(  1-C ,  7-H ) :  -0.0774 
B(  1-C ,  8-H ) :   0.8381 B(  1-C ,  9-H ) :  -0.1110 B(  1-C , 11-H ) :  -0.1404 
B(  1-C , 12-H ) :  -0.2172 B(  1-C , 13-H ) :  -0.0753 B(  2-C ,  9-H ) :   0.8545 
B(  2-C , 10-H ) :   0.7811 B(  2-C , 11-H ) :   0.8669 B(  3-C ,  4-O ) :   0.4650 
B(  3-C ,  8-H ) :  -0.0672 B(  3-C , 12-H ) :   0.9019 B(  3-C , 13-H ) :   0.8290 
B(  3-C , 14-H ) :  -0.1069 B(  4-O , 12-H ) :  -0.1009 B(  4-O , 13-H ) :  -0.1103 
B(  4-O , 14-H ) :   0.5874 B( 12-H , 13-H ) :  -0.0572 


                     *******************************
                     * LOEWDIN POPULATION ANALYSIS *
                     *******************************

----------------------
LOEWDIN ATOMIC CHARGES
----------------------
   0 C :   -0.416752
   1 C :   -0.239057
   2 C :   -0.416900
   3 C :   -0.000712
   4 O :   -0.618426
   5 H :    0.151894
   6 H :    0.153992
   7 H :    0.163552
   8 H :    0.152313
   9 H :    0.158003
  10 H :    0.156215
  11 H :    0.157573
  12 H :    0.157223
  13 H :    0.178308
  14 H :    0.262774

-------------------------------
LOEWDIN REDUCED ORBITAL CHARGES
-------------------------------
  0 C s       :     2.971805  s :     2.971805
      pz      :     1.153519  p :     3.381355
      px      :     1.124501
      py      :     1.103335
      dz2     :     0.015801  d :     0.063593
      dxz     :     0.012173
      dyz     :     0.006471
      dx2y2   :     0.012911
      dxy     :     0.016236

  1 C s       :     2.917546  s :     2.917546
      pz      :     1.113689  p :     3.229889
      px      :     1.053391
      py      :     1.062809
      dz2     :     0.024091  d :     0.091622
      dxz     :     0.013909
      dyz     :     0.011063
      dx2y2   :     0.020028
      dxy     :     0.022531

  2 C s       :     2.969279  s :     2.969279
      pz      :     1.151717  p :     3.386561
      px      :     1.134658
      py      :     1.100187
      dz2     :     0.005379  d :     0.061059
      dxz     :     0.013029
      dyz     :     0.018301
      dx2y2   :     0.012485
      dxy     :     0.011866

  3 C s       :     2.873730  s :     2.873730
      pz      :     1.040133  p :     2.992873
      px      :     0.991220
      py      :     0.961520
      dz2     :     0.031752  d :     0.134109
      dxz     :     0.016511
      dyz     :     0.015024
      dx2y2   :     0.033704
      dxy     :     0.037117

  4 O s       :     3.518731  s :     3.518731
      pz      :     1.416987  p :     4.816884
      px      :     1.752964
      py      :     1.646933
      dz2     :     0.081449  d :     0.282812
      dxz     :     0.033113
      dyz     :     0.043898
      dx2y2   :     0.062610
      dxy     :     0.061741

  5 H s       :     0.804408  s :     0.804408
      pz      :     0.013235  p :     0.043698
      px      :     0.021984
      py      :     0.008479

  6 H s       :     0.802575  s :     0.802575
      pz      :     0.026026  p :     0.043433
      px      :     0.009074
      py      :     0.008332

  7 H s       :     0.791768  s :     0.791768
      pz      :     0.009623  p :     0.044680
      px      :     0.013959
      py      :     0.021098

  8 H s       :     0.805099  s :     0.805099
      pz      :     0.025741  p :     0.042588
      px      :     0.008564
      py      :     0.008282

  9 H s       :     0.797854  s :     0.797854
      pz      :     0.011714  p :     0.044143
      px      :     0.023502
      py      :     0.008927

 10 H s       :     0.799778  s :     0.799778
      pz      :     0.018092  p :     0.044006
      px      :     0.008939
      py      :     0.016976

 11 H s       :     0.798221  s :     0.798221
      pz      :     0.018111  p :     0.044206
      px      :     0.014003
      py      :     0.012091

 12 H s       :     0.802680  s :     0.802680
      pz      :     0.007353  p :     0.040098
      px      :     0.012682
      py      :     0.020063

 13 H s       :     0.782363  s :     0.782363
      pz      :     0.025098  p :     0.039328
      px      :     0.007143
      py      :     0.007087

 14 H s       :     0.613568  s :     0.613568
      pz      :     0.065768  p :     0.123658
      px      :     0.030828
      py      :     0.027062


---------------------------------
LOEWDIN BOND ORDERS (THRESH 0.050000)
---------------------------------
B(  0-C ,  1-C ) :   1.1135 B(  0-C ,  2-C ) :   0.0725 B(  0-C ,  3-C ) :   0.0658 
B(  0-C ,  5-H ) :   0.9257 B(  0-C ,  6-H ) :   0.9234 B(  0-C ,  7-H ) :   0.9133 
B(  1-C ,  2-C ) :   1.0883 B(  1-C ,  3-C ) :   1.0095 B(  1-C ,  4-O ) :   0.1700 
B(  1-C ,  8-H ) :   0.8648 B(  2-C ,  3-C ) :   0.0847 B(  2-C ,  9-H ) :   0.9227 
B(  2-C , 10-H ) :   0.9317 B(  2-C , 11-H ) :   0.9196 B(  3-C ,  4-O ) :   1.4568 
B(  3-C , 12-H ) :   0.8307 B(  3-C , 13-H ) :   0.8224 B(  4-O , 12-H ) :   0.1060 
B(  4-O , 13-H ) :   0.0986 B(  4-O , 14-H ) :   0.9771 

------------------------------------------
LOEWDIN REDUCED ORBITAL POPULATIONS PER MO
-------------------------------------------
THRESHOLD FOR PRINTING IS 0.1%%
                      0         1         2         3         4         5   
                 -18.94701 -10.07193 -10.03683 -10.02067 -10.01311  -0.98663
                   2.00000   2.00000   2.00000   2.00000   2.00000   2.00000
                  --------  --------  --------  --------  --------  --------
 0 C  s               0.0       0.0       0.0       0.0      99.7       0.1
 0 C  px              0.0       0.0       0.0       0.0       0.0       0.3
 1 C  s               0.0       0.0      99.7       0.0       0.0       0.9
 1 C  px              0.0       0.1       0.0       0.0       0.0       1.3
 1 C  py              0.0       0.0       0.0       0.1       0.1       0.2
 2 C  s               0.0       0.0       0.0      99.7       0.0       0.1
 3 C  s               0.0      99.4       0.0       0.0       0.0       9.7
 3 C  pz              0.0       0.0       0.0       0.0       0.0       1.8
 3 C  px              0.0       0.0       0.1       0.0       0.0       2.1
 3 C  py              0.0       0.0       0.0       0.0       0.0       4.8
 3 C  dxz             0.0       0.0       0.0       0.0       0.0       0.1
 3 C  dyz             0.0       0.0       0.0       0.0       0.0       0.2
 3 C  dxy             0.0       0.0       0.0       0.0       0.0       0.4
 4 O  s              99.9       0.0       0.0       0.0       0.0      60.1
 4 O  pz              0.0       0.0       0.0       0.0       0.0       0.4
 4 O  px              0.0       0.0       0.0       0.0       0.0       0.5
 4 O  py              0.0       0.1       0.0       0.0       0.0       1.9
 4 O  dxy             0.0       0.1       0.0       0.0       0.0       0.2
12 H  s               0.0       0.0       0.0       0.0       0.0       0.7
13 H  s               0.0       0.0       0.0       0.0       0.0       0.7
14 H  s               0.0       0.0       0.0       0.0       0.0      10.6
14 H  pz              0.0       0.0       0.0       0.0       0.0       2.2

                      6         7         8         9        10        11   
                  -0.76602  -0.65209  -0.63907  -0.54507  -0.46542  -0.43910
                   2.00000   2.00000   2.00000   2.00000   2.00000   2.00000
                  --------  --------  --------  --------  --------  --------
 0 C  s              13.0      24.6       4.2       4.2       0.7       0.6
 0 C  pz              0.0       0.0       0.0       1.3       1.4       7.1
 0 C  px              0.9       0.0       0.7       2.4       0.8       4.0
 0 C  py              2.6       0.7       0.0       3.2       2.2       2.7
 0 C  dxy             0.1       0.0       0.0       0.1       0.0       0.1
 1 C  s              28.7       0.0       0.1      12.3       1.2       0.7
 1 C  pz              0.7       0.4       0.4       5.9       4.8      16.9
 1 C  px              0.4       0.3      11.1       1.7       2.7       0.1
 1 C  py              0.0      15.3       0.2       0.2       0.3       1.4
 1 C  dxz             0.0       0.0       0.2       0.0       0.0       0.0
 1 C  dx2y2           0.0       0.0       0.2       0.0       0.0       0.0
 1 C  dxy             0.0       0.3       0.0       0.0       0.0       0.0
 2 C  s              14.5      20.6       8.3       3.5       0.0       0.1
 2 C  pz              0.3       0.1       0.0       2.4       2.6       5.3
 2 C  px              0.7       0.0       1.1       2.0       1.7       0.1
 2 C  py              2.4       1.1       0.1       2.8       0.2       4.7
 3 C  s               6.1       0.2      22.0       1.4       1.6       0.2
 3 C  pz              0.1       0.0       1.2       6.8       0.2       4.6
 3 C  px              5.5       0.1       0.1       4.5       0.5      13.0
 3 C  py              0.8       0.9       0.7       1.2      20.6       4.5
 3 C  dxz             0.1       0.0       0.0       0.1       0.0       0.0
 3 C  dx2y2           0.1       0.0       0.0       0.1       0.0       0.1
 3 C  dxy             0.0       0.0       0.0       0.0       0.4       0.0
 4 O  s               2.0       0.0       3.2       0.1       1.1       0.6
 4 O  pz              0.5       0.0       8.0      10.7      26.7       0.2
 4 O  px              0.6       0.0       2.8       0.4       5.2       0.1
 4 O  py              0.4       0.0       4.5       0.7       0.5       8.0
 4 O  dz2             0.2       0.0       0.4       0.0       0.2       0.2
 4 O  dxz             0.0       0.0       0.2       0.2       0.0       0.2
 4 O  dyz             0.1       0.0       0.7       0.4       0.1       0.0
 4 O  dx2y2           0.0       0.1       0.2       0.1       0.4       0.8
 4 O  dxy             0.4       0.0       0.9       0.1       0.0       0.0
 5 H  s               1.7       5.6       1.4       2.1       0.3       4.6
 5 H  pz              0.0       0.1       0.0       0.1       0.0       0.0
 5 H  px              0.1       0.3       0.1       0.1       0.0       0.1
 6 H  s               1.7       5.4       1.0       3.3       1.7       0.4
 6 H  pz              0.1       0.4       0.1       0.2       0.1       0.0
 7 H  s               1.6       6.0       0.8       1.7       0.4       1.1
 7 H  px              0.0       0.1       0.0       0.1       0.0       0.1
 7 H  py              0.1       0.3       0.0       0.0       0.0       0.0
 8 H  s               3.8       0.0       0.0       9.1       2.3       3.8
 8 H  pz              0.3       0.0       0.0       0.6       0.1       0.1
 9 H  s               2.1       4.1       2.8       3.0       0.1       0.2
 9 H  px              0.1       0.3       0.2       0.1       0.0       0.0
10 H  s               1.9       5.3       2.3       1.3       0.4       3.6
10 H  pz              0.1       0.2       0.1       0.1       0.0       0.0
10 H  py              0.1       0.2       0.1       0.0       0.0       0.1
11 H  s               2.0       5.6       1.4       2.3       1.3       0.1
11 H  pz              0.1       0.2       0.1       0.0       0.0       0.0
11 H  px              0.0       0.1       0.1       0.1       0.0       0.0
12 H  s               0.8       0.2       5.9       0.5       7.9       6.4
12 H  px              0.0       0.0       0.2       0.0       0.2       0.0
12 H  py              0.0       0.0       0.3       0.0       0.1       0.2
13 H  s               0.9       0.0       6.7       2.9       0.3       2.1
13 H  pz              0.1       0.0       0.5       0.2       0.0       0.1
13 H  py              0.0       0.0       0.0       0.0       0.2       0.0
14 H  s               0.6       0.0       3.7       2.6       7.9       0.1
14 H  pz              0.1       0.0       0.5       0.1       0.2       0.0
14 H  py              0.0       0.0       0.1       0.0       0.0       0.1

                     12        13        14        15        16        17   
                  -0.41299  -0.38477  -0.36600  -0.35870  -0.33172  -0.30931
                   2.00000   2.00000   2.00000   2.00000   2.00000   2.00000
                  --------  --------  --------  --------  --------  --------
 0 C  s               0.0       0.0       0.1       0.0       0.1       0.8
 0 C  pz              0.1       2.9      10.6      22.5       1.3       0.1
 0 C  px              9.4       0.1       4.5       0.7      24.8       3.9
 0 C  py             12.3       2.5       0.3       0.4       2.5      17.6
 0 C  dz2             0.0       0.0       0.1       0.2       0.0       0.0
 0 C  dxz             0.0       0.0       0.0       0.1       0.3       0.0
 0 C  dx2y2           0.0       0.0       0.0       0.0       0.3       0.0
 0 C  dxy             0.0       0.0       0.0       0.0       0.0       0.3
 1 C  s               0.4       0.1       0.3       0.0       0.3       0.0
 1 C  pz              0.1       1.1       1.4       0.1       0.5       0.0
 1 C  px             12.2       0.1       0.1       0.1       2.2       6.6
 1 C  py              2.5       2.4       8.9       0.4       0.1      13.3
 1 C  dxz             0.0       0.1       0.0       0.0       0.1       0.0
 1 C  dyz             0.0       0.0       0.0       0.2       0.0       0.0
 1 C  dx2y2           0.0       0.2       0.0       0.0       0.2       0.1
 1 C  dxy             0.0       0.0       0.0       0.1       0.0       0.3
 2 C  s               0.4       0.0       0.1       0.0       0.0       0.1
 2 C  pz              1.3       6.3       0.0      27.8       1.2       0.0
 2 C  px              1.0      10.4      25.8       4.2       0.1       5.2
 2 C  py             15.5       2.6       0.4       0.7       2.1      11.8
 2 C  dxz             0.1       0.1       0.0       0.0       0.0       0.3
 2 C  dyz             0.0       0.0       0.1       0.3       0.0       0.0
 2 C  dx2y2           0.0       0.1       0.0       0.0       0.0       0.2
 3 C  s               0.1       0.5       0.9       0.1       0.8       0.1
 3 C  pz              4.5      17.3       6.5       0.0       0.0       0.9
 3 C  px              5.0       0.7       0.3       0.1       7.5       2.6
 3 C  py              2.3       0.3       0.3       0.2       3.6       0.5
 3 C  dz2             0.0       0.1       0.3       0.0       0.2       0.0
 3 C  dyz             0.0       0.1       0.0       0.0       0.0       0.0
 3 C  dxy             0.0       0.0       0.4       0.0       0.0       0.1
 4 O  s               0.5       2.5       0.8       0.2       0.8       0.8
 4 O  pz              0.7       1.7       5.5       1.0       5.5       1.0
 4 O  px              8.3       4.6       0.2       0.1      12.2       1.9
 4 O  py              0.0      18.5       0.7       0.1       0.2      10.0
 4 O  dz2             0.2       0.3       0.3       0.0       0.3       0.1
 4 O  dxz             0.0       0.2       0.1       0.1       0.2       0.0
 4 O  dyz             0.2       0.3       0.2       0.0       0.0       0.0
 4 O  dx2y2           0.6       0.1       0.0       0.0       0.1       0.0
 4 O  dxy             0.1       0.1       0.0       0.0       0.5       0.0
 5 H  s               2.2       0.4       0.0       4.9      14.5       0.8
 5 H  pz              0.1       0.0       0.1       0.0       0.1       0.0
 5 H  px              0.0       0.0       0.0       0.2       0.1       0.0
 5 H  py              0.1       0.0       0.0       0.0       0.0       0.2
 6 H  s               0.0       0.7       7.0       9.9       0.1       0.0
 6 H  pz              0.0       0.0       0.2       0.1       0.0       0.0
 6 H  px              0.0       0.0       0.0       0.1       0.2       0.0
 6 H  py              0.1       0.0       0.0       0.0       0.0       0.2
 7 H  s               7.9       1.5       1.0       0.1       7.1       3.4
 7 H  pz              0.0       0.0       0.0       0.1       0.1       0.0
 7 H  px              0.0       0.0       0.0       0.0       0.0       0.1
 7 H  py              0.2       0.0       0.1       0.0       0.1       0.0
 8 H  s               0.0       0.8       0.1       0.0       0.4       0.4
 8 H  py              0.0       0.0       0.1       0.0       0.0       0.1
 9 H  s               0.3       8.6       8.7       0.1       0.6       7.1
 9 H  pz              0.0       0.0       0.1       0.2       0.0       0.0
 9 H  px              0.0       0.2       0.1       0.1       0.0       0.1
 9 H  py              0.1       0.0       0.1       0.0       0.0       0.0
10 H  s               2.0       2.4       0.9      12.0       1.6       2.4
10 H  pz              0.1       0.0       0.0       0.0       0.0       0.1
10 H  px              0.0       0.1       0.2       0.0       0.0       0.1
10 H  py              0.0       0.0       0.0       0.2       0.0       0.0
11 H  s               4.9       0.3       2.8      11.2       0.0       4.5
11 H  pz              0.1       0.1       0.1       0.0       0.0       0.1
11 H  py              0.0       0.0       0.1       0.2       0.0       0.0
12 H  s               2.0       0.2       0.2       0.0       3.9       0.0
12 H  pz              0.0       0.1       0.1       0.0       0.0       0.0
13 H  s               1.0       7.2       6.5       0.2       1.7       0.2
13 H  pz              0.0       0.1       0.1       0.0       0.1       0.0
14 H  s               0.0       0.0       1.7       0.2       0.7       0.4
14 H  px              0.1       0.1       0.0       0.0       0.2       0.0
14 H  py              0.0       0.3       0.0       0.0       0.0       0.1

                     18        19        20        21        22        23   
                  -0.30288  -0.28173  -0.23425   0.06368   0.08967   0.12073
                   2.00000   2.00000   2.00000   0.00000   0.00000   0.00000
                  --------  --------  --------  --------  --------  --------
 0 C  s               0.1       0.3       0.0       1.2       8.1       3.9
 0 C  pz              9.4       0.7       0.3       0.1       0.2       8.4
 0 C  px              2.8       0.1       0.7       0.6       1.6       0.5
 0 C  py              1.2       5.6       1.3       0.5       2.4       4.9
 0 C  dz2             0.3       0.0       0.0       0.0       0.0       0.0
 0 C  dyz             0.2       0.0       0.0       0.1       0.1       0.0
 0 C  dx2y2           0.1       0.1       0.0       0.1       0.0       0.2
 0 C  dxy             0.0       0.1       0.0       0.0       0.4       0.2
 1 C  s               0.3       0.2       0.6       1.8       7.1       1.4
 1 C  pz             16.8       5.4       1.2       3.1       2.8       7.4
 1 C  px              4.1       2.0       7.7       3.8       0.3       4.2
 1 C  py              1.8       6.0       0.0       0.5       0.9       2.8
 1 C  dz2             0.7       0.3       0.0       0.0       0.2       1.9
 1 C  dxz             0.0       0.1       0.1       0.4       0.0       0.1
 1 C  dyz             0.1       0.0       0.0       0.0       0.0       0.0
 1 C  dx2y2           0.1       0.1       0.0       0.1       0.0       0.3
 1 C  dxy             0.1       0.2       0.0       0.1       0.0       0.1
 2 C  s               0.9       0.2       0.0       1.0      22.3       0.3
 2 C  pz              9.2       1.0       0.0       0.3       0.5       3.1
 2 C  px              2.1       1.5       0.8       1.0       0.3       2.4
 2 C  py              5.8       4.5       0.3       0.8       1.6       1.4
 2 C  dz2             0.0       0.0       0.0       0.0       0.0       0.1
 2 C  dxz             0.0       0.0       0.0       0.0       0.1       1.0
 2 C  dyz             0.0       0.2       0.1       0.1       0.3       0.2
 2 C  dx2y2           0.1       0.0       0.0       0.0       0.1       0.7
 2 C  dxy             0.2       0.0       0.0       0.0       0.1       0.3
 3 C  s               0.3       0.2       0.1       3.4       4.5       4.8
 3 C  pz              0.6       7.1       0.2       7.5       2.3       2.3
 3 C  px              0.0       1.9       5.4       6.8       4.6       4.2
 3 C  py              0.1       5.7       1.6       6.4       3.3       2.6
 3 C  dz2             0.1       0.7       0.0       0.0       0.1       0.5
 3 C  dxz             0.1       0.2       0.0       0.2       0.4       0.2
 3 C  dyz             0.1       0.0       0.1       0.8       0.1       0.3
 3 C  dx2y2           0.0       0.0       1.3       0.0       0.1       0.0
 3 C  dxy             0.0       0.1       0.5       0.6       0.1       0.1
 4 O  s               0.3       2.9       0.0       8.8       0.6       0.1
 4 O  pz              0.8       5.9       2.2       5.1       0.5       1.3
 4 O  px              1.2       1.1      48.5       0.8       0.1       0.0
 4 O  py              4.9      17.1      14.6       2.0       2.0       0.2
 4 O  dz2             0.0       1.9       0.0       3.9       0.0       0.0
 4 O  dxz             0.0       0.2       0.1       0.2       0.1       0.1
 4 O  dyz             0.0       0.0       0.1       0.9       1.3       0.5
 4 O  dx2y2           0.0       0.1       0.6       0.0       0.2       0.4
 4 O  dxy             0.1       0.1       0.3       0.5       0.8       0.1
 5 H  s               0.0       1.0       0.7       0.8       1.5       0.2
 5 H  pz              0.1       0.0       0.0       0.0       0.3       0.2
 5 H  px              0.0       0.0       0.0       0.1       0.3       0.1
 5 H  py              0.0       0.0       0.0       0.0       0.3       0.1
 6 H  s               8.0       0.7       0.1       0.1       1.7       0.6
 6 H  pz              0.0       0.0       0.0       0.0       0.8       0.1
 7 H  s               5.3       1.5       0.1       0.3       1.5       0.2
 7 H  pz              0.0       0.0       0.0       0.0       0.1       0.1
 7 H  px              0.0       0.0       0.1       0.2       0.4       0.0
 7 H  py              0.1       0.0       0.0       0.0       0.1       0.4
 8 H  s              14.3       5.0       0.0       0.8       1.6       6.9
 8 H  pz              0.1       0.0       0.0       0.4       1.2       2.4
 8 H  px              0.0       0.0       0.1       0.6       0.0       0.1
 8 H  py              0.0       0.0       0.0       0.0       0.0       0.2
 9 H  s               1.9       0.0       0.3       0.0       2.6       8.1
 9 H  pz              0.1       0.0       0.0       0.0       0.1       0.1
 9 H  px              0.0       0.0       0.0       0.1       0.9       1.1
 9 H  py              0.1       0.0       0.0       0.1       0.6       0.1
10 H  s               0.5       3.0       0.2       0.0       3.5       3.7
10 H  pz              0.0       0.0       0.0       0.0       1.6       0.2
10 H  px              0.0       0.0       0.0       0.1       0.0       0.5
10 H  py              0.1       0.0       0.0       0.0       0.3       0.1
11 H  s               2.6       0.4       0.4       0.5       3.0       0.1
11 H  pz              0.0       0.0       0.0       0.2       0.7       0.1
11 H  px              0.1       0.0       0.0       0.0       1.3       0.2
11 H  py              0.0       0.1       0.0       0.0       0.0       0.2
12 H  s               0.0       3.9       7.4       0.9       1.4       1.8
12 H  pz              0.0       0.0       0.0       0.4       0.0       0.2
12 H  px              0.0       0.1       0.0       0.6       0.0       0.2
12 H  py              0.0       0.0       0.0       0.0       0.9       0.7
13 H  s               0.8       7.7       0.1       0.4       1.3       3.9
13 H  pz              0.0       0.0       0.0       0.0       0.4       1.2
13 H  px              0.0       0.0       0.1       0.1       0.4       0.1
13 H  py              0.0       0.0       0.0       0.7       0.0       0.4
14 H  s               0.1       1.9       0.0      22.8       0.1       1.5
14 H  pz              0.0       0.0       0.0       5.8       0.0       0.2
14 H  px              0.0       0.0       0.9       0.1       0.0       0.0
14 H  py              0.1       0.3       0.3       0.1       0.1       0.0

                     24        25        26        27        28        29   
                   0.12447   0.13309   0.14521   0.15017   0.15464   0.16252
                   0.00000   0.00000   0.00000   0.00000   0.00000   0.00000
                  --------  --------  --------  --------  --------  --------
 0 C  s              14.3       0.1       2.0       0.2       4.7       3.4
 0 C  pz              0.9       3.6       0.8       0.6       0.9       1.5
 0 C  px              1.5       1.3       0.9       1.8      23.1       2.0
 0 C  py              8.4       4.4       3.1       4.7       0.1       2.7
 0 C  dz2             0.0       1.1       0.0       0.0       0.0       0.1
 0 C  dxz             0.0       0.1       0.1       0.0       0.4       1.4
 0 C  dyz             0.3       0.1       0.1       0.1       0.0       0.0
 0 C  dx2y2           0.0       0.2       0.3       0.0       0.1       0.1
 0 C  dxy             0.2       0.1       0.0       1.3       0.1       0.0
 1 C  s               1.5       4.3       5.1       6.1       0.8       0.6
 1 C  pz              3.4       0.0       0.4       3.7       0.1       2.0
 1 C  px              2.7       5.1       0.5       2.8       2.8       0.2
 1 C  py              3.9       0.4       3.7       2.1       4.5       3.2
 1 C  dz2             0.3       0.0       0.1       0.8       0.0       0.6
 1 C  dxz             0.1       0.3       0.0       0.8       0.0       0.1
 1 C  dyz             0.1       0.5       0.0       0.2       0.1       0.5
 1 C  dx2y2           0.1       0.4       0.1       0.2       0.9       0.1
 1 C  dxy             1.5       0.2       0.6       0.0       0.1       0.1
 2 C  s               1.9       4.5       6.8       0.2       0.3       0.2
 2 C  pz              2.2       1.4       8.7       6.3       3.8      10.3
 2 C  px              0.6       4.1      14.5       1.2       6.0       0.6
 2 C  py              4.0      17.2       9.4       3.1       0.6       2.4
 2 C  dz2             0.2       0.1       0.1       0.0       0.3       0.1
 2 C  dxz             0.6       0.2       0.5       0.1       0.2       0.5
 2 C  dyz             0.3       1.7       0.1       1.3       0.1       0.1
 2 C  dx2y2           0.0       0.1       0.3       0.5       0.5       0.1
 2 C  dxy             0.1       0.0       0.7       0.8       0.4       0.1
 3 C  s               2.5       1.2       1.5       7.6       2.0       0.5
 3 C  pz             12.4       2.1       0.5       7.3       8.0       2.5
 3 C  px              0.8       5.6       3.5       8.0       1.1       0.3
 3 C  py              3.6       6.5       8.8       3.8       1.9       6.4
 3 C  dz2             0.2       0.4       0.1       0.0       0.4       0.0
 3 C  dxz             0.1       0.0       0.1       0.2       0.5       0.2
 3 C  dyz             0.0       0.0       0.2       0.3       0.3       0.3
 3 C  dx2y2           0.1       0.0       0.2       0.3       0.1       0.0
 3 C  dxy             0.8       0.1       0.2       0.0       0.0       0.6
 4 O  s               1.0       0.3       0.6       0.5       0.1       0.2
 4 O  pz              1.0       0.1       0.0       0.1       0.1       6.9
 4 O  px              0.8       0.1       0.1       1.7       0.6       0.2
 4 O  py              0.4       0.0       0.4       0.4       0.1       0.0
 4 O  dz2             1.2       0.0       0.4       0.2       0.1       2.2
 4 O  dxz             0.0       1.9       0.0       3.8       0.8       1.5
 4 O  dyz             0.1       0.0       0.4       0.0       3.2       0.0
 4 O  dx2y2           0.0       0.3       1.3       0.1       1.3       0.2
 4 O  dxy             0.0       0.1       0.0       0.4       0.0       0.6
 5 H  s               2.2       0.2       0.5       0.8       1.0       8.1
 5 H  pz              0.4       0.1       0.0       0.1       0.0       0.7
 5 H  px              0.8       0.1       0.0       0.1       1.3       1.2
 5 H  py              0.0       0.0       0.0       1.0       0.0       0.0
 6 H  s               2.5       4.4       0.6       0.1       0.3       1.1
 6 H  pz              1.5       1.0       0.3       0.0       0.1       0.0
 6 H  px              0.1       0.0       0.2       0.1       0.5       0.7
 6 H  py              0.4       0.3       0.1       0.0       0.0       0.0
 7 H  s               0.6       0.1       3.2       0.7       0.5       0.1
 7 H  pz              0.0       0.5       0.2       0.0       0.2       0.2
 7 H  px              0.1       0.1       0.1       0.4       0.1       0.1
 7 H  py              0.5       0.4       0.6       0.0       0.0       0.1
 8 H  s               2.7       0.1       0.8       2.3       0.3       2.6
 8 H  pz              0.9       0.1       0.8       0.0       0.1       0.5
 8 H  px              0.3       0.3       0.0       0.2       0.0       0.0
 8 H  py              0.4       0.1       0.1       0.2       0.4       0.7
 9 H  s               3.0       0.3       2.6       0.4       8.4       0.1
 9 H  pz              0.3       0.3       0.9       0.2       0.0       0.2
 9 H  px              0.3       0.1       1.0       0.4       1.3       0.0
 9 H  py              0.0       0.1       0.1       0.0       0.5       0.1
10 H  s               0.8       2.1       0.7       7.6       0.7       0.2
10 H  pz              0.1       0.0       0.0       0.1       0.1       0.0
10 H  px              0.0       0.3       0.0       0.0       0.4       0.1
10 H  py              0.7       0.1       0.9       1.1       0.0       0.4
11 H  s               3.2       7.6       0.8       4.9       0.5       6.8
11 H  pz              0.2       0.7       0.0       0.0       1.1       1.0
11 H  px              0.0       0.4       0.4       0.1       0.2       1.0
11 H  py              0.0       1.5       0.2       0.2       0.0       0.1
12 H  s               0.7       2.9       4.3       0.7       0.1       3.0
12 H  pz              0.0       0.0       0.0       0.3       0.8       0.4
12 H  px              0.3       0.3       0.2       1.0       0.0       0.4
12 H  py              0.0       0.7       1.8       0.4       0.0       0.1
13 H  s               1.9       1.9       0.2       0.9       6.8       0.4
13 H  pz              0.6       0.9       0.0       1.0       1.7       0.0
13 H  px              0.0       0.0       0.2       0.1       0.5       0.1
13 H  py              0.2       0.0       0.0       0.1       0.2       0.9
14 H  s               0.3       1.3       0.7       0.3       0.1      10.7
14 H  pz              0.1       0.2       0.3       0.1       0.0       2.0

                     30        31        32        33        34        35   
                   0.17727   0.19695   0.20675   0.21565   0.24056   0.24783
                   0.00000   0.00000   0.00000   0.00000   0.00000   0.00000
                  --------  --------  --------  --------  --------  --------
 0 C  s               3.2       0.5       1.2       0.7       0.9       0.1
 0 C  pz             10.8       8.8      11.7       9.6      14.0       3.2
 0 C  px              1.7       8.4       5.0      13.3       3.9       1.9
 0 C  py              8.1       0.2      13.1       7.3       0.7       1.4
 0 C  dz2             0.3       1.8       0.3       1.7       0.5       0.2
 0 C  dxz             0.4       0.6       0.1       0.4       0.2       0.1
 0 C  dyz             0.1       0.1       0.7       0.0       0.0       0.1
 0 C  dx2y2           0.5       0.4       0.5       0.0       0.0       0.1
 0 C  dxy             0.1       0.1       0.8       0.5       0.3       0.1
 1 C  s               0.1       0.5       0.0       0.4       0.1       1.0
 1 C  pz              0.9       0.5       0.6       0.1       0.1       6.6
 1 C  px              3.5       0.2       0.5       4.3       1.4       0.5
 1 C  py              0.1       4.9       1.1       3.0       0.2       0.4
 1 C  dz2             0.0       0.0       0.0       0.0       0.5       0.0
 1 C  dxz             0.3       0.2       0.1       0.1       0.2       0.1
 1 C  dyz             0.0       0.0       0.3       0.1       0.2       0.2
 1 C  dx2y2           0.1       0.7       0.4       0.1       0.0       0.0
 1 C  dxy             0.0       0.1       0.5       0.5       0.0       0.6
 2 C  s               0.1       1.2       1.5       0.7       0.3       0.2
 2 C  pz              3.7       5.8       0.5       0.3      11.0      37.7
 2 C  px             14.8       2.6       2.2       0.4       6.6      10.2
 2 C  py              0.9       6.1       7.0       4.7      17.9       1.2
 2 C  dz2             0.0       0.3       0.2       0.0       0.4       0.0
 2 C  dxz             0.5       0.4       0.0       0.0       0.0       0.2
 2 C  dyz             0.0       0.7       0.2       0.0       0.1       0.0
 2 C  dx2y2           0.0       0.2       0.0       0.0       0.1       0.1
 2 C  dxy             0.1       0.8       0.0       0.0       0.2       0.2
 3 C  s               1.2       2.3       1.3       1.6       0.1       1.6
 3 C  pz             11.7       2.0       0.6       0.0       3.5       0.3
 3 C  px              6.1       1.0       2.6       7.9       2.1       1.3
 3 C  py              1.7       1.1       1.5       5.3       0.8       2.9
 3 C  dz2             0.1       0.7       0.1       0.0       1.5       0.0
 3 C  dxz             0.5       0.0       0.0       0.2       0.0       0.0
 3 C  dyz             0.0       0.1       0.1       0.0       0.2       0.0
 3 C  dx2y2           0.4       0.0       0.0       0.1       0.0       0.1
 3 C  dxy             0.0       0.2       0.5       0.5       0.2       0.4
 4 O  s               0.4       0.7       0.3       1.0       0.0       0.2
 4 O  pz              0.6       1.2       0.0       2.9       0.1       1.7
 4 O  px              0.1       1.1       0.1       1.2       0.1       1.0
 4 O  py              0.2       1.2       2.2       0.5       0.3       0.9
 4 O  dz2             0.0       1.7       0.0       2.0       1.0       0.6
 4 O  dxz             2.0       0.2       1.9       0.3       0.7       0.4
 4 O  dyz             0.4       0.1       0.1       3.8       0.2       0.8
 4 O  dx2y2           0.0       0.2       0.0       0.3       0.4       0.0
 4 O  dxy             0.0       0.6       2.1       0.2       2.1       1.3
 5 H  s               3.6       4.7       0.8       1.9       1.4       0.6
 5 H  pz              0.0       2.4       0.3       0.1       0.1       0.0
 5 H  px              1.1       0.1       0.0       1.1       0.0       0.4
 5 H  py              0.1       0.0       0.3       0.2       0.2       0.1
 6 H  s               6.3       5.0       2.5       7.5       1.7       2.0
 6 H  pz              1.8       0.8       0.9       0.7       0.0       0.9
 6 H  px              0.4       0.7       0.0       0.1       0.0       0.0
 6 H  py              0.1       0.1       0.9       0.2       0.0       0.0
 7 H  s               0.3       7.1      16.8       1.0       1.1       0.2
 7 H  pz              0.3       0.0       0.6       1.1       0.4       0.1
 7 H  px              0.1       0.0       1.1       0.2       0.2       0.0
 7 H  py              0.2       1.1       4.3       0.0       0.2       0.1
 8 H  s               0.2       0.1       0.3       0.2       1.7       3.7
 8 H  pz              0.0       0.0       0.1       0.0       0.1       1.6
 8 H  px              0.2       0.1       0.1       0.3       0.0       0.0
 8 H  py              0.1       0.0       0.0       0.1       0.2       0.0
 9 H  s               0.9       0.0       0.2       0.0       0.7       0.4
 9 H  pz              0.2       0.0       0.2       0.0       0.7       0.2
 9 H  px              0.1       0.2       0.0       0.0       0.1       0.0
 9 H  py              0.0       1.4       0.1       0.1       0.0       0.1
10 H  s               0.3       7.5       3.9       0.9       1.5       1.8
10 H  pz              0.3       2.1       1.3       0.1       0.0       0.4
10 H  px              0.5       0.0       0.0       0.0       0.0       0.9
10 H  py              0.0       0.6       0.4       0.3       0.2       0.6
11 H  s               2.3       1.0       0.0       0.0       0.2       1.7
11 H  pz              0.2       0.1       0.1       0.0       0.1       0.8
11 H  px              0.0       0.1       0.0       0.0       0.3       0.1
11 H  py              0.1       0.1       0.1       0.1       0.3       0.9
12 H  s               1.6       1.6       0.6       1.2       2.6       0.3
12 H  pz              0.4       0.1       0.0       0.0       0.4       0.0
12 H  px              0.0       0.0       0.0       0.8       0.8       0.0
12 H  py              0.8       0.5       0.1       0.0       0.3       0.2
13 H  s               0.5       0.5       0.8       1.9       8.6       0.1
13 H  pz              0.3       0.0       0.4       0.8       2.2       0.1
13 H  px              0.6       0.1       0.0       0.1       0.0       0.1
13 H  py              0.0       0.0       0.1       0.1       0.1       0.0
14 H  s               0.0       0.9       0.5       1.8       0.2       1.3
14 H  pz              0.0       0.2       0.1       0.4       0.0       0.3
14 H  py              0.0       0.1       0.1       0.3       0.0       0.1

                     36        37        38        39        40        41   
                   0.25348   0.25636   0.27723   0.29523   0.31796   0.34801
                   0.00000   0.00000   0.00000   0.00000   0.00000   0.00000
[...]
 3 C  dz2             0.0       1.6       5.5      11.2       1.0       0.6
 3 C  dxz             1.1       0.0       1.3       0.0       1.1       1.2
 3 C  dyz             0.0       0.1       0.1       1.1       0.0       3.0
 3 C  dx2y2           1.6       0.8       0.3       0.8       0.6       0.5
 3 C  dxy             0.5       0.5       0.3       3.1       0.1       7.9
 4 O  s               0.0       0.9       0.8       0.3       0.1      24.9
 4 O  pz              0.1       0.1       0.1       0.4       0.0       0.7
 4 O  px              0.3       0.1       0.1       0.0       0.0       5.2
 4 O  py              0.0       0.1       0.0       0.2       0.1      13.1
 4 O  dz2             0.1       0.0       0.0       0.1       0.1       0.6
 4 O  dxz             0.3       0.9       0.0       0.0       0.0       4.5
 4 O  dyz             0.2       0.2       0.0       0.6       0.0       3.2
 4 O  dx2y2           0.3       0.1       0.4       0.2       0.1       2.3
 4 O  dxy             0.0       0.1       0.1       0.0       0.0      14.1
 5 H  s               5.8       0.9       1.7       1.0       0.0       0.0
 5 H  pz              3.9       0.3       1.8       0.7       0.0       0.0
 5 H  px             11.5       1.3       2.3       1.4       0.0       0.0
 5 H  py              0.4       0.0       0.1       0.0       0.0       0.0
 6 H  s               2.1       0.4       0.8       0.1       1.1       0.0
 6 H  pz              3.3       1.3       1.8       0.2       2.5       0.0
 6 H  px              0.9       0.1       0.0       0.4       0.2       0.0
 6 H  py              0.2       0.0       0.2       0.0       0.3       0.0
 7 H  s               0.4       1.8       4.4       1.9       0.2       0.0
 7 H  pz              0.0       1.0       0.7       1.2       0.1       0.0
 7 H  px              1.1       1.5       2.9       0.8       0.0       0.0
 7 H  py              0.7       2.7       6.8       3.3       0.3       0.0
 8 H  s               0.0       0.0       0.1       0.0       7.4       0.0
 8 H  pz              0.0       0.0       0.2       0.0      16.8       0.0
 8 H  px              0.3       0.2       0.0       0.0       0.6       0.0
 8 H  py              0.3       0.1       0.0       0.2       0.4       0.0
 9 H  s               0.2       5.4       1.2       0.2       0.8       0.1
 9 H  pz              0.0       3.4       0.7       0.0       0.0       0.0
 9 H  px              0.6       9.9       1.3       0.6       1.5       0.1
 9 H  py              0.1       0.9       0.1       0.1       0.0       0.0
10 H  s               0.9       0.3       0.0       0.3       3.9       0.0
10 H  pz              0.6       0.4       0.2       0.1       4.4       0.0
10 H  px              0.1       0.2       0.1       0.0       0.2       0.0
10 H  py              1.1       0.7       0.0       0.2       3.1       0.0
11 H  s               1.2       3.7       3.1       0.8       0.3       0.1
11 H  pz              1.2       5.0       4.4       0.8       0.0       0.0
11 H  px              1.3       1.4       2.2       0.9       0.2       0.0
11 H  py              0.9       1.8       1.2       0.8       0.5       0.0
12 H  s               0.6       0.9       0.5       5.3       0.0       0.7
12 H  pz              0.1       0.0       0.1       0.0       0.0       0.2
12 H  px              0.3       0.9       0.5       3.4       0.0       0.9
12 H  py              1.7       1.6       0.8       8.3       0.2       0.3
13 H  s               0.0       0.3       2.6       6.3       0.5       0.2
13 H  pz              0.1       0.4       6.2      14.5       1.4       0.1
13 H  px              0.4       0.0       0.2       0.0       0.0       0.1
13 H  py              0.0       0.0       0.4       0.0       0.2       0.8
14 H  s               0.0       0.0       0.0       0.1       0.0       0.8
14 H  pz              0.0       0.0       0.0       0.0       0.0       1.2
14 H  px              0.0       0.1       0.1       0.0       0.0       0.1
14 H  py              0.0       0.1       0.1       0.2       0.0       0.0

                    144       145       146       147       148       149   
                   4.59023  21.92734  21.98823  22.03752  22.05043  43.61424
                   0.00000   0.00000   0.00000   0.00000   0.00000   0.00000
                  --------  --------  --------  --------  --------  --------
 0 C  s               0.0      24.8      68.4       5.0       1.4       0.0
 1 C  s               0.0       1.7       0.8       0.7      96.6       0.0
 2 C  s               0.0      71.2      27.9       0.2       0.4       0.0
 3 C  s               0.2       2.0       2.6      93.7       1.3       0.1
 3 C  pz              0.3       0.0       0.0       0.0       0.0       0.0
 3 C  px              0.4       0.0       0.0       0.0       0.0       0.0
 3 C  py              0.6       0.0       0.0       0.0       0.0       0.0
 3 C  dz2             0.6       0.0       0.0       0.0       0.0       0.0
 3 C  dxz             0.1       0.0       0.0       0.0       0.0       0.0
 3 C  dyz             0.5       0.0       0.0       0.0       0.0       0.0
 3 C  dx2y2           0.1       0.0       0.0       0.0       0.0       0.0
 3 C  dxy             0.7       0.0       0.0       0.0       0.0       0.0
 4 O  s               6.1       0.0       0.0       0.1       0.0      99.9
 4 O  pz             18.0       0.0       0.0       0.0       0.0       0.0
 4 O  px              1.2       0.0       0.0       0.0       0.0       0.0
 4 O  py              0.2       0.0       0.0       0.0       0.0       0.0
 4 O  dz2            33.7       0.0       0.0       0.0       0.0       0.0
 4 O  dxz             0.4       0.0       0.0       0.0       0.0       0.0
 4 O  dyz             5.4       0.0       0.0       0.0       0.0       0.0
 4 O  dxy             1.1       0.0       0.0       0.0       0.0       0.0
13 H  s               0.2       0.0       0.0       0.0       0.0       0.0
13 H  pz              0.2       0.0       0.0       0.0       0.0       0.0
14 H  s              13.8       0.0       0.0       0.0       0.0       0.0
14 H  pz             15.3       0.0       0.0       0.0       0.0       0.0
14 H  px              0.2       0.0       0.0       0.0       0.0       0.0
14 H  py              0.4       0.0       0.0       0.0       0.0       0.0



                      *****************************
                      * MAYER POPULATION ANALYSIS *
                      *****************************

  NA   - Mulliken gross atomic population
  ZA   - Total nuclear charge
  QA   - Mulliken gross atomic charge
  VA   - Mayer's total valence
  BVA  - Mayer's bonded valence
  FA   - Mayer's free valence

  ATOM       NA         ZA         QA         VA         BVA        FA
  0 C      6.5315     6.0000    -0.5315     3.8267     3.8267     0.0000
  1 C      5.8925     6.0000     0.1075     3.2982     3.2982    -0.0000
  2 C      6.5629     6.0000    -0.5629     3.8467     3.8467     0.0000
  3 C      6.2315     6.0000    -0.2315     3.8037     3.8037     0.0000
  4 O      8.4182     8.0000    -0.4182     1.8220     1.8220     0.0000
  5 H      0.8511     1.0000     0.1489     0.9616     0.9616     0.0000
  6 H      0.8510     1.0000     0.1490     0.9647     0.9647     0.0000
  7 H      0.8346     1.0000     0.1654     0.9599     0.9599     0.0000
  8 H      0.8696     1.0000     0.1304     0.9695     0.9695    -0.0000
  9 H      0.8385     1.0000     0.1615     0.9605     0.9605     0.0000
 10 H      0.8485     1.0000     0.1515     0.9636     0.9636    -0.0000
 11 H      0.8420     1.0000     0.1580     0.9613     0.9613     0.0000
 12 H      0.8637     1.0000     0.1363     0.9514     0.9514     0.0000
 13 H      0.8572     1.0000     0.1428     0.9559     0.9559    -0.0000
 14 H      0.7072     1.0000     0.2928     0.9115     0.9115    -0.0000

  Mayer bond orders larger than 0.100000
B(  0-C ,  1-C ) :   0.8967 B(  0-C ,  5-H ) :   0.9751 B(  0-C ,  6-H ) :   0.9856 
B(  0-C ,  7-H ) :   0.9692 B(  1-C ,  2-C ) :   0.8136 B(  1-C ,  3-C ) :   0.9002 
B(  1-C ,  8-H ) :   0.9518 B(  2-C ,  9-H ) :   0.9843 B(  2-C , 10-H ) :   0.9697 
B(  2-C , 11-H ) :   0.9878 B(  3-C ,  4-O ) :   0.9500 B(  3-C , 12-H ) :   0.9826 
B(  3-C , 13-H ) :   0.9762 B(  4-O , 14-H ) :   0.8960 

-------
TIMINGS
-------

Total SCF time: 0 days 0 hours 0 min 10 sec 

Total time                  ....      10.724 sec
Sum of individual times     ....      10.688 sec  ( 99.7%)

SCF preparation             ....       0.523 sec  (  4.9%)
Fock matrix formation       ....       8.393 sec  ( 78.3%)
  Startup                   ....       0.008 sec  (  0.1% of F)
  Split-RI-J                ....       1.322 sec  ( 15.8% of F)
  XC integration            ....       6.965 sec  ( 83.0% of F)
    XC Preparation          ....       0.000 sec  (  0.0% of XC)
    Basis function eval.    ....       1.356 sec  ( 19.5% of XC)
    Density eval.           ....       2.119 sec  ( 30.4% of XC)
    XC-Functional eval.     ....       1.043 sec  ( 15.0% of XC)
    XC-Potential eval.      ....       2.175 sec  ( 31.2% of XC)
Diagonalization             ....       0.000 sec  (  0.0%)
Density matrix formation    ....       0.037 sec  (  0.3%)
Total Energy calculation    ....       0.002 sec  (  0.0%)
Population analysis         ....       1.416 sec  ( 13.2%)
Orbital Transformation      ....       0.013 sec  (  0.1%)
Orbital Orthonormalization  ....       0.000 sec  (  0.0%)
DIIS solution               ....       0.085 sec  (  0.8%)
  MO trafo                  ....       0.000 sec  (  0.0 % of DIIS)
  Orb grad                  ....       0.000 sec  (  0.0 % of DIIS)
  Energy W gradient         ....       0.000 sec  (  0.0 % of DIIS)
  DIIS error                ....       0.004 sec  (  5.1 % of DIIS)
  DIIS work                 ....       0.073 sec  ( 85.7 % of DIIS)
  Form Q                    ....       0.000 sec  (  0.0 % of DIIS)
  Form QpQm                 ....       0.000 sec  (  0.0 % of DIIS)
  Exp/Cayley                ....       0.000 sec  (  0.0 % of DIIS)
  Orb update                ....       0.000 sec  (  0.0 % of DIIS)
  Wake-sleep                ....       0.001 sec  (  1.6 % of DIIS)
SOSCF solution              ....       0.219 sec  (  2.0%)
  MO trafo                  ....       0.216 sec  ( 98.9 % of SOSCF)
  Orb grad                  ....       0.000 sec  (  0.0 % of SOSCF)
  Rot update                ....       0.000 sec  (  0.0 % of SOSCF)
  Step                      ....       0.002 sec  (  1.0 % of SOSCF)
Finished LeanSCF after  11.3 sec

Maximum memory used throughout the entire LEANSCF-calculation: 16.4 MB


-------------------------------------------------------------------------------
                          DFT DISPERSION CORRECTION                            
                                                                               
                                DFTD4 V3.4.0                                   
-------------------------------------------------------------------------------
The R2SCAN3C composite method is recognized
Using three-body term ABC
Active option DFTDOPT                   ...         5   

-------------------------   ----------------
Dispersion correction           -0.003226906
-------------------------   ----------------

------------------   -----------------
gCP correction             0.008583772
------------------   -----------------

-------------------------   --------------------
FINAL SINGLE POINT ENERGY      -233.595574871296
-------------------------   --------------------


------------------------------------------------------------------------------
                              ORCA PROPERTY CALCULATIONS
------------------------------------------------------------------------------

GBWName                                 ... sp.gbw
Number of atoms                         ...     15
Number of basis functions               ...    150
Max core memory                         ...   1024 MB

Electric properties:
Dipole moment                           ... YES
Quadrupole moment                       ...  NO
Static polarizability (Dipole/Dipole)   ...  NO
Static polarizability (Dipole/Quad.)    ...  NO
Static polarizability (Quad./Quad.)     ...  NO
Static polarizability (Velocity)        ...  NO

Atomic electric properties:
Dipole moment                           ...  NO
Quadrupole moment                       ...  NO
Static polarizability                   ...  NO

Choice of electric origin               ... Center of mass
Position of electric origin             ...    -0.000029     0.000016     0.000002

General magnetic properties:
Magnetizability                         ...  NO

EPR properties:
g-Tensor (aka g-matrix)                 ...  NO
Zero-Field splitting spin-orbit         ...  NO
Zero-field splitting spin-spin          ...  NO
Hyperfine couplings                     ...  NO (   0 nuclei)
Quadrupole couplings                    ...  NO (   0 nuclei)
Contact density                         ...  NO (   0 nuclei)

NMR properties:
Chemical shifts                         ...  NO (   0 nuclei)
Spin-rotation constants                 ...  NO (   0 nuclei)
Spin-spin couplings                     ...  NO (   0 nuclei,    0 pairs)

Choice of magnetic origin               ... GIAO
Position of magnetic origin             ...     0.000000     0.000000     0.000000

Properties with geometric perturbations:
SCF Hessian                             ...  NO
IR spectrum                             ...  NO
VCD spectrum                            ...  NO
X-ray spectroscopy properties:
SCF XES/XAS/RIXS spectra                ...  NO


-------------
DIPOLE MOMENT
-------------

Method             : SCF
Type of density    : Electron Density
Multiplicity       :   1
Irrep              :   0
Energy             :  -233.6009317379674997 Eh
Relativity type    : 
Basis              : AO
                                X                 Y                 Z
Electronic contribution:      3.904892409      -1.827810975      -0.564840124
Nuclear contribution   :     -4.150625089       2.288747590       0.192272774
                        -----------------------------------------
Total Dipole Moment    :     -0.245732680       0.460936615      -0.372567350
                        -----------------------------------------
Magnitude (a.u.)       :      0.641602325
Magnitude (Debye)      :      1.630823507



--------------------
Rotational spectrum 
--------------------
 
Rotational constants in cm-1:             0.253566             0.116682             0.089026 
Rotational constants in MHz :          7601.726475          3498.039941          2668.926233 

Dipole components along the rotational axes: 
x,y,z [a.u.] :    -0.426167     0.193905    -0.438675 
x,y,z [Debye]:    -1.083230     0.492868    -1.115024 

 

Dipole moment calculation done in   0.0 sec 

Maximum memory used throughout the entire PROP-calculation: 9.1 MB

--------------------------------
SUGGESTED CITATIONS FOR THIS RUN
--------------------------------

Below you find a list of papers that are relevant to this ORCA run
We neither can nor want to force you to cite these papers, but we appreciate if you do
You receive ORCA, which is the product of decades of hard work by many enthusiastic individuals, for free
The only thing we kindly ask in return is that you cite our papers,
We deeply appreciate it, if you show your appreciation for ORCA by not just citing the generic ORCA reference.

Please note that relegating all ORCA citations to the supporting information does *not* help us.
SI sections are not indexed - citations you put there will not count into any citation statistics
But we need these citations in order to attract the funding resources that allow us to do what we are doing

Therefore, if you are a happy ORCA user, please consider citing a few of the papers listed below in the main body of your paper

In addition to the list printed below, the program has created the file sp.bibtex that contains the list in bibtex format
You can import this file easily into all common literature databanks and citation aid programs


List of essential papers. We consider these as the minimum necessary citations

  1. Neese,F.
     Software update: the ORCA program system, version 5.0
     WIRES Comput. Molec. Sci., 2022 12(1)e1606
     doi.org/10.1002/wcms.1606
  2. Grimme,S.; Hansen,A.; Ehlert,S.; Mewes,J.
     r2SCAN-3c: A 'Swiss army knife' composite electronic-structure method
     J. Chem. Phys., 2021 154 064103
     doi.org/10.1063/5.0040021

List of papers to cite with high priority. The work reported in these papers was absolutely
necessary for this run to complete.
Our perspective: the developers of density functionals and basis sets usually get cited in chemistry papers
Good! But without the algorithms to do something with them, the functionals or basis sets would not do anything.
Hence, in our opinion, the algorithm design and method developments papers are equally worthy of getting cited

  1. Neese,F.
     An improvement of the resolution of the identity approximation for the formation of the Coulomb matrix
     J. Comp. Chem., 2003 24(14)1740-1747
     doi.org/10.1002/jcc.10318
  2. Neese,F.
     The SHARK Integral Generation and Digestion System
     J. Comp. Chem., 2022  1-16
     doi.org/10.1002/jcc.26942
  3. Lehtola,S.; Steigemann,C.; Oliveira,M.; Marques,M.
     Recent developments in Libxc - A comprehensive library of functionals for density functional theory
     Software X, 2018 7 
     doi.org/10.1016/j.softx.2017.11.002
  4. Caldeweyher,E.; Bannwarth,C.; Grimme,S.
     Extension of the D3 dispersion coefficient model
     J. Chem. Phys., 2017 147 034112
     doi.org/10.1063/1.4993215
  5. Caldeweyher,E.; Ehlert,S.; Hansen,A.; Neugebauer,H.; Spicher,S.; Bannwarth,C.; Grimme,S.
     A generally applicable atomic-charge dependent London dispersion correction
     J. Chem. Phys., 2019 150 154122
     doi.org/10.1063/1.5090222
  6. Caldeweyher,E.; Mewes,J.; Ehlert,S.; Grimme,S.
     Extension and evaluation of the D4 London-dispersion model for periodic systems
     Phys. Chem. Chem. Phys., 2020 22(16)8499-8512
     doi.org/10.1039/D0CP00502A
  7. Wittmann,L.; Gordiy,I.; Friede,M.; Helmich-Paris,B.; Grimme,S.; Hansen,A.; Bursch,M.
     Extension of the D3 and D4 London Dispersion Corrections to the full Actinides Series
     Phys. Chem. Chem. Phys., 2024 26(32)21379-21394
     doi.org/https://doi.org/10.1039/D4CP01514B 

List of suggested additional citations. These are papers that are important in the 'surrounding' of 
of this run, or papers that preceded the highly important papers. If you like your results we are grateful for a citation.

  1. Neese,F.
     The ORCA program system
     WIRES Comput. Molec. Sci., 2012 2(1)73-78
     doi.org/10.1002/wcms.81
  2. Neese,F.
     Software update: the ORCA program system, version 4.0
     WIRES Comput. Molec. Sci., 2018 8(1)1-6
     doi.org/10.1002/wcms.1327
  3. Neese,F.; Wennmohs,F.; Becker,U.; Riplinger,C.
     The ORCA quantum chemistry program package
     J. Chem. Phys., 2020 152 Art. No. L224108
     doi.org/10.1063/5.0004608

List of optional additional citations

  1. Neese,F.
     Approximate second-order SCF convergence for spin unrestricted wavefunctions
     Chem. Phys. Lett., 2000 325(1-3)93-98
     doi.org/10.1016/s0009-2614(00)00662-x

Timings for individual modules:

Sum of individual times          ...       12.057 sec (=   0.201 min)
Startup calculation              ...        0.541 sec (=   0.009 min)   4.5 %
SCF iterations                   ...       11.411 sec (=   0.190 min)  94.6 %
Property calculations            ...        0.105 sec (=   0.002 min)   0.9 %
                             ****ORCA TERMINATED NORMALLY****
TOTAL RUN TIME: 0 days 0 hours 0 minutes 12 seconds 567 msec
