
                                 *****************
                                 * O   R   C   A *
                                 *****************

                                            #,                                       
                                            ###                                      
                                            ####                                     
                                            #####                                    
                                            ######                                   
                                           ########,                                 
                                     ,,################,,,,,                         
                               ,,#################################,,                 
                          ,,##########################################,,             
                       ,#########################################, ''#####,          
                    ,#############################################,,   '####,        
                  ,##################################################,,,,####,       
                ,###########''''           ''''###############################       
              ,#####''   ,,,,##########,,,,          '''####'''          '####       
            ,##' ,,,,###########################,,,                        '##       
           ' ,,###''''                  '''############,,,                           
         ,,##''                                '''############,,,,        ,,,,,,###''
      ,#''                                            '''#######################'''  
     '                                                          ''''####''''         
             ,#######,   #######,   ,#######,      ##                                
            ,#'     '#,  ##    ##  ,#'     '#,    #''#        ,####,   ,####,        
            ##       ##  ##   ,#'  ##            #'  '#       #'       #'  '#        
            ##       ##  #######   ##           ,######,      #####,   #    #        
            '#,     ,#'  ##    ##  '#,     ,#' ,#      #,     #,   #   #,  ,#        
             '#######'   ##     ##  '#######'  #'      '#     '####' # '####'        



                #########################################################
                #                        -***-                          #
                #          Department of theory and spectroscopy        #
                #                                                       #
                #                      Frank Neese                      #
                #                                                       #
                #     Directorship, Architecture, Infrastructure        #
                #                    SHARK, DRIVERS                     #
                #        Core code/Algorithms in most modules           #
                #                                                       #
                #        Max Planck Institute fuer Kohlenforschung      #
                #                Kaiser Wilhelm Platz 1                 #
                #                 D-45470 Muelheim/Ruhr                 #
                #                      Germany                          #
                #                                                       #
                #                  All rights reserved                  #
                #                        -***-                          #
                #########################################################


                         Program Version 6.0.0  -   RELEASE  -


 With contributions from (in alphabetic order):
   Daniel Aravena         : Magnetic Suceptibility
   Michael Atanasov       : Ab Initio Ligand Field Theory (pilot matlab implementation)
   Alexander A. Auer      : GIAO ZORA, VPT2 properties, NMR spectrum
   Ute Becker             : All parallelization in ORCA, NUMFREQ, NUMCALC
   Giovanni Bistoni       : ED, misc. LED, open-shell LED, HFLD
   Martin Brehm           : Molecular dynamics
   Dmytro Bykov           : pre 5.0 version of the SCF Hessian
   Marcos Casanova-Páez   : Triplet and SCS-CIS(D). UHF-(DLPNO)-IP/EA/STEOM-CCSD. UHF-CVS-IP/STEOM-CCSD
   Vijay G. Chilkuri      : MRCI spin determinant printing, contributions to CSF-ICE
   Pauline Colinet        : FMM embedding
   Dipayan Datta          : RHF DLPNO-CCSD density
   Achintya Kumar Dutta   : EOM-CC, STEOM-CC
   Nicolas Foglia         : Exact transition moments, OPA infrastructure, MCD improvements
   Dmitry Ganyushin       : Spin-Orbit,Spin-Spin,Magnetic field MRCI
   Miquel Garcia          : C-PCM and meta-GGA Hessian, CCSD/C-PCM, Gaussian charge scheme
   Tiago L. C. Gouveia    : GS-ROHF, GS-ROCIS
   Yang Guo               : DLPNO-NEVPT2, F12-NEVPT2, CIM, IAO-localization
   Andreas Hansen         : Spin unrestricted coupled pair/coupled cluster methods
   Ingolf Harden          : AUTO-CI MPn and infrastructure 
   Benjamin Helmich-Paris : MC-RPA, TRAH-(SCF,CASSCF), AVAS, COSX integrals, SCF dyn. polar.
   Lee Huntington         : MR-EOM, pCC
   Robert Izsak           : Overlap fitted RIJCOSX, COSX-SCS-MP3, EOM
   Riya Kayal             : Wick's Theorem for AUTO-CI, AUTO-CI UHF-CCSDT
   Emily Kempfer          : AUTO-CI, RHF CISDT and CCSDT
   Christian Kollmar      : KDIIS, OOCD, Brueckner-CCSD(T), CCSD density, CASPT2, CASPT2-K, improved NEVPT2
   Axel Koslowski         : Symmetry handling
   Simone Kossmann        : Meta GGA functionals, TD-DFT gradient, OOMP2, (MP2 Hessian; deprecated post 5.0)
   Lucas Lang             : DCDCAS
   Marvin Lechner         : AUTO-CI (C++ implementation), FIC-MRCC
   Spencer Leger          : CASSCF response
   Dagmar Lenk            : GEPOL surface, SMD, ORCA-2-JSON
   Dimitrios Liakos       : Extrapolation schemes; Compound Job, initial MDCI parallelization
   Dimitrios Manganas     : Further ROCIS development; embedding schemes. LFT, Crystal Embedding
   Dimitrios Pantazis     : SARC Basis sets
   Anastasios Papadopoulos: AUTO-CI, single reference methods and gradients
   Taras Petrenko         : pre 6.0 DFT Hessian and TD-DFT gradient, (ASA, deprecated), ECA, 1-Electron XAS/XES, NRVS
   Peter Pinski           : DLPNO-MP2, DLPNO-MP2 Gradient
   Christoph Reimann      : Effective Core Potentials
   Marius Retegan         : Local ZFS, SOC
   Christoph Riplinger    : Optimizer, TS searches, QM/MM, DLPNO-CCSD(T), (RO)-DLPNO pert. Triples
   Michael Roemelt        : Original ROCIS implementation
   Masaaki Saitow         : Open-shell DLPNO-CCSD energy and density
   Barbara Sandhoefer     : DKH picture change effects
   Kantharuban Sivalingam : CASSCF convergence/infrastructure, NEVPT2 and variants, FIC-MRCI
   Bernardo de Souza      : ESD, SOC TD-DFT
   Georgi Stoychev        : AutoAux, RI-MP2 NMR, DLPNO-MP2 response, X2C
   Van Anh Tran           : RI-MP2 g-tensors
   Willem Van den Heuvel  : Paramagnetic NMR
   Zikuan Wang            : NOTCH, Electric field optimization 
   Frank Wennmohs         : Technical directorship and infrastructure
   Hang Xu                : AUTO-CI-Response properties 


 We gratefully acknowledge several colleagues who have allowed us to
 interface, adapt or use parts of their codes:
   Stefan Grimme, W. Hujo, H. Kruse, P. Pracht,  : VdW corrections, initial TS optimization,
                  C. Bannwarth, S. Ehlert,         DFT functionals, gCP, sTDA/sTD-DF
                  L. Wittmann, M. Mueller
   Ed Valeev, F. Pavosevic, A. Kumar             : LibInt (2-el integral package), F12 methods
   Garnet Chan, S. Sharma, J. Yang, R. Olivares  : DMRG
   Ulf Ekstrom                                   : XCFun DFT Library
   Mihaly Kallay                                 : mrcc  (arbitrary order and MRCC methods)
   Frank Weinhold                                : gennbo (NPA and NBO analysis)
   Simon Mueller                                 : openCOSMO-RS
   Christopher J. Cramer and Donald G. Truhlar   : smd solvation model
   Lars Goerigk                                  : TD-DFT with DH, B97 family of functionals
   V. Asgeirsson, H. Jonsson                     : NEB implementation
   FAccTs GmbH                                   : IRC, NEB, NEB-TS, DLPNO-Multilevel, CI-OPT
                                                   MM, QMMM, 2- and 3-layer-ONIOM, Crystal-QMMM,
                                                   LR-CPCM, SF, NACMEs, symmetry and pop. for TD-DFT,
                                                   nearIR, NL-DFT gradient (VV10), updates on ESD,
                                                   ML-optimized integration grids, MBIS, APM,
                                                   GOAT, DOCKER, SOLVATOR, interface openCOSMO-RS
   S Lehtola, MJT Oliveira, MAL Marques          : LibXC Library
   Liviu Ungur et al                             : ANISO software


 Your calculation uses the libint2 library for the computation of 2-el integrals
 For citations please refer to: http://libint.valeyev.net

 Your ORCA version has been built with support for libXC version: 6.2.2
 For citations please refer to: https://libxc.gitlab.io

 This ORCA versions uses:
   CBLAS   interface :  Fast vector & matrix operations
   LAPACKE interface :  Fast linear algebra routines
   SCALAPACK package :  Parallel linear algebra routines
   Shared memory     :  Shared parallel matrices
   BLAS/LAPACK       :  OpenBLAS 0.3.27  USE64BITINT DYNAMIC_ARCH NO_AFFINITY SkylakeX SINGLE_THREADED
        Core in use  :  SkylakeX
   Copyright (c) 2011-2014, The OpenBLAS Project




***************************************
The coordinates will be read from file: censo.xyz
***************************************


Your calculation utilizes the geometrical counterpoise correction gCP
Please cite in your paper:
H.Kruse, S. Grimme J.Chem.Phys., 136, (2012), 154101 
   

Your calculation utilizes the atom-pairwise dispersion correction
based on EEQ partial charges (D4)


================================================================================

----- Orbital basis set information -----
Your calculation utilizes the basis: def2-TZVP
   F. Weigend and R. Ahlrichs, Phys. Chem. Chem. Phys. 7, 3297 (2005).

----- AuxJ basis set information -----
Your calculation utilizes the basis: def2-mTZVPP/J
   Stefan Grimme, Andreas Hansen, Sebastian Ehlert, and Jan-Michael Mewes 
   J. Chem. Phys. 154, 000000 (2021). DOI: 10.1063/5.0040021

================================================================================
                                        WARNINGS
                       Please study these warnings very carefully!
================================================================================

Using LibXC functional ID 497 : Re-regularized SCAN exchange by Furness et al
[ 1]  J. W. Furness, A. D. Kaplan, J. Ning, J. P. Perdew, and J. Sun.,  J. Phys. Chem. Lett. 11, 8208-8215 (2020)
[ 2]  J. W. Furness, A. D. Kaplan, J. Ning, J. P. Perdew, and J. Sun.,  J. Phys. Chem. Lett. 11, 9248-9248 (2020)
Using LibXC functional ID 498 : Re-regularized SCAN correlation by Furness et al
[ 1]  J. W. Furness, A. D. Kaplan, J. Ning, J. P. Perdew, and J. Sun.,  J. Phys. Chem. Lett. 11, 8208-8215 (2020)
[ 2]  J. W. Furness, A. D. Kaplan, J. Ning, J. P. Perdew, and J. Sun.,  J. Phys. Chem. Lett. 11, 9248-9248 (2020)
Using LibXC functional ID 497 : Re-regularized SCAN exchange by Furness et al
[ 1]  J. W. Furness, A. D. Kaplan, J. Ning, J. P. Perdew, and J. Sun.,  J. Phys. Chem. Lett. 11, 8208-8215 (2020)
[ 2]  J. W. Furness, A. D. Kaplan, J. Ning, J. P. Perdew, and J. Sun.,  J. Phys. Chem. Lett. 11, 9248-9248 (2020)
Using LibXC functional ID 498 : Re-regularized SCAN correlation by Furness et al
[ 1]  J. W. Furness, A. D. Kaplan, J. Ning, J. P. Perdew, and J. Sun.,  J. Phys. Chem. Lett. 11, 8208-8215 (2020)
[ 2]  J. W. Furness, A. D. Kaplan, J. Ning, J. P. Perdew, and J. Sun.,  J. Phys. Chem. Lett. 11, 9248-9248 (2020)

================================================================================
                                       INPUT FILE
================================================================================
NAME = censo.inp
|  1> ! r2SCAN-3c DEF2-TZVP FREQ
|  2> * xyzfile 0 1 censo.xyz
|  3> 
|  4>                          ****END OF INPUT****
================================================================================

                       ****************************
                       * Single Point Calculation *
                       ****************************

---------------------------------
CARTESIAN COORDINATES (ANGSTROEM)
---------------------------------
  C     -0.727683   -1.824103   -0.000049
  C      0.604738   -1.434063   -0.000165
  C      0.899612   -0.063278   -0.000296
  C     -0.111399    0.903757   -0.000121
  C     -1.437800    0.482889    0.000008
  C     -1.748174   -0.879133   -0.000012
  O     -2.401977    1.454421    0.000040
  C      2.257688    0.356893   -0.000437
  N      3.368863    0.693031    0.000695
  H     -0.979374   -2.879176   -0.000048
  H      1.406175   -2.163005   -0.000213
  H      0.128972    1.960678   -0.000145
  H     -2.788700   -1.190989   -0.000015
  H     -3.277033    1.040073    0.000059

----------------------------
CARTESIAN COORDINATES (A.U.)
----------------------------
  NO LB      ZA    FRAG     MASS         X           Y           Z
   0 C     6.0000    0    12.011   -1.375122   -3.447056   -0.000092
   1 C     6.0000    0    12.011    1.142790   -2.709986   -0.000312
   2 C     6.0000    0    12.011    1.700021   -0.119577   -0.000560
   3 C     6.0000    0    12.011   -0.210514    1.707854   -0.000229
   4 C     6.0000    0    12.011   -2.717048    0.912527    0.000015
   5 C     6.0000    0    12.011   -3.303569   -1.661321   -0.000023
   6 O     8.0000    0    15.999   -4.539079    2.748458    0.000075
   7 C     6.0000    0    12.011    4.266412    0.674430   -0.000825
   8 N     7.0000    0    14.007    6.366228    1.309639    0.001313
   9 H     1.0000    0     1.008   -1.850748   -5.440854   -0.000091
  10 H     1.0000    0     1.008    2.657286   -4.087487   -0.000403
  11 H     1.0000    0     1.008    0.243722    3.705144   -0.000274
  12 H     1.0000    0     1.008   -5.269879   -2.250642   -0.000028
  13 H     1.0000    0     1.008   -6.192695    1.965454    0.000112

--------------------------------
INTERNAL COORDINATES (ANGSTROEM)
--------------------------------
 C      0   0   0     0.000000000000     0.00000000     0.00000000
 C      1   0   0     1.388336553213     0.00000000     0.00000000
 C      2   1   0     1.402142302648   118.45645402     0.00000000
 C      3   2   1     1.399035681706   121.58629690     0.00000000
 C      4   3   2     1.391570650553   118.66932923     0.00000000
 C      1   2   3     1.390816200113   120.88405845     0.00000000
 O      5   4   3     1.368763029466   117.17798712   180.00649968
 C      3   2   1     1.421588157174   119.33144232   180.00091327
 N      8   3   2     1.160904683592   179.63436250   350.32088511
 H      1   2   3     1.084677705282   119.73368918   179.99379658
 H      2   1   3     1.083355206939   121.39573598   180.00351179
 H      4   3   2     1.083909589025   120.91373970   179.99505410
 H      6   1   2     1.086254486776   120.51646502   179.99426318
 H      7   5   4     0.968198122687   109.44425592   179.99545979

---------------------------
INTERNAL COORDINATES (A.U.)
---------------------------
 C      0   0   0     0.000000000000     0.00000000     0.00000000
 C      1   0   0     2.623575867284     0.00000000     0.00000000
 C      2   1   0     2.649664952790   118.45645402     0.00000000
 C      3   2   1     2.643794290008   121.58629690     0.00000000
 C      4   3   2     2.629687425548   118.66932923     0.00000000
 C      1   2   3     2.628261720835   120.88405845     0.00000000
 O      5   4   3     2.586587267926   117.17798712   180.00649968
 C      3   2   1     2.686412292285   119.33144232   180.00091327
 N      8   3   2     2.193791919575   179.63436250   350.32088511
 H      1   2   3     2.049743806552   119.73368918   179.99379658
 H      2   1   3     2.047244646873   121.39573598   180.00351179
 H      4   3   2     2.048292277187   120.91373970   179.99505410
 H      6   1   2     2.052723491750   120.51646502   179.99426318
 H      7   5   4     1.829629295255   109.44425592   179.99545979

---------------------
BASIS SET INFORMATION
---------------------
There are 4 groups of distinct atoms

 Group   1 Type C   : 11s6p2d1f contracted to 5s3p2d1f pattern {62111/411/11/1}
 Group   2 Type O   : 11s6p2d1f contracted to 5s3p2d1f pattern {62111/411/11/1}
 Group   3 Type N   : 11s6p2d1f contracted to 5s3p2d1f pattern {62111/411/11/1}
 Group   4 Type H   : 5s1p contracted to 3s1p pattern {311/1}

Atom   0C    basis set group =>   1
Atom   1C    basis set group =>   1
Atom   2C    basis set group =>   1
Atom   3C    basis set group =>   1
Atom   4C    basis set group =>   1
Atom   5C    basis set group =>   1
Atom   6O    basis set group =>   2
Atom   7C    basis set group =>   1
Atom   8N    basis set group =>   3
Atom   9H    basis set group =>   4
Atom  10H    basis set group =>   4
Atom  11H    basis set group =>   4
Atom  12H    basis set group =>   4
Atom  13H    basis set group =>   4
---------------------------------
AUXILIARY/J BASIS SET INFORMATION
---------------------------------
There are 4 groups of distinct atoms

 Group   1 Type C   : 8s3p3d contracted to 6s3p3d pattern {311111/111/111}
 Group   2 Type O   : 8s3p3d contracted to 6s3p3d pattern {311111/111/111}
 Group   3 Type N   : 8s3p3d contracted to 6s3p3d pattern {311111/111/111}
 Group   4 Type H   : 5s2p1d contracted to 3s1p1d pattern {311/2/1}

Atom   0C    basis set group =>   1
Atom   1C    basis set group =>   1
Atom   2C    basis set group =>   1
Atom   3C    basis set group =>   1
Atom   4C    basis set group =>   1
Atom   5C    basis set group =>   1
Atom   6O    basis set group =>   2
Atom   7C    basis set group =>   1
Atom   8N    basis set group =>   3
Atom   9H    basis set group =>   4
Atom  10H    basis set group =>   4
Atom  11H    basis set group =>   4
Atom  12H    basis set group =>   4
Atom  13H    basis set group =>   4
------------------------------------------------------------------------------
                             ORCA STARTUP CALCULATIONS
                           -- RI-GTO INTEGRALS CHOSEN --
------------------------------------------------------------------------------
------------------------------------------------------------------------------
                   ___                                                        
                  /   \      - P O W E R E D   B Y -                         
                 /     \                                                     
                 |  |  |   _    _      __       _____    __    __             
                 |  |  |  | |  | |    /  \     |  _  \  |  |  /  |          
                  \  \/   | |  | |   /    \    | | | |  |  | /  /          
                 / \  \   | |__| |  /  /\  \   | |_| |  |  |/  /          
                |  |  |   |  __  | /  /__\  \  |    /   |      \           
                |  |  |   | |  | | |   __   |  |    \   |  |\   \          
                \     /   | |  | | |  |  |  |  | |\  \  |  | \   \       
                 \___/    |_|  |_| |__|  |__|  |_| \__\ |__|  \__/        
                                                                              
                      - O R C A' S   B I G   F R I E N D -                    
                                      &                                       
                       - I N T E G R A L  F E E D E R -                       
                                                                              
 v1 FN, 2020, v2 2021, v3 2022-2024                                           
------------------------------------------------------------------------------


----------------------
SHARK INTEGRAL PACKAGE
----------------------

Number of atoms                             ...     14
Number of basis functions                   ...    309
Number of shells                            ...    119
Maximum angular momentum                    ...      3
Integral batch strategy                     ... SHARK/LIBINT Hybrid
RI-J (if used) integral strategy            ... SPLIT-RIJ (Revised 2003 algorithm where possible)
Printlevel                                  ...      1
Contraction scheme used                     ... SEGMENTED contraction
Prescreening option                         ... SCHWARTZ
   Thresh                                   ... 1.000e-10
   Tcut                                     ... 1.000e-11
   Tpresel                                  ... 1.000e-11 
Coulomb Range Separation                    ... NOT USED
Exchange Range Separation                   ... NOT USED
Multipole approximations                    ... NOT USED
Finite Nucleus Model                        ... NOT USED
CABS basis                                  ... NOT available
Auxiliary Coulomb fitting basis             ... AVAILABLE
   # of basis functions in Aux-J            ...    325
   # of shells in Aux-J                     ...    133
   Maximum angular momentum in Aux-J        ...      2
Auxiliary J/K fitting basis                 ... NOT available
Auxiliary Correlation fitting basis         ... NOT available
Auxiliary 'external' fitting basis          ... NOT available

Checking pre-screening integrals            ... done (  0.0 sec) Dimension = 119
Check shell pair data                       ... done (  0.0 sec)
Shell pair information
Shell pair cut-off parameter TPreSel        ...   1.0e-11
Total number of shell pairs                 ...      7140
Shell pairs after pre-screening             ...      6378
Total number of primitive shell pairs       ...     22368
Primitive shell pairs kept                  ...     14787
          la=0 lb=0:   1546 shell pairs
          la=1 lb=0:   1747 shell pairs
          la=1 lb=1:    504 shell pairs
          la=2 lb=0:    958 shell pairs
          la=2 lb=1:    542 shell pairs
          la=2 lb=2:    157 shell pairs
          la=3 lb=0:    469 shell pairs
          la=3 lb=1:    267 shell pairs
          la=3 lb=2:    148 shell pairs
          la=3 lb=3:     40 shell pairs

Calculating one electron integrals          ... done (  0.0 sec)
Calculating RI/J V-Matrix + Cholesky decomp.... done (  0.0 sec)
Calculating Nuclear repulsion               ... done (  0.0 sec) ENN=    377.183749853840 Eh

Diagonalization of the overlap matrix:
Smallest eigenvalue                        ... 9.452e-06
Time for diagonalization                   ...    0.012 sec
Threshold for overlap eigenvalues          ... 1.000e-07
Number of eigenvalues below threshold      ... 0
Time for construction of square roots      ...    0.026 sec
Total time needed                          ...    0.050 sec

-------------------
DFT GRID GENERATION
-------------------

General Integration Accuracy     IntAcc      ... 4.388
Radial Grid Type                 RadialGrid  ... OptM3 with GC (2021)
Angular Grid (max. ang.)         AngularGrid ... 4 (Lebedev-302)
Angular grid pruning method      GridPruning ... 4 (adaptive)
Weight generation scheme         WeightScheme... mBecke (2022)
Basis function cutoff            BFCut       ... 1.0000e-10
Integration weight cutoff        WCut        ... 1.0000e-14
Partially contracted basis set               ... off
Rotationally invariant grid construction     ... off
Angular grids for H and He will be reduced by one unit

Total number of grid points                  ...    70430
Total number of batches                      ...     1106
Average number of points per batch           ...       63
Average number of grid points per atom       ...     5031
Initializing property integral containers    ... done (  0.0 sec)

SHARK setup successfully completed in   1.3 seconds

Maximum memory used throughout the entire STARTUP-calculation: 42.1 MB
-------------------------------------------------------------------------------
                                 ORCA GUESS
                   Start orbitals & Density for SCF / CASSCF
-------------------------------------------------------------------------------

------------
SCF SETTINGS
------------
Hamiltonian:
 Density Functional     Method          .... DFT(GTOs)
  Functional kind                       .... Exchange
  Functional name                       .... Re-regularized SCAN exchange by Furness et al
  Functional family                     .... MGGA
  Functional refs                              
    [ 0] J. W. Furness, A. D. Kaplan, J. Ning, J. P. Perdew, and J. Sun.,  J. Phys. Chem. Lett. 11, 8208-8215 (2020), doi: 10.1021/acs.jpclett.0c02405
    [ 1] J. W. Furness, A. D. Kaplan, J. Ning, J. P. Perdew, and J. Sun.,  J. Phys. Chem. Lett. 11, 9248-9248 (2020), doi: 10.1021/acs.jpclett.0c03077
  Functional external parameters        .... 6
    Parameter  0 _c1        =  6.670000e-01 : c1 parameter        
    Parameter  1 _c2        =  8.000000e-01 : c2 parameter        
    Parameter  2 _d         =  1.240000e+00 : d parameter         
    Parameter  3 _k1        =  6.500000e-02 : k1 parameter        
    Parameter  4 _eta       =  1.000000e-03 : eta parameter       
    Parameter  5 _dp2       =  3.610000e-01 : dp2 parameter       
  Functional kind                       .... Correlation
  Functional name                       .... Re-regularized SCAN correlation by Furness et al
  Functional family                     .... MGGA
  Functional refs                              
    [ 0] J. W. Furness, A. D. Kaplan, J. Ning, J. P. Perdew, and J. Sun.,  J. Phys. Chem. Lett. 11, 8208-8215 (2020), doi: 10.1021/acs.jpclett.0c02405
    [ 1] J. W. Furness, A. D. Kaplan, J. Ning, J. P. Perdew, and J. Sun.,  J. Phys. Chem. Lett. 11, 9248-9248 (2020), doi: 10.1021/acs.jpclett.0c03077
  Functional external parameters        .... 1
    Parameter  0 _eta       =  1.000000e-03 : Regularization parameter
 Gradients option       PostSCFGGA      .... off
 RI-approximation to the Coulomb term is turned on
   Number of AuxJ basis functions       .... 325


General Settings:
 Integral files         IntName         .... censo
 Hartree-Fock type      HFTyp           .... RHF
 Total Charge           Charge          ....    0
 Multiplicity           Mult            ....    1
 Number of Electrons    NEL             ....   62
 Basis Dimension        Dim             ....  309
 Nuclear Repulsion      ENuc            ....    377.1837498538 Eh

Convergence Acceleration:
 AO-DIIS                CNVDIIS         .... on
   Start iteration      DIISMaxIt       ....    12
   Startup error        DIISStart       ....  0.200000
   # of expansion vecs  DIISMaxEq       ....     5
   Bias factor          DIISBfac        ....   1.050
   Max. coefficient     DIISMaxC        ....  10.000
 MO-DIIS                CNVKDIIS        .... off
 Trust-Rad. Augm. Hess. CNVTRAH         .... auto
   Auto Start mean grad. ratio tolernc. ....  1.125000
   Auto Start start iteration           ....    50
   Auto Start num. interpolation iter.  ....    10
   Max. Number of Micro iterations      ....    24
   Max. Number of Macro iterations      .... Maxiter - #DIIS iter
   Number of Davidson start vectors     ....     2
   Converg. threshold    (grad. norm)   ....   5.000e-05
   Grad. Scal. Fac. for Micro threshold ....   0.100
   Minimum threshold for Micro iter.    ....   1.000e-02
   NR start threshold (gradient norm)   ....   1.000e-04
   Initial trust radius                 ....   0.400
   Minimum AH scaling param. (alpha)    ....   1.000
   Maximum AH scaling param. (alpha)    .... 1000.000
   Quad. conv. algorithm                .... NR
   White noise on init. David. guess    .... on
   Maximum white noise                  ....   0.010
   Pseudo random numbers                .... off
   Inactive MOs                         .... canonical
   Orbital update algorithm             .... Taylor
   Preconditioner                       .... Diag
   Full preconditioner red. dimension   ....   250
   COSX micro iterations for RIJONX calc.... off
 SOSCF                  CNVSOSCF        .... on
   Start iteration      SOSCFMaxIt      ....   150
   Startup grad/error   SOSCFStart      ....  0.003300
   Hessian update       SOSCFHessUp     .... L-BFGS
 Level Shifting         CNVShift        .... on
   Level shift para.    LevelShift      ....    0.2500
   Turn off err/grad.   ShiftErr        ....    0.0010
 Zerner damping         CNVZerner       .... off
 Static damping         CNVDamp         .... on
   Fraction old density DampFac         ....    0.7000
   Max. Damping (<1)    DampMax         ....    0.9800
   Min. Damping (>=0)   DampMin         ....    0.0000
   Turn off err/grad.   DampErr         ....    0.1000

SCF Procedure:
 Maximum # iterations   MaxIter         ....   125
 SCF integral mode      SCFMode         .... Direct
   Integral package                     .... SHARK and LIBINT hybrid scheme
 Reset frequency        DirectResetFreq ....    20
 Integral Threshold     Thresh          ....  1.000e-10 Eh
 Primitive CutOff       TCut            ....  1.000e-11 Eh

Convergence Tolerance:
 Convergence Check Mode ConvCheckMode   .... Total+1el-Energy
 Convergence forced     ConvForced      .... 0
 Energy Change          TolE            ....  1.000e-06 Eh
 1-El. energy change                    ....  1.000e-03 Eh
 Orbital Gradient       TolG            ....  5.000e-05
 Orbital Rotation angle TolX            ....  5.000e-05
 DIIS Error             TolErr          ....  1.000e-06

------------------------------
INITIAL GUESS: MODEL POTENTIAL
------------------------------
Loading Hartree-Fock densities                     ... done
Calculating cut-offs                               ... done
Initializing the effective Hamiltonian             ... done
Setting up the integral package (SHARK)            ... done
Starting the Coulomb interaction                   ... done (   0.3 sec)
Making the grid                                    ... done (   0.2 sec)
Mapping shells                                     ... done
Starting the XC term evaluation                    ... done (   0.4 sec)
  promolecular density results
     # of electrons  =     61.999321888
     EX              =    -51.905512650
     EC              =     -2.053110171
     EX+EC           =    -53.958622821
Transforming the Hamiltonian                       ... done (   0.0 sec)
Diagonalizing the Hamiltonian                      ... done (   0.0 sec)
Back transforming the eigenvectors                 ... done (   0.0 sec)
Now organizing SCF variables                       ... done
                      ------------------
                      INITIAL GUESS DONE (   1.1 sec)
                      ------------------
             **** ENERGY FILE WAS UPDATED (censo.en.tmp) ****
Finished Guess after   1.4 sec
Maximum memory used throughout the entire GUESS-calculation: 28.7 MB

-------------------------------------------------------------------------------------------
                                      ORCA LEAN-SCF
                              memory conserving SCF solver
-------------------------------------------------------------------------------------------

----------------------------------------D-I-I-S--------------------------------------------
Iteration    Energy (Eh)           Delta-E    RMSDP     MaxDP     DIISErr   Damp  Time(sec)
-------------------------------------------------------------------------------------------
               ***  Starting incremental Fock matrix formation  ***
    1    -399.4368115556158045     0.00e+00  2.01e-03  7.37e-02  2.53e-01  0.700   4.4
    2    -399.5397576631444281    -1.03e-01  1.57e-03  6.77e-02  8.47e-02  0.700   3.9
                               ***Turning on AO-DIIS***
    3    -399.5759229571824562    -3.62e-02  6.24e-04  2.05e-02  4.27e-02  0.700   3.7
    4    -399.5996808787566579    -2.38e-02  1.10e-03  4.57e-02  2.29e-02  0.000   3.5
    5    -399.6513653810790174    -5.17e-02  3.65e-04  1.75e-02  9.65e-03  0.000   3.6
                              *** Initializing SOSCF ***
---------------------------------------S-O-S-C-F--------------------------------------
Iteration    Energy (Eh)           Delta-E    RMSDP     MaxDP     MaxGrad    Time(sec)
--------------------------------------------------------------------------------------
    6    -399.6518505261949485    -4.85e-04  1.15e-04  5.84e-03  1.25e-03     3.5
               *** Restarting incremental Fock matrix formation ***
    7    -399.6518678866794971    -1.74e-05  8.50e-05  4.14e-03  3.56e-04     4.0
    8    -399.6518556740678605     1.22e-05  2.31e-05  7.99e-04  1.09e-03     3.2
    9    -399.6518716009779837    -1.59e-05  1.61e-05  6.50e-04  2.35e-04     3.2
   10    -399.6518697495517927     1.85e-06  8.65e-06  3.33e-04  4.65e-04     3.1
   11    -399.6518720433523413    -2.29e-06  9.36e-06  3.02e-04  6.67e-05     3.1
   12    -399.6518719258967849     1.17e-07  5.63e-06  3.14e-04  6.66e-05     3.0
                 **** Energy Check signals convergence ****

               *****************************************************
               *                     SUCCESS                       *
               *           SCF CONVERGED AFTER  12 CYCLES          *
               *****************************************************

             **** ENERGY FILE WAS UPDATED (censo.en.tmp) ****

----------------
TOTAL SCF ENERGY
----------------

Total Energy       :       -399.65187192589678 Eh          -10875.08031 eV

Components:
Nuclear Repulsion  :        377.18374985384025 Eh           10263.69163 eV
Electronic Energy  :       -776.83562177973704 Eh          -21138.77194 eV
One Electron Energy:      -1287.68938366010116 Eh          -35039.80952 eV
Two Electron Energy:        510.85376188036412 Eh           13901.03758 eV

Virial components:
Potential Energy   :       -797.51080333056575 Eh          -21701.37224 eV
Kinetic Energy     :        397.85893140466891 Eh           10826.29192 eV
Virial Ratio       :          2.00450647297246

DFT components:
N(Alpha)           :       31.000031258897 electrons
N(Beta)            :       31.000031258897 electrons
N(Total)           :       62.000062517795 electrons
E(X)               :      -53.107772891237 Eh       
E(C)               :       -2.020090868825 Eh       
E(XC)              :      -55.127863760062 Eh       

---------------
SCF CONVERGENCE
---------------

  Last Energy change         ...   -1.1746e-07  Tolerance :   1.0000e-06
  Last MAX-Density change    ...    3.1431e-04  Tolerance :   1.0000e-05
  Last RMS-Density change    ...    5.6308e-06  Tolerance :   1.0000e-06
  Last DIIS Error            ...    1.2468e-03  Tolerance :   1.0000e-06
  Last Orbital Gradient      ...    6.6648e-05  Tolerance :   5.0000e-05
  Last Orbital Rotation      ...    1.4749e-04  Tolerance :   5.0000e-05


----------------
ORBITAL ENERGIES
----------------

  NO   OCC          E(Eh)            E(eV) 
   0   2.0000     -19.009821      -517.2835 
   1   2.0000     -14.159656      -385.3038 
   2   2.0000     -10.126569      -275.5580 
   3   2.0000     -10.094440      -274.6837 
   4   2.0000     -10.073224      -274.1064 
   5   2.0000     -10.068023      -273.9648 
   6   2.0000     -10.066685      -273.9284 
   7   2.0000     -10.065964      -273.9088 
   8   2.0000     -10.063591      -273.8442 
   9   2.0000      -1.050288       -28.5798 
  10   2.0000      -0.876636       -23.8545 
  11   2.0000      -0.847703       -23.0672 
  12   2.0000      -0.759731       -20.6733 
  13   2.0000      -0.740426       -20.1480 
  14   2.0000      -0.641730       -17.4624 
  15   2.0000      -0.604842       -16.4586 
  16   2.0000      -0.567044       -15.4301 
  17   2.0000      -0.496095       -13.4994 
  18   2.0000      -0.477289       -12.9877 
  19   2.0000      -0.462481       -12.5848 
  20   2.0000      -0.427142       -11.6231 
  21   2.0000      -0.410926       -11.1819 
  22   2.0000      -0.390972       -10.6389 
  23   2.0000      -0.371658       -10.1133 
  24   2.0000      -0.363621        -9.8946 
  25   2.0000      -0.345440        -9.3999 
  26   2.0000      -0.327921        -8.9232 
  27   2.0000      -0.317519        -8.6401 
  28   2.0000      -0.310404        -8.4465 
  29   2.0000      -0.259428        -7.0594 
  30   2.0000      -0.235062        -6.3964 
  31   0.0000      -0.086453        -2.3525 
  32   0.0000      -0.050670        -1.3788 
  33   0.0000       0.002889         0.0786 
  34   0.0000       0.018768         0.5107 
  35   0.0000       0.039555         1.0764 
  36   0.0000       0.045154         1.2287 
  37   0.0000       0.077014         2.0957 
  38   0.0000       0.094212         2.5636 
  39   0.0000       0.111391         3.0311 
  40   0.0000       0.113951         3.1008 
  41   0.0000       0.118481         3.2240 
*Only the first 10 virtual orbitals were printed.

                    ********************************
                    * MULLIKEN POPULATION ANALYSIS *
                    ********************************

-----------------------
MULLIKEN ATOMIC CHARGES
-----------------------
   0 C :   -0.069189
   1 C :   -0.280444
   2 C :    0.360027
   3 C :   -0.357446
   4 C :    0.341262
   5 C :   -0.214013
   6 O :   -0.387247
   7 C :   -0.140699
   8 N :   -0.066467
   9 H :    0.123757
  10 H :    0.131004
  11 H :    0.133150
  12 H :    0.107611
  13 H :    0.318693
Sum of atomic charges:   -0.0000000

--------------------------------
MULLIKEN REDUCED ORBITAL CHARGES
--------------------------------
  0 C s       :     3.174352  s :     3.174352
      pz      :     0.943631  p :     2.807039
      px      :     0.923115
      py      :     0.940293
      dz2     :     0.003438  d :     0.078898
      dxz     :     0.024812
      dyz     :     0.006601
      dx2y2   :     0.022677
      dxy     :     0.021370
      f0      :     0.001838  f :     0.008900
      f+1     :     0.000661
      f-1     :     0.000691
      f+2     :     0.000429
      f-2     :     0.001101
      f+3     :     0.002191
      f-3     :     0.001989

  1 C s       :     3.321898  s :     3.321898
      pz      :     0.985930  p :     2.871315
      px      :     0.962166
      py      :     0.923220
      dz2     :     0.003491  d :     0.078602
      dxz     :     0.013151
      dyz     :     0.014312
      dx2y2   :     0.024003
      dxy     :     0.023645
      f0      :     0.001755  f :     0.008629
      f+1     :     0.000693
      f-1     :     0.000668
      f+2     :     0.001152
      f-2     :     0.000199
      f+3     :     0.002084
      f-3     :     0.002077

  2 C s       :     3.139600  s :     3.139600
      pz      :     0.973209  p :     2.394277
      px      :     0.633076
      py      :     0.787992
      dz2     :     0.005500  d :     0.095497
      dxz     :     0.018556
      dyz     :     0.027344
      dx2y2   :     0.017816
      dxy     :     0.026281
      f0      :     0.002025  f :     0.010599
      f+1     :     0.000819
      f-1     :     0.000716
      f+2     :     0.000674
      f-2     :     0.001020
      f+3     :     0.002754
      f-3     :     0.002591

  3 C s       :     3.404141  s :     3.404141
      pz      :     0.996654  p :     2.873064
      px      :     0.913908
      py      :     0.962502
      dz2     :     0.003290  d :     0.071378
      dxz     :     0.022182
      dyz     :     0.005817
      dx2y2   :     0.019261
      dxy     :     0.020827
      f0      :     0.001789  f :     0.008863
      f+1     :     0.000743
      f-1     :     0.000713
      f+2     :     0.000436
      f-2     :     0.001004
      f+3     :     0.002170
      f-3     :     0.002008

  4 C s       :     2.980799  s :     2.980799
      pz      :     0.912645  p :     2.496450
      px      :     0.792673
      py      :     0.791132
      dz2     :     0.003473  d :     0.164432
      dxz     :     0.039233
      dyz     :     0.032612
      dx2y2   :     0.057914
      dxy     :     0.031200
      f0      :     0.002625  f :     0.017057
      f+1     :     0.000971
      f-1     :     0.000939
      f+2     :     0.001194
      f-2     :     0.002726
      f+3     :     0.004878
      f-3     :     0.003725

  5 C s       :     3.282669  s :     3.282669
      pz      :     1.026024  p :     2.854138
      px      :     0.957741
      py      :     0.870373
      dz2     :     0.005809  d :     0.068831
      dxz     :     0.005800
      dyz     :     0.019326
      dx2y2   :     0.020672
      dxy     :     0.017223
      f0      :     0.001761  f :     0.008375
      f+1     :     0.000644
      f-1     :     0.000633
      f+2     :     0.000445
      f-2     :     0.000858
      f+3     :     0.002046
      f-3     :     0.001989

  6 O s       :     3.788738  s :     3.788738
      pz      :     1.809015  p :     4.563825
      px      :     1.225536
      py      :     1.529274
      dz2     :     0.004252  d :     0.032870
      dxz     :     0.002451
      dyz     :     0.004956
      dx2y2   :     0.007723
      dxy     :     0.013488
      f0      :     0.000240  f :     0.001814
      f+1     :     0.000422
      f-1     :     0.000224
      f+2     :     0.000021
      f-2     :     0.000132
      f+3     :     0.000200
      f-3     :     0.000574

  7 C s       :     3.191839  s :     3.191839
      pz      :     0.929524  p :     2.854895
      px      :     0.980019
      py      :     0.945352
      dz2     :    -0.000016  d :     0.075155
      dxz     :     0.036102
      dyz     :     0.003755
      dx2y2   :     0.013070
      dxy     :     0.022244
      f0      :     0.002821  f :     0.018811
      f+1     :     0.001399
      f-1     :     0.000577
      f+2     :     0.003058
      f-2     :     0.001393
      f+3     :     0.005183
      f-3     :     0.004379

  8 N s       :     3.687635  s :     3.687635
      pz      :     1.060985  p :     3.339190
      px      :     1.215747
      py      :     1.062459
      dz2     :     0.001963  d :     0.037282
      dxz     :     0.013232
      dyz     :     0.001220
      dx2y2   :     0.008674
      dxy     :     0.012194
      f0      :     0.000370  f :     0.002359
      f+1     :     0.000128
      f-1     :     0.000072
      f+2     :     0.000421
      f-2     :     0.000188
      f+3     :     0.000660
      f-3     :     0.000520

  9 H s       :     0.852692  s :     0.852692
      pz      :     0.005405  p :     0.023551
      px      :     0.004909
      py      :     0.013237

 10 H s       :     0.845194  s :     0.845194
      pz      :     0.005689  p :     0.023802
      px      :     0.009497
      py      :     0.008616

 11 H s       :     0.843171  s :     0.843171
      pz      :     0.005546  p :     0.023679
      px      :     0.004423
      py      :     0.013710

 12 H s       :     0.868722  s :     0.868722
      pz      :     0.005916  p :     0.023667
      px      :     0.012701
      py      :     0.005050

 13 H s       :     0.634029  s :     0.634029
      pz      :     0.016691  p :     0.047278
      px      :     0.018236
      py      :     0.012351



                     *******************************
                     * LOEWDIN POPULATION ANALYSIS *
                     *******************************

----------------------
LOEWDIN ATOMIC CHARGES
----------------------
   0 C :   -0.125946
   1 C :   -0.092951
   2 C :   -0.147910
   3 C :   -0.054657
   4 C :   -0.262179
   5 C :   -0.127849
   6 O :    0.090593
   7 C :   -0.149934
   8 N :    0.065915
   9 H :    0.149906
  10 H :    0.155314
  11 H :    0.162058
  12 H :    0.145439
  13 H :    0.192201

-------------------------------
LOEWDIN REDUCED ORBITAL CHARGES
-------------------------------
  0 C s       :     2.768333  s :     2.768333
      pz      :     0.868468  p :     2.917620
      px      :     1.059591
      py      :     0.989560
      dz2     :     0.025340  d :     0.395675
      dxz     :     0.084145
      dyz     :     0.016604
      dx2y2   :     0.152283
      dxy     :     0.117302
      f0      :     0.003328  f :     0.044318
      f+1     :     0.004459
      f-1     :     0.003313
      f+2     :     0.002729
      f-2     :     0.006981
      f+3     :     0.012460
      f-3     :     0.011047

  1 C s       :     2.761928  s :     2.761928
      pz      :     0.894523  p :     2.911366
      px      :     1.019058
      py      :     0.997786
      dz2     :     0.025598  d :     0.376344
      dxz     :     0.041384
      dyz     :     0.045860
      dx2y2   :     0.105298
      dxy     :     0.158204
      f0      :     0.003357  f :     0.043313
      f+1     :     0.003827
      f-1     :     0.003880
      f+2     :     0.007729
      f-2     :     0.001270
      f+3     :     0.011988
      f-3     :     0.011262

  2 C s       :     2.701432  s :     2.701432
      pz      :     0.859538  p :     2.852713
      px      :     0.961987
      py      :     1.031188
      dz2     :     0.034150  d :     0.534982
      dxz     :     0.064366
      dyz     :     0.089631
      dx2y2   :     0.178873
      dxy     :     0.167962
      f0      :     0.004150  f :     0.058783
      f+1     :     0.004607
      f-1     :     0.004534
      f+2     :     0.006074
      f-2     :     0.007371
      f+3     :     0.017294
      f-3     :     0.014752

  3 C s       :     2.759453  s :     2.759453
      pz      :     0.898528  p :     2.896996
      px      :     1.010401
      py      :     0.988068
      dz2     :     0.026028  d :     0.355652
      dxz     :     0.068079
      dyz     :     0.015837
      dx2y2   :     0.139574
      dxy     :     0.106133
      f0      :     0.003447  f :     0.042556
      f+1     :     0.004434
      f-1     :     0.003385
      f+2     :     0.002549
      f-2     :     0.006653
      f+3     :     0.011661
      f-3     :     0.010427

  4 C s       :     2.722715  s :     2.722715
      pz      :     0.846942  p :     2.756481
      px      :     0.942226
      py      :     0.967312
      dz2     :     0.045570  d :     0.686320
      dxz     :     0.110790
      dyz     :     0.108898
      dx2y2   :     0.194582
      dxy     :     0.226480
      f0      :     0.006658  f :     0.096663
      f+1     :     0.006746
      f-1     :     0.007160
      f+2     :     0.007356
      f-2     :     0.017632
      f+3     :     0.029025
      f-3     :     0.022088

  5 C s       :     2.768519  s :     2.768519
      pz      :     0.921375  p :     2.946143
      px      :     0.992839
      py      :     1.031929
      dz2     :     0.026947  d :     0.370332
      dxz     :     0.017274
      dyz     :     0.067677
      dx2y2   :     0.148329
      dxy     :     0.110104
      f0      :     0.003356  f :     0.042856
      f+1     :     0.003435
      f-1     :     0.004534
      f+2     :     0.003334
      f-2     :     0.005647
      f+3     :     0.012153
      f-3     :     0.010396

  6 O s       :     3.337617  s :     3.337617
      pz      :     1.699109  p :     4.495555
      px      :     1.245230
      py      :     1.551215
      dz2     :     0.008424  d :     0.071455
      dxz     :     0.007064
      dyz     :     0.007486
      dx2y2   :     0.021811
      dxy     :     0.026671
      f0      :     0.000400  f :     0.004780
      f+1     :     0.000777
      f-1     :     0.000335
      f+2     :     0.000008
      f-2     :     0.000579
      f+3     :     0.000815
      f-3     :     0.001866

  7 C s       :     2.812965  s :     2.812965
      pz      :     0.858143  p :     2.846232
      px      :     1.126352
      py      :     0.861737
      dz2     :     0.041303  d :     0.429987
      dxz     :     0.125211
      dyz     :     0.012416
      dx2y2   :     0.123148
      dxy     :     0.127909
      f0      :     0.006536  f :     0.060750
      f+1     :     0.008875
      f-1     :     0.001836
      f+2     :     0.007395
      f-2     :     0.003347
      f+3     :     0.016303
      f-3     :     0.016459

  8 N s       :     3.311404  s :     3.311404
      pz      :     1.017675  p :     3.501118
      px      :     1.435647
      py      :     1.047795
      dz2     :     0.011620  d :     0.105684
      dxz     :     0.027254
      dyz     :     0.002505
      dx2y2   :     0.033199
      dxy     :     0.031106
      f0      :     0.001670  f :     0.015879
      f+1     :     0.002404
      f-1     :     0.000479
      f+2     :     0.001920
      f-2     :     0.000852
      f+3     :     0.004271
      f-3     :     0.004283

  9 H s       :     0.789830  s :     0.789830
      pz      :     0.013697  p :     0.060264
      px      :     0.012465
      py      :     0.034102

 10 H s       :     0.782668  s :     0.782668
      pz      :     0.014907  p :     0.062017
      px      :     0.024850
      py      :     0.022260

 11 H s       :     0.775409  s :     0.775409
      pz      :     0.014817  p :     0.062533
      px      :     0.011804
      py      :     0.035912

 12 H s       :     0.793362  s :     0.793362
      pz      :     0.015387  p :     0.061199
      px      :     0.032421
      py      :     0.013391

 13 H s       :     0.656231  s :     0.656231
      pz      :     0.042082  p :     0.151567
      px      :     0.064907
      py      :     0.044578



                      *****************************
                      * MAYER POPULATION ANALYSIS *
                      *****************************

  NA   - Mulliken gross atomic population
  ZA   - Total nuclear charge
  QA   - Mulliken gross atomic charge
  VA   - Mayer's total valence
  BVA  - Mayer's bonded valence
  FA   - Mayer's free valence

  ATOM       NA         ZA         QA         VA         BVA        FA
  0 C      6.0692     6.0000    -0.0692     3.8774     3.8774    -0.0000
  1 C      6.2804     6.0000    -0.2804     3.9847     3.9847    -0.0000
  2 C      5.6400     6.0000     0.3600     3.4915     3.4915     0.0000
  3 C      6.3574     6.0000    -0.3574     3.9407     3.9407    -0.0000
  4 C      5.6587     6.0000     0.3413     3.8820     3.8820    -0.0000
  5 C      6.2140     6.0000    -0.2140     3.8668     3.8668    -0.0000
  6 O      8.3872     8.0000    -0.3872     2.0980     2.0980     0.0000
  7 C      6.1407     6.0000    -0.1407     3.9360     3.9360    -0.0000
  8 N      7.0665     7.0000    -0.0665     3.1189     3.1189    -0.0000
  9 H      0.8762     1.0000     0.1238     0.9766     0.9766     0.0000
 10 H      0.8690     1.0000     0.1310     0.9838     0.9838    -0.0000
 11 H      0.8668     1.0000     0.1332     0.9945     0.9945     0.0000
 12 H      0.8924     1.0000     0.1076     0.9860     0.9860    -0.0000
 13 H      0.6813     1.0000     0.3187     0.9167     0.9167    -0.0000

  Mayer bond orders larger than 0.100000
B(  0-C ,  1-C ) :   1.4342 B(  0-C ,  5-C ) :   1.3810 B(  0-C ,  9-H ) :   0.9580 
B(  1-C ,  2-C ) :   1.2963 B(  1-C , 10-H ) :   0.9786 B(  2-C ,  3-C ) :   1.3056 
B(  2-C ,  7-C ) :   0.9298 B(  3-C ,  4-C ) :   1.3756 B(  3-C , 11-H ) :   0.9902 
B(  4-C ,  5-C ) :   1.3110 B(  4-C ,  6-O ) :   1.1326 B(  5-C , 12-H ) :   0.9596 
B(  6-O , 13-H ) :   0.8803 B(  7-C ,  8-N ) :   2.9897 

-------
TIMINGS
-------

Total SCF time: 0 days 0 hours 0 min 42 sec 

Total time                  ....      42.572 sec
Sum of individual times     ....      41.984 sec  ( 98.6%)

SCF preparation             ....       0.262 sec  (  0.6%)
Fock matrix formation       ....      40.265 sec  ( 94.6%)
  Startup                   ....       0.093 sec  (  0.2% of F)
  Split-RI-J                ....       4.826 sec  ( 12.0% of F)
  XC integration            ....      34.566 sec  ( 85.8% of F)
    XC Preparation          ....       0.000 sec  (  0.0% of XC)
    Basis function eval.    ....       5.554 sec  ( 16.1% of XC)
    Density eval.           ....      11.185 sec  ( 32.4% of XC)
    XC-Functional eval.     ....       2.627 sec  (  7.6% of XC)
    XC-Potential eval.      ....      13.696 sec  ( 39.6% of XC)
Diagonalization             ....       0.000 sec  (  0.0%)
Density matrix formation    ....       0.337 sec  (  0.8%)
Total Energy calculation    ....       0.051 sec  (  0.1%)
Population analysis         ....       0.044 sec  (  0.1%)
Orbital Transformation      ....       0.106 sec  (  0.2%)
Orbital Orthonormalization  ....       0.000 sec  (  0.0%)
DIIS solution               ....       0.518 sec  (  1.2%)
SOSCF solution              ....       0.402 sec  (  0.9%)
Finished LeanSCF after  42.7 sec

Maximum memory used throughout the entire LEANSCF-calculation: 33.5 MB

------------------------------------------------------------------------------
                         ORCA PROPERTY INTEGRAL CALCULATIONS
------------------------------------------------------------------------------

GBWName                                   ... censo.gbw
Number of atoms                           ...     14
Number of basis functions                 ...    309
Max core memory                           ...   1024 MB

Dipole integrals                          ... YES
Quadrupole integrals                      ...  NO
Linear momentum integrals                 ...  NO
Angular momentum integrals                ...  NO
Higher moments length integrals           ...  NO
Higher moments velocity integrals         ...  NO
Kinetic energy integrals                  ...  NO
GIAO right hand sides                     ...  NO
GIAO dipole derivative integrals          ...  NO
SOC integrals                             ...  NO
EPR diamagnetic integrals (GIAO)          ...  NO
EPR gauge integrals                       ...  NO
Field gradient integrals                  ...  NO (   0 nuclei)
Spin-dipole/Fermi contact integrals       ...  NO (   0 nuclei)
Contact density integrals                 ...  NO (   0 nuclei)
Nucleus-orbit integrals                   ...  NO (   0 nuclei)
Geometric perturbations                   ... YES (  14 nuclei)

Choice of electric origin   ... Center of mass
Position of electric origin ... (  0.0007,  0.0033, -0.0000) 
Choice of magnetic origin   ... GIAO
Position of magnetic origin ... (  0.0000,  0.0000,  0.0000) 

Calculating integrals                     ... Electric Dipole (Length)     done (  0.1 sec)
Calculating integrals                     ... Geometrical perturbation right hand sides

-----------------------
GEOMETRIC PERTURBATIONS (14 nuclei)
-----------------------

MaxCore                            ...   1024 MB
Number of batches                  ...      1

BATCH   0: Atoms    0 -   13 ( 42 perturbations)
   => H(core) and overlap derivative integrals     ... done (     0.6 sec)
   => Making and storing internal U-coefficients   ... done (     0.7 sec)
   => RI-J derivative integrals                    ... done (     5.4 sec)
   => RI-J response operators                      ... done (     1.4 sec)
   => XC derivative integrals                      ... done (   545.3 sec)
   => XC response operators                        ... done (    86.9 sec)
   => Completing and storing right hand sides      ... done (     0.3 sec)
   => Total time for right hand sides = 643.1 sec

  geometrical perturbations done (643.1 sec)

Property integrals calculated in 643.2 sec

Maximum memory used throughout the entire PROPINT-calculation: 149.7 MB


-------------------------------------------------------------------------------
                          DFT DISPERSION CORRECTION                            
                                                                               
                                DFTD4 V3.4.0                                   
-------------------------------------------------------------------------------
The R2SCAN3C composite method is recognized
Using three-body term ABC
Active option DFTDOPT                   ...         5   

-------------------------   ----------------
Dispersion correction           -0.004685566
-------------------------   ----------------

------------------   -----------------
gCP correction             0.003825200
------------------   -----------------

-------------------------   --------------------
FINAL SINGLE POINT ENERGY      -399.652732291670
-------------------------   --------------------

------------------------------------------------------------------------------
                            ORCA SCF RESPONSE CALCULATION
------------------------------------------------------------------------------

GBWName                                 ... censo.gbw
Number of atoms                         ...     14
Number of basis functions               ...    309
Max core memory                         ...   1024 MB

Electric field perturbation             ...  NO
Quadrupolar field perturbation          ...  NO
Magnetic field perturbation (no GIAO)   ...  NO
Magnetic field perturbation (with GIAO) ...  NO
Linear momentum (velocity) perturbation ...  NO
Spin-orbit coupling perturbation        ...  NO
Choice of electric origin               ... Center of mass
Position of electric origin             ...     0.000718     0.003281    -0.000046
Choice of magnetic origin               ... GIAO
Position of magnetic origin             ...     0.000000     0.000000     0.000000
Nuclear geometric perturbations         ... YES (  42 perturbations)
Nucleus-orbit perturbations             ...  NO (   0 perturbations)
Spin-dipole/Fermi contact perturbations ...  NO (   0 perturbations)

Total number of real perturbations      ...     42
Total number of imaginary perturbations ...      0
Total number of triplet perturbations   ...      0
Total number of SOC perturbations       ...      0


                                **********************
                                * REAL PERTURBATIONS *
                                **********************



-------------------
SHARK CP-SCF DRIVER
-------------------

Dimension of the orbital basis          ...    309
Dimension of the CPSCF-problem          ...   8618
Number of operators                     ...      1
Max. number of iterations               ...    128
Convergence Tolerance                   ... 1.0e-03
Number of perturbations                 ...     42
Perturbation type                       ... REAL

----------------------------
POPLE LINEAR EQUATION SOLVER
----------------------------

  ITERATION   0:   ||err||_max =   8.4979e-01 (  27.4 sec   0/ 42 done)
  ITERATION   1:   ||err||_max =   9.2847e-02 (  28.4 sec   0/ 42 done)
  ITERATION   2:   ||err||_max =   2.4119e-02 (  28.9 sec  11/ 42 done)
  ITERATION   3:   ||err||_max =   8.6016e-03 (  22.8 sec  14/ 42 done)
  ITERATION   4:   ||err||_max =   2.4855e-03 (  21.0 sec  21/ 42 done)
  ITERATION   5:   ||err||_max =   1.0075e-03 (  15.7 sec  40/ 42 done)
  ITERATION   6:   ||err||_max =   2.6151e-04 (   2.0 sec  42/ 42 done)

CP-SCF equations solved in 147.9 sec
Response densities calculated in   0.2 sec

Maximum memory used throughout the entire SCFRESP-calculation: 98.6 MB

------------------------------------------------------------------------------
                              ORCA PROPERTY CALCULATIONS
------------------------------------------------------------------------------

GBWName                                 ... censo.gbw
Number of atoms                         ...     14
Number of basis functions               ...    309
Max core memory                         ...   1024 MB

Electric properties:
Dipole moment                           ... YES
Quadrupole moment                       ...  NO
Static polarizability (Dipole/Dipole)   ...  NO
Static polarizability (Dipole/Quad.)    ...  NO
Static polarizability (Quad./Quad.)     ...  NO
Static polarizability (Velocity)        ...  NO

Atomic electric properties:
Dipole moment                           ...  NO
Quadrupole moment                       ...  NO
Static polarizability                   ...  NO

Choice of electric origin               ... Center of mass
Position of electric origin             ...     0.000718     0.003281    -0.000046

General magnetic properties:
Magnetizability                         ...  NO

EPR properties:
g-Tensor (aka g-matrix)                 ...  NO
Zero-Field splitting spin-orbit         ...  NO
Zero-field splitting spin-spin          ...  NO
Hyperfine couplings                     ...  NO (   0 nuclei)
Quadrupole couplings                    ...  NO (   0 nuclei)
Contact density                         ...  NO (   0 nuclei)

NMR properties:
Chemical shifts                         ...  NO (   0 nuclei)
Spin-rotation constants                 ...  NO (   0 nuclei)
Spin-spin couplings                     ...  NO (   0 nuclei,    0 pairs)

Choice of magnetic origin               ... GIAO
Position of magnetic origin             ...     0.000000     0.000000     0.000000

Properties with geometric perturbations:
SCF Hessian                             ... YES
IR spectrum                             ... YES
VCD spectrum                            ...  NO
X-ray spectroscopy properties:
SCF XES/XAS/RIXS spectra                ...  NO


-------------
DIPOLE MOMENT
-------------

Method             : SCF
Type of density    : Electron Density
Multiplicity       :   1
Irrep              :   0
Energy             :  -399.6518719258967849 Eh
Relativity type    : 
Basis              : AO
                                X                 Y                 Z
Electronic contribution:      3.011050369       2.142284447      -0.000339236
Nuclear contribution   :     -5.188077255      -3.015431246      -0.000221057
                        -----------------------------------------
Total Dipole Moment    :     -2.177026886      -0.873146799      -0.000560293
                        -----------------------------------------
Magnitude (a.u.)       :      2.345598369
Magnitude (Debye)      :      5.962037242



--------------------
Rotational spectrum 
--------------------
 
Rotational constants in cm-1:             0.113768             0.040494             0.029864 
Rotational constants in MHz :          3410.683251          1213.988558           895.313387 

Dipole components along the rotational axes: 
x,y,z [a.u.] :    -2.177631     0.871640    -0.000426 
x,y,z [Debye]:    -5.535098     2.215532    -0.001083 

 

Dipole moment calculation done in   0.0 sec 

-----------
SCF HESSIAN
-----------

Occupied/Occupied contributions to the Hessian:
   => Occupied/Occupied contributions              ... done (  0.0 sec)
Perturbed density contributions to the Hessian:
   => Perturbed density contributions              ... done (  0.0 sec)
Explicit contributions to the Hessian:
   => Nuclear repulsion Hessian                    ... done (  0.0 sec)
   => HCore and overlap Hessian                    ... done ( 13.2 sec)
   => RI-J Hessian                                 ... done ( 13.2 sec)
   => XC-Hessian                                   ... done ( 97.2 sec)
   => Van der Waals-Hessian                        ... done (  5.2 sec)
   => GCP-Hessian                                  ... done (  0.1 sec)
   => Explicit contributions done
Dipole derivatives                                 ... done (  0.2 sec)
Mass weighting the Hessian           ... done
Calculating normal modes             ... done
Scaling frequencies                  ... done

-----------------------
VIBRATIONAL FREQUENCIES
-----------------------

Scaling factor for frequencies =  1.000000000  (already applied!)

     0:       0.00 cm**-1
     1:       0.00 cm**-1
     2:       0.00 cm**-1
     3:       0.00 cm**-1
     4:       0.00 cm**-1
     5:       0.00 cm**-1
     6:     151.76 cm**-1
     7:     164.93 cm**-1
     8:     234.17 cm**-1
     9:     402.35 cm**-1
    10:     408.64 cm**-1
    11:     436.60 cm**-1
    12:     466.14 cm**-1
    13:     482.46 cm**-1
    14:     541.54 cm**-1
    15:     590.95 cm**-1
    16:     631.01 cm**-1
    17:     695.77 cm**-1
    18:     733.32 cm**-1
    19:     784.19 cm**-1
    20:     875.65 cm**-1
    21:     889.74 cm**-1
    22:     951.03 cm**-1
    23:     955.56 cm**-1
    24:    1016.84 cm**-1
    25:    1111.83 cm**-1
    26:    1158.23 cm**-1
    27:    1189.69 cm**-1
    28:    1218.22 cm**-1
    29:    1294.96 cm**-1
    30:    1327.26 cm**-1
    31:    1360.79 cm**-1
    32:    1491.89 cm**-1
    33:    1510.46 cm**-1
    34:    1610.58 cm**-1
    35:    1643.91 cm**-1
    36:    2281.72 cm**-1
    37:    3158.37 cm**-1
    38:    3180.75 cm**-1
    39:    3199.09 cm**-1
    40:    3202.15 cm**-1
    41:    3749.99 cm**-1


------------
NORMAL MODES
------------

These modes are the Cartesian displacements weighted by the diagonal matrix
M(i,i)=1/sqrt(m[i]) where m[i] is the mass of the displaced atom
Thus, these vectors are normalized but *not* orthogonal

                  0          1          2          3          4          5    
      0       0.000000   0.000000   0.000000   0.000000   0.000000   0.000000
      1       0.000000   0.000000   0.000000   0.000000   0.000000   0.000000
      2       0.000000   0.000000   0.000000   0.000000   0.000000   0.000000
      3       0.000000   0.000000   0.000000   0.000000   0.000000   0.000000
      4       0.000000   0.000000   0.000000   0.000000   0.000000   0.000000
      5       0.000000   0.000000   0.000000   0.000000   0.000000   0.000000
      6       0.000000   0.000000   0.000000   0.000000   0.000000   0.000000
      7       0.000000   0.000000   0.000000   0.000000   0.000000   0.000000
      8       0.000000   0.000000   0.000000   0.000000   0.000000   0.000000
      9       0.000000   0.000000   0.000000   0.000000   0.000000   0.000000
     10       0.000000   0.000000   0.000000   0.000000   0.000000   0.000000
     11       0.000000   0.000000   0.000000   0.000000   0.000000   0.000000
     12       0.000000   0.000000   0.000000   0.000000   0.000000   0.000000
     13       0.000000   0.000000   0.000000   0.000000   0.000000   0.000000
     14       0.000000   0.000000   0.000000   0.000000   0.000000   0.000000
     15       0.000000   0.000000   0.000000   0.000000   0.000000   0.000000
     16       0.000000   0.000000   0.000000   0.000000   0.000000   0.000000
     17       0.000000   0.000000   0.000000   0.000000   0.000000   0.000000
     18       0.000000   0.000000   0.000000   0.000000   0.000000   0.000000
     19       0.000000   0.000000   0.000000   0.000000   0.000000   0.000000
     20       0.000000   0.000000   0.000000   0.000000   0.000000   0.000000
     21       0.000000   0.000000   0.000000   0.000000   0.000000   0.000000
     22       0.000000   0.000000   0.000000   0.000000   0.000000   0.000000
     23       0.000000   0.000000   0.000000   0.000000   0.000000   0.000000
     24       0.000000   0.000000   0.000000   0.000000   0.000000   0.000000
     25       0.000000   0.000000   0.000000   0.000000   0.000000   0.000000
     26       0.000000   0.000000   0.000000   0.000000   0.000000   0.000000
     27       0.000000   0.000000   0.000000   0.000000   0.000000   0.000000
     28       0.000000   0.000000   0.000000   0.000000   0.000000   0.000000
     29       0.000000   0.000000   0.000000   0.000000   0.000000   0.000000
     30       0.000000   0.000000   0.000000   0.000000   0.000000   0.000000
     31       0.000000   0.000000   0.000000   0.000000   0.000000   0.000000
     32       0.000000   0.000000   0.000000   0.000000   0.000000   0.000000
     33       0.000000   0.000000   0.000000   0.000000   0.000000   0.000000
     34       0.000000   0.000000   0.000000   0.000000   0.000000   0.000000
     35       0.000000   0.000000   0.000000   0.000000   0.000000   0.000000
     36       0.000000   0.000000   0.000000   0.000000   0.000000   0.000000
     37       0.000000   0.000000   0.000000   0.000000   0.000000   0.000000
     38       0.000000   0.000000   0.000000   0.000000   0.000000   0.000000
     39       0.000000   0.000000   0.000000   0.000000   0.000000   0.000000
     40       0.000000   0.000000   0.000000   0.000000   0.000000   0.000000
     41       0.000000   0.000000   0.000000   0.000000   0.000000   0.000000
                  6          7          8          9         10         11    
      0      -0.000079  -0.141426   0.000021  -0.000399   0.107391  -0.000016
      1      -0.000067  -0.077167   0.000003   0.000119  -0.068672  -0.000004
      2       0.080687  -0.000192   0.001016  -0.211365  -0.000449  -0.011767
      3      -0.000049  -0.088818  -0.000014  -0.000278   0.072911  -0.000012
      4      -0.000219  -0.224390   0.000026  -0.000099   0.038125   0.000009
      5      -0.184791   0.000147  -0.267692  -0.028749   0.000014  -0.001795
      6       0.000040   0.034464  -0.000010   0.000239  -0.070023   0.000010
      7      -0.000258  -0.251441   0.000045  -0.000145   0.068554   0.000010
      8      -0.302020   0.000441   0.006973   0.180821   0.000381   0.005185
      9       0.000153   0.123670   0.000010   0.000130  -0.139939  -0.000027
     10      -0.000153  -0.165044   0.000031   0.000024  -0.096192  -0.000031
     11      -0.314660   0.000608   0.243655  -0.252767  -0.000496   0.000297
     12       0.000143   0.088011   0.000002   0.000006  -0.088530  -0.000027
     13       0.000011  -0.007889   0.000002   0.000164  -0.143558  -0.000034
     14      -0.024073   0.000102   0.123189  -0.025441   0.000001   0.011807
     15       0.000011  -0.054254   0.000026  -0.000165  -0.051308  -0.000047
     16       0.000033   0.024200  -0.000004   0.000244  -0.174102  -0.000031
     17       0.212972  -0.000307   0.269475   0.209432   0.000443   0.000384
     18       0.000289   0.231769  -0.000043  -0.000540   0.271791   0.000027
     19       0.000146   0.131237  -0.000024  -0.000354   0.214466   0.000025
     20       0.098782  -0.000140  -0.273287   0.021782   0.000019  -0.072619
     21       0.000023  -0.026072   0.000002   0.000424  -0.141682   0.000018
     22      -0.000064  -0.062126   0.000017  -0.000272   0.198137   0.000034
     23      -0.054739   0.000042  -0.003735   0.341627   0.000638   0.026454
     24      -0.000549  -0.202143   0.000018   0.000749  -0.053784   0.000063
     25       0.000456   0.517419  -0.000076   0.000429  -0.113515   0.000012
     26       0.361409  -0.000505   0.007788  -0.163689  -0.000342  -0.008183
     27      -0.000186  -0.254988   0.000030  -0.000581   0.227730   0.000012
     28      -0.000042  -0.050291   0.000001   0.000163  -0.098573  -0.000011
     29       0.240275  -0.000479  -0.043914  -0.434671  -0.000960  -0.042956
     30      -0.000130  -0.172754  -0.000028  -0.000528   0.146665  -0.000022
     31      -0.000307  -0.317046   0.000032  -0.000373   0.119944  -0.000002
     32      -0.194262   0.000043  -0.573557  -0.057190  -0.000015  -0.004990
     33       0.000272   0.240958   0.000000   0.000265  -0.296387  -0.000067
     34      -0.000181  -0.192033   0.000035  -0.000007  -0.062144  -0.000022
     35      -0.405923   0.000836   0.328184  -0.485745  -0.001067   0.023415
     36      -0.000019  -0.084516   0.000029  -0.000236  -0.010545  -0.000043
     37       0.000126   0.125465  -0.000014   0.000462  -0.299146  -0.000042
     38       0.504043  -0.000753   0.401730   0.477388   0.000940  -0.066725
     39       0.000228   0.169274  -0.000029  -0.000244   0.073965   0.000019
     40       0.000279   0.262813  -0.000053  -0.000988   0.630808   0.000090
     41       0.255937  -0.000442  -0.326163  -0.115596  -0.000781   0.993368
                 12         13         14         15         16         17    
      0      -0.189284   0.000403   0.183200  -0.118273   0.000035  -0.000003
      1       0.070860  -0.000190   0.062807   0.022599  -0.000073   0.000044
      2       0.001294   0.215977  -0.000032   0.000059   0.057008  -0.167985
      3      -0.136303   0.000259   0.261005  -0.013930  -0.000024   0.000025
      4       0.078299  -0.000216  -0.214629  -0.189435   0.000021   0.000022
      5      -0.000869  -0.200721   0.000017   0.000054  -0.002371   0.124517
      6       0.186096  -0.000424   0.070170   0.043559  -0.000133  -0.000004
      7       0.049373  -0.000129  -0.184252  -0.130780   0.000015  -0.000007
      8      -0.000664  -0.046092  -0.000043  -0.000145  -0.351962  -0.185331
      9      -0.075577   0.000097  -0.082112   0.108418  -0.000037   0.000020
     10      -0.176096   0.000317  -0.214488  -0.112005   0.000069  -0.000028
     11       0.000470   0.041171   0.000035  -0.000030  -0.032694   0.093096
     12      -0.149565   0.000226  -0.244704   0.090831   0.000021  -0.000009
     13      -0.160469   0.000323   0.147584   0.053505   0.000010  -0.000008
     14      -0.000936  -0.245956   0.000110   0.000130   0.377990  -0.096893
     15      -0.345089   0.000689   0.073789   0.002481   0.000069  -0.000023
     16      -0.100608   0.000168   0.051607   0.131686  -0.000015   0.000005
     17      -0.000693  -0.101866  -0.000006  -0.000026  -0.082578   0.075383
     18      -0.009741   0.000021  -0.305479  -0.013042   0.000000  -0.000000
     19       0.001907   0.000077   0.284533  -0.107811   0.000029  -0.000011
     20       0.000358   0.075204  -0.000010  -0.000058  -0.065548  -0.004503
     21       0.355221  -0.000824   0.057722  -0.158952  -0.000123  -0.000022
     22       0.113117  -0.000190  -0.009695   0.576065  -0.000194  -0.000021
     23       0.000469   0.259190  -0.000138   0.000028   0.287035   0.030083
     24       0.391629  -0.000544   0.058984   0.062687   0.000156   0.000004
     25       0.117837  -0.000181   0.013913  -0.147379   0.000096   0.000005
     26       0.000016  -0.105947   0.000082   0.000011  -0.091101  -0.011725
     27      -0.028126   0.000073   0.014028  -0.306545   0.000037   0.000024
     28       0.030890  -0.000108   0.100838   0.066371  -0.000074   0.000039
     29       0.003617   0.671208  -0.000103   0.000128   0.017514   0.104056
     30      -0.300659   0.000615   0.215745  -0.130785   0.000096   0.000059
     31      -0.105845   0.000183  -0.268166  -0.318838   0.000137   0.000031
     32      -0.000731  -0.193216   0.000015   0.000217   0.339926   0.592928
     33      -0.321248   0.000685   0.141663   0.284397  -0.000061   0.000080
     34      -0.117211   0.000184  -0.260937  -0.153044   0.000069  -0.000033
     35       0.002631   0.480685  -0.000054  -0.000127  -0.167873   0.495815
     36      -0.336063   0.000688   0.165490  -0.038930   0.000059  -0.000013
     37      -0.126993   0.000161  -0.258593   0.265102   0.000010  -0.000020
     38       0.000020   0.167821  -0.000149  -0.000203  -0.652962   0.537152
     39      -0.077173   0.000112  -0.309923   0.074310  -0.000016   0.000002
     40       0.147165  -0.000124   0.279731  -0.290418   0.000052  -0.000016
     41      -0.000372   0.085069   0.000001  -0.000106  -0.238159   0.019299
                 18         19         20         21         22         23    
      0      -0.099727   0.000008  -0.000002  -0.000001   0.021795   0.000002
      1      -0.531049   0.000019   0.000002  -0.000001  -0.047319   0.000001
      2      -0.000046  -0.047460   0.029465  -0.007763   0.000009   0.123782
      3      -0.165867  -0.000007   0.000010   0.000005  -0.045524  -0.000009
      4      -0.118552  -0.000011   0.000010  -0.000007   0.164578  -0.000002
      5       0.000075  -0.097625   0.109715   0.045212  -0.000010  -0.075927
      6      -0.083816   0.000010  -0.000009  -0.000019   0.151927   0.000001
      7       0.044164   0.000008  -0.000008  -0.000001  -0.013144   0.000000
      8      -0.000049   0.092043  -0.029105  -0.074722   0.000017  -0.003450
      9       0.002752  -0.000005  -0.000017   0.000016   0.263970  -0.000002
     10       0.255455  -0.000004  -0.000000  -0.000001  -0.029948  -0.000008
     11       0.000041  -0.011659  -0.054081   0.165601  -0.000022   0.023777
     12       0.019792   0.000001   0.000007  -0.000007   0.086973  -0.000001
     13       0.079586  -0.000007  -0.000000   0.000001  -0.009298   0.000002
     14      -0.000024   0.118253   0.076941  -0.067114   0.000017  -0.017212
     15       0.177376  -0.000010   0.000002   0.000005  -0.163987   0.000005
     16      -0.126914   0.000014  -0.000001   0.000006  -0.160334   0.000003
     17      -0.000007  -0.119675  -0.128232  -0.026335  -0.000012  -0.044186
     18      -0.111901   0.000006   0.000002   0.000001  -0.139854   0.000001
     19       0.175356  -0.000009  -0.000000  -0.000001   0.114661  -0.000001
     20       0.000002  -0.022183  -0.017579   0.011904   0.000004   0.000305
     21       0.106102   0.000017  -0.000003  -0.000013  -0.077688   0.000003
     22       0.111858  -0.000006  -0.000002  -0.000006   0.024635   0.000003
     23      -0.000259  -0.030500   0.013216   0.033120   0.000121  -0.004491
     24       0.171433  -0.000022   0.000012   0.000026  -0.103948  -0.000002
     25       0.038004  -0.000004   0.000004   0.000009  -0.040624  -0.000001
     26       0.000176   0.007401  -0.002930  -0.006263  -0.000096   0.000625
     27      -0.162287   0.000021  -0.000013  -0.000018   0.547853  -0.000041
     28      -0.523077   0.000019   0.000005   0.000004  -0.175275   0.000008
     29       0.000104   0.591254  -0.183888   0.011538  -0.000029  -0.798078
     30       0.037243   0.000059  -0.000078  -0.000031  -0.075830   0.000056
     31       0.092130   0.000024  -0.000037  -0.000025   0.137880   0.000030
     32       0.000251   0.483628  -0.643909  -0.253467  -0.000021   0.491990
     33       0.050147  -0.000051   0.000032  -0.000161   0.571859  -0.000013
     34       0.253012   0.000003  -0.000005   0.000014  -0.098721  -0.000008
     35       0.000124  -0.249961   0.272016  -0.922418  -0.000187  -0.052059
     36       0.103166  -0.000004   0.000009   0.000008  -0.168227   0.000008
     37       0.092775  -0.000003  -0.000022   0.000001  -0.169054  -0.000005
     38       0.000236   0.550677   0.661846   0.201528   0.000054   0.307032
     39      -0.117377   0.000004   0.000002  -0.000001  -0.041004   0.000002
     40       0.175170  -0.000001   0.000000   0.000006  -0.106244  -0.000002
     41       0.000014   0.024983   0.000150   0.050651   0.000012   0.010269
                 24         25         26         27         28         29    
      0      -0.004921   0.036212  -0.024675   0.072698   0.017738  -0.040634
      1      -0.059490   0.117889  -0.008458  -0.016236   0.009579  -0.174236
      2      -0.000016  -0.000009   0.000004  -0.000004  -0.000006   0.000004
      3      -0.280975  -0.126620   0.020063  -0.027888  -0.007398   0.051757
      4       0.292479  -0.030363  -0.031310  -0.029763  -0.008939   0.026857
      5       0.000015   0.000008  -0.000001   0.000003  -0.000002  -0.000002
      6       0.021908  -0.010181   0.166770  -0.010252  -0.084670   0.256163
      7      -0.001588  -0.032939   0.049657   0.002769  -0.060161   0.142288
      8       0.000016  -0.000003  -0.000011  -0.000001   0.000005  -0.000024
      9      -0.072317   0.022389  -0.002289  -0.015069  -0.074954  -0.058169
     10      -0.396223   0.086048   0.004303   0.015744  -0.013808  -0.021817
     11       0.000004  -0.000001  -0.000005   0.000002   0.000008   0.000010
     12       0.010509  -0.018678   0.087596  -0.036299   0.065907  -0.224720
     13       0.007211  -0.026198  -0.067094  -0.009177   0.088171   0.274832
     14      -0.000014   0.000003  -0.000005  -0.000001  -0.000007   0.000021
     15       0.350741   0.094978   0.030534  -0.008445  -0.043503  -0.036345
     16       0.109856  -0.078454   0.004338   0.051872  -0.019888   0.052591
[...]
     29       0.000016  -0.000064   0.000001   0.000017  -0.000005   0.000000
     30      -0.309201   0.251993   0.077984  -0.403936   0.290207  -0.122136
     31      -0.395470   0.255614   0.276188  -0.332685   0.192786  -0.271093
     32       0.000050  -0.000106  -0.000031   0.000075  -0.000061   0.000038
     33       0.509347  -0.266189  -0.070571  -0.459860  -0.253707  -0.370548
     34      -0.160307   0.026664   0.146707   0.053152  -0.076866   0.169787
     35      -0.000072   0.000093   0.000012   0.000079   0.000049   0.000071
     36      -0.093330   0.134961  -0.183694  -0.123712  -0.189733   0.112020
     37       0.298005  -0.504469   0.538905  -0.009100   0.525318   0.162362
     38       0.000007  -0.000003   0.000012   0.000003   0.000011   0.000012
     39       0.179259   0.155261   0.240898  -0.126797  -0.071270   0.187952
     40      -0.366472  -0.338598  -0.424957   0.236907   0.144632  -0.353624
     41      -0.000003   0.000006  -0.000004   0.000001   0.000001  -0.000002
                 36         37         38         39         40         41    
      0       0.009045  -0.007973   0.016372  -0.001878   0.009313  -0.000261
      1       0.001128  -0.024265   0.075539  -0.004856   0.028671   0.000032
      2       0.000001   0.000000  -0.000001   0.000000  -0.000001  -0.000000
      3      -0.010051  -0.002486   0.018693   0.013882  -0.060323   0.000193
      4      -0.009537   0.002082  -0.020260  -0.011433   0.054076  -0.000085
      5       0.000003   0.000000  -0.000001  -0.000001   0.000004  -0.000000
      6      -0.119248  -0.000197   0.000464  -0.002340  -0.001802  -0.000102
      7      -0.035781   0.000193   0.000206   0.002569  -0.002551  -0.000045
      8       0.000001   0.000000   0.000000   0.000000   0.000000  -0.000000
      9      -0.013165  -0.000538  -0.000235  -0.019646  -0.003722   0.000801
     10       0.001640   0.000574   0.001633  -0.082857  -0.018550   0.000255
     11       0.000004   0.000000   0.000000   0.000002   0.000000  -0.000000
     12       0.008540   0.001185   0.000093   0.003819   0.000780  -0.001862
     13       0.004895  -0.003666  -0.002022   0.000329  -0.000427  -0.001757
     14      -0.000001  -0.000000  -0.000000  -0.000001   0.000000   0.000000
     15      -0.002528   0.077501   0.027566  -0.000772   0.006709   0.001500
     16      -0.000631   0.024650   0.006498   0.000632   0.000581  -0.000154
     17       0.000001  -0.000000  -0.000000  -0.000000  -0.000000   0.000000
     18      -0.000105  -0.000048  -0.000015  -0.000388  -0.000049  -0.057048
     19      -0.000992   0.000535   0.000420  -0.000075  -0.000005  -0.024669
     20       0.000001  -0.000000  -0.000000   0.000000  -0.000000   0.000001
     21       0.771858  -0.000117   0.000081   0.000161  -0.000006  -0.000068
     22       0.233878  -0.000026  -0.000050  -0.000331   0.000278   0.000000
     23       0.000645  -0.000000  -0.000000   0.000000   0.000000   0.000000
     24      -0.552604   0.000087  -0.000078   0.000105   0.000249   0.000029
     25      -0.167229   0.000012   0.000008   0.000107   0.000011   0.000010
     26      -0.000560  -0.000000  -0.000000  -0.000000  -0.000000  -0.000000
     27       0.003337   0.075675  -0.203859   0.013587  -0.077901   0.000274
     28       0.004588   0.305541  -0.862749   0.054301  -0.313346  -0.000715
     29       0.000002  -0.000002   0.000003  -0.000001   0.000002   0.000000
     30       0.000679   0.031862  -0.244627  -0.152902   0.676411  -0.000531
     31       0.005095  -0.028681   0.227852   0.138564  -0.616797   0.000458
     32      -0.000013  -0.000002   0.000014   0.000009  -0.000041   0.000000
     33       0.002905   0.000308  -0.003314   0.220578   0.047706   0.000609
     34      -0.004773  -0.004183  -0.017294   0.947614   0.207747   0.000105
     35      -0.000016  -0.000000   0.000000  -0.000021  -0.000005  -0.000000
     36      -0.003565  -0.902118  -0.294516   0.005167  -0.064302  -0.006493
     37      -0.001771  -0.279039  -0.087991   0.000722  -0.017892  -0.000037
     38      -0.000007   0.000001   0.000001  -0.000000   0.000000   0.000000
     39      -0.001853  -0.008991  -0.003465  -0.001018  -0.000104   0.908807
     40       0.005789   0.003158   0.000069   0.001775   0.000504   0.412497
     41      -0.000002   0.000000   0.000000   0.000000  -0.000000  -0.000019


-----------
IR SPECTRUM
-----------

 Mode   freq       eps      Int      T**2         TX        TY        TZ
       cm**-1   L/(mol*cm) km/mol    a.u.
----------------------------------------------------------------------------
  6:    151.76   0.000111    0.56  0.000229  (-0.000090 -0.000059 -0.015120)
  7:    164.93   0.000540    2.73  0.001022  ( 0.005077 -0.031564  0.000009)
  8:    234.17   0.000031    0.16  0.000041  (-0.000001  0.000010 -0.006400)
  9:    402.35   0.000006    0.03  0.000004  ( 0.000003 -0.000049  0.002077)
 10:    408.64   0.002056   10.39  0.001570  (-0.026203  0.029723 -0.000029)
 11:    436.60   0.019746   99.79  0.014114  (-0.000027  0.000008  0.118801)
 12:    466.14   0.000044    0.22  0.000029  (-0.004737  0.002594  0.000061)
 13:    482.46   0.002153   10.88  0.001393  (-0.000016 -0.000027  0.037319)
 14:    541.54   0.000552    2.79  0.000318  ( 0.007042 -0.016393 -0.000008)
 15:    590.95   0.000038    0.19  0.000020  ( 0.004231  0.001552 -0.000002)
 16:    631.01   0.000074    0.37  0.000037  (-0.000027  0.000004 -0.006044)
 17:    695.77   0.004760   24.06  0.002135  ( 0.000037  0.000022  0.046205)
 18:    733.32   0.000253    1.28  0.000108  ( 0.006802 -0.007834  0.000006)
 19:    784.19   0.007951   40.18  0.003164  (-0.000043  0.000012  0.056249)
 20:    875.65   0.000229    1.16  0.000082  (-0.000002 -0.000011  0.009033)
 21:    889.74   0.003347   16.91  0.001174  ( 0.000027  0.000015 -0.034260)
 22:    951.03   0.008579   43.35  0.002815  ( 0.045934 -0.026555 -0.000003)
 23:    955.56   0.000003    0.01  0.000001  (-0.000001 -0.000005  0.000939)
 24:   1016.84   0.001542    7.79  0.000473  ( 0.017507 -0.012917  0.000001)
 25:   1111.83   0.001295    6.55  0.000364  (-0.018521 -0.004533  0.000001)
 26:   1158.23   0.009016   45.56  0.002429  ( 0.032948 -0.036657 -0.000001)
 27:   1189.69   0.002489   12.58  0.000653  (-0.011710  0.022711 -0.000000)
 28:   1218.22   0.017525   88.57  0.004489  ( 0.048114 -0.046630  0.000000)
 29:   1294.96   0.014661   74.09  0.003533  (-0.049169  0.033400  0.000001)
 30:   1327.26   0.012578   63.56  0.002957  ( 0.043310 -0.032888 -0.000002)
 31:   1360.79   0.001618    8.18  0.000371  ( 0.017580  0.007873 -0.000002)
 32:   1491.89   0.001479    7.47  0.000309  (-0.009852  0.014569  0.000000)
 33:   1510.46   0.008615   43.54  0.001780  (-0.035474  0.022837  0.000004)
 34:   1610.58   0.018103   91.49  0.003508  (-0.036738  0.046454  0.000002)
 35:   1643.91   0.004212   21.29  0.000800  (-0.026682  0.009362  0.000003)
 36:   2281.72   0.005387   27.22  0.000737  ( 0.025787  0.008475 -0.000018)
 37:   3158.37   0.001665    8.41  0.000164  ( 0.011736 -0.005174 -0.000000)
 38:   3180.75   0.001136    5.74  0.000111  ( 0.006937  0.007956 -0.000001)
 39:   3199.09   0.000108    0.55  0.000011  ( 0.003234 -0.000246  0.000000)
 40:   3202.15   0.000294    1.49  0.000029  ( 0.001360  0.005176  0.000000)
 41:   3749.99   0.013749   69.48  0.001144  ( 0.033685 -0.003070 -0.000001)

* The epsilon (eps) is given for a Dirac delta lineshape.
** The dipole moment derivative (T) already includes vibrational overlap.

The first frequency considered to be a vibration is 6
The total number of vibrations considered is 36


--------------------------
THERMOCHEMISTRY AT 298.15K
--------------------------

Temperature         ...   298.15 K
Pressure            ...     1.00 atm
Total Mass          ...   119.12 AMU
Quasi RRHO          ...     True
Cut-Off Frequency   ...     1.00 cm^-1

Throughout the following assumptions are being made:
  (1) The electronic state is orbitally nondegenerate
  (2) There are no thermally accessible electronically excited states
  (3) Hindered rotations indicated by low frequency modes are not
      treated as such but are treated as vibrations and this may
      cause some error
  (4) All equations used are the standard statistical mechanics
      equations for an ideal gas
  (5) All vibrations are strictly harmonic

freq.     151.76  E(vib)   ...       0.40 
freq.     164.93  E(vib)   ...       0.39 
freq.     234.17  E(vib)   ...       0.32 
freq.     402.35  E(vib)   ...       0.19 
freq.     408.64  E(vib)   ...       0.19 
freq.     436.60  E(vib)   ...       0.17 
freq.     466.14  E(vib)   ...       0.16 
freq.     482.46  E(vib)   ...       0.15 
freq.     541.54  E(vib)   ...       0.12 
freq.     590.95  E(vib)   ...       0.10 
freq.     631.01  E(vib)   ...       0.09 
freq.     695.77  E(vib)   ...       0.07 
freq.     733.32  E(vib)   ...       0.06 
freq.     784.19  E(vib)   ...       0.05 
freq.     875.65  E(vib)   ...       0.04 
freq.     889.74  E(vib)   ...       0.04 
freq.     951.03  E(vib)   ...       0.03 
freq.     955.56  E(vib)   ...       0.03 
freq.    1016.84  E(vib)   ...       0.02 
freq.    1111.83  E(vib)   ...       0.01 
freq.    1158.23  E(vib)   ...       0.01 
freq.    1189.69  E(vib)   ...       0.01 
freq.    1218.22  E(vib)   ...       0.01 
freq.    1294.96  E(vib)   ...       0.01 
freq.    1327.26  E(vib)   ...       0.01 
freq.    1360.79  E(vib)   ...       0.01 
freq.    1491.89  E(vib)   ...       0.00 
freq.    1510.46  E(vib)   ...       0.00 
freq.    1610.58  E(vib)   ...       0.00 
freq.    1643.91  E(vib)   ...       0.00 
freq.    2281.72  E(vib)   ...       0.00 
freq.    3158.37  E(vib)   ...       0.00 
freq.    3180.75  E(vib)   ...       0.00 
freq.    3199.09  E(vib)   ...       0.00 
freq.    3202.15  E(vib)   ...       0.00 
freq.    3749.99  E(vib)   ...       0.00 

------------
INNER ENERGY
------------

The inner energy is: U= E(el) + E(ZPE) + E(vib) + E(rot) + E(trans)
    E(el)   - is the total energy from the electronic structure calculation
              = E(kin-el) + E(nuc-el) + E(el-el) + E(nuc-nuc)
    E(ZPE)  - the the zero temperature vibrational energy from the frequency calculation
    E(vib)  - the the finite temperature correction to E(ZPE) due to population
              of excited vibrational states
    E(rot)  - is the rotational thermal energy
    E(trans)- is the translational thermal energy

Summary of contributions to the inner energy U:
Electronic energy                ...   -399.65273229 Eh
Zero point energy                ...      0.10275121 Eh      64.48 kcal/mol
Thermal vibrational correction   ...      0.00430055 Eh       2.70 kcal/mol
Thermal rotational correction    ...      0.00141627 Eh       0.89 kcal/mol
Thermal translational correction ...      0.00141627 Eh       0.89 kcal/mol
-----------------------------------------------------------------------
Total thermal energy                   -399.54284799 Eh


Summary of corrections to the electronic energy:
(perhaps to be used in another calculation)
Total thermal correction                  0.00713310 Eh       4.48 kcal/mol
Non-thermal (ZPE) correction              0.10275121 Eh      64.48 kcal/mol
-----------------------------------------------------------------------
Total correction                          0.10988430 Eh      68.95 kcal/mol


--------
ENTHALPY
--------

The enthalpy is H = U + kB*T
                kB is Boltzmann's constant
Total thermal energy              ...   -399.54284799 Eh 
Thermal Enthalpy correction       ...      0.00094421 Eh       0.59 kcal/mol
-----------------------------------------------------------------------
Total Enthalpy                    ...   -399.54190378 Eh


Note: Only C1 symmetry has been detected, increase convergence thresholds 
      if your molecule has a higher symmetry. Symmetry factor of 1.0 is   
      used for the rotational entropy correction. 
 

Note: Rotational entropy computed according to Herzberg 
Infrared and Raman Spectra, Chapter V,1, Van Nostrand Reinhold, 1945 
Point Group:  C1, Symmetry Number:   1  
Rotational constants in cm-1:     0.113768     0.040494     0.029864 

Vibrational entropy computed according to the QRRHO of S. Grimme
Chem.Eur.J. 2012 18 9955 using a reference frequency of 100.0 cm-1


-------
ENTROPY
-------

The entropy contributions are T*S = T*(S(el)+S(vib)+S(rot)+S(trans))
     S(el)   - electronic entropy
     S(vib)  - vibrational entropy
     S(rot)  - rotational entropy
     S(trans)- translational entropy
The entropies will be listed as multiplied by the temperature to get
units of energy

Electronic entropy                ...      0.00000000 Eh      0.00 kcal/mol
Vibrational entropy               ...      0.00678090 Eh      4.26 kcal/mol
Rotational entropy                ...      0.01370830 Eh      8.60 kcal/mol
Translational entropy             ...      0.01911907 Eh     12.00 kcal/mol
-----------------------------------------------------------------------
Final entropy term                ...      0.03960827 Eh     24.85 kcal/mol

In case the symmetry of your molecule has not been determined correctly
or in case you have a reason to use a different symmetry number we print 
out the resulting rotational entropy values for sn=1,12:

 non-linear molecules -----------------------------------
|  sn= 1 | S(rot)=       0.01370830 Eh      8.60 kcal/mol|
|  sn= 2 | S(rot)=       0.01305384 Eh      8.19 kcal/mol|
|  sn= 3 | S(rot)=       0.01267101 Eh      7.95 kcal/mol|
|  sn= 4 | S(rot)=       0.01239938 Eh      7.78 kcal/mol|
|  sn= 5 | S(rot)=       0.01218870 Eh      7.65 kcal/mol|
|  sn= 6 | S(rot)=       0.01201655 Eh      7.54 kcal/mol|
|  sn= 7 | S(rot)=       0.01187100 Eh      7.45 kcal/mol|
|  sn= 8 | S(rot)=       0.01174493 Eh      7.37 kcal/mol|
|  sn= 9 | S(rot)=       0.01163372 Eh      7.30 kcal/mol|
|  sn=10 | S(rot)=       0.01153424 Eh      7.24 kcal/mol|
|  sn=11 | S(rot)=       0.01144425 Eh      7.18 kcal/mol|
|  sn=12 | S(rot)=       0.01136209 Eh      7.13 kcal/mol|
 linear molecules ---------------------------------------
|  Dinfh | S(rot)=       0.00864091 Eh      5.42 kcal/mol|
|  Cinfv | S(rot)=       0.00929536 Eh      5.83 kcal/mol|
 --------------------------------------------------------


-------------------
GIBBS FREE ENERGY
-------------------

The Gibbs free energy is G = H - T*S

Total enthalpy                    ...   -399.54190378 Eh 
Total entropy correction          ...     -0.03960827 Eh    -24.85 kcal/mol
-----------------------------------------------------------------------
Final Gibbs free energy         ...   -399.58151205 Eh

For completeness - the Gibbs free energy minus the electronic energy
G-E(el)                           ...      0.07122024 Eh     44.69 kcal/mol


Maximum memory used throughout the entire PROP-calculation: 60.6 MB

--------------------------------
SUGGESTED CITATIONS FOR THIS RUN
--------------------------------

Below you find a list of papers that are relevant to this ORCA run
We neither can nor want to force you to cite these papers, but we appreciate if you do
You receive ORCA, which is the product of decades of hard work by many enthusiastic individuals, for free
The only thing we kindly ask in return is that you cite our papers,
We deeply appreciate it, if you show your appreciation for ORCA by not just citing the generic ORCA reference.

Please note that relegating all ORCA citations to the supporting information does *not* help us.
SI sections are not indexed - citations you put there will not count into any citation statistics
But we need these citations in order to attract the funding resources that allow us to do what we are doing

Therefore, if you are a happy ORCA user, please consider citing a few of the papers listed below in the main body of your paper

In addition to the list printed below, the program has created the file censo.bibtex that contains the list in bibtex format
You can import this file easily into all common literature databanks and citation aid programs


List of essential papers. We consider these as the minimum necessary citations

  1. Neese,F.
     Software update: the ORCA program system, version 5.0
     WIRES Comput. Molec. Sci., 2022 12(1)e1606
     doi.org/10.1002/wcms.1606
  2. Grimme,S.; Hansen,A.; Ehlert,S.; Mewes,J.
     r2SCAN-3c: A 'Swiss army knife' composite electronic-structure method
     J. Chem. Phys., 2021 154 064103
     doi.org/10.1063/5.0040021

List of papers to cite with high priority. The work reported in these papers was absolutely
necessary for this run to complete.
Our perspective: the developers of density functionals and basis sets usually get cited in chemistry papers
Good! But without the algorithms to do something with them, the functionals or basis sets would not do anything.
Hence, in our opinion, the algorithm design and method developments papers are equally worthy of getting cited

  1. Neese,F.
     An improvement of the resolution of the identity approximation for the formation of the Coulomb matrix
     J. Comp. Chem., 2003 24(14)1740-1747
     doi.org/10.1002/jcc.10318
  2. Bykov,D.; Petrenko,T.; Izsak,R.; Kossmann,S.; Becker,U.; Valeev,E.; Neese,F.
     Efficient implementation of the analytic second derivatives of Hartree-Fock and hybrid DFT energies: a detailed analysis of different approximations
     Molec. Phys., 2015 113 1961-1977
     doi.org/10.1080/00268976.2015.1025114
  3. Neese,F.
     The SHARK Integral Generation and Digestion System
     J. Comp. Chem., 2022  1-16
     doi.org/10.1002/jcc.26942
  4. Lehtola,S.; Steigemann,C.; Oliveira,M.; Marques,M.
     Recent developments in Libxc - A comprehensive library of functionals for density functional theory
     Software X, 2018 7 
     doi.org/10.1016/j.softx.2017.11.002
  5. Caldeweyher,E.; Bannwarth,C.; Grimme,S.
     Extension of the D3 dispersion coefficient model
     J. Chem. Phys., 2017 147 034112-XXXX
     doi.org/10.1063/1.4993215
  6. Caldeweyher,E.; Ehlert,S.; Hansen,A.; Neugebauer,H.; Spicher,S.; Bannwarth,C.; Grimme,S.
     A generally applicable atomic-charge dependent London dispersion correction
     J. Chem. Phys., 2019 150 154122-XXXX
     doi.org/10.1063/1.5090222
  7. Caldeweyher,E.; Mewes,J.; Ehlert,S.; Grimme,S.
     Extension and evaluation of the D4 London-dispersion model for periodic systems
     Phys. Chem. Chem. Phys., 2020 22(16)8499-8512
     doi.org/10.1039/D0CP00502A

List of suggested additional citations. These are papers that are important in the 'surrounding' of 
of this run, or papers that preceded the highly important papers. If you like your results we are grateful for a citation.

  1. Neese,F.
     The ORCA program system
     WIRES Comput. Molec. Sci., 2012 2(1)73-78
     doi.org/10.1002/wcms.81
  2. Neese,F.
     Software update: the ORCA program system, version 4.0
     WIRES Comput. Molec. Sci., 2018 8(1)1-6
     doi.org/10.1002/wcms.1327
  3. Neese,F.; Wennmohs,F.; Becker,U.; Riplinger,C.
     The ORCA quantum chemistry program package
     J. Chem. Phys., 2020 152 Art. No. L224108
     doi.org/10.1063/5.0004608

List of optional additional citations

  1. Neese,F.
     Approximate second-order SCF convergence for spin unrestricted wavefunctions
     Chem. Phys. Lett., 2000 325(1-3)93-98
     doi.org/10.1016/s0009-2614(00)00662-x

Timings for individual modules:

Sum of individual times          ...      967.202 sec (=  16.120 min)
Startup calculation              ...        1.345 sec (=   0.022 min)   0.1 %
SCF iterations                   ...       44.099 sec (=   0.735 min)   4.6 %
Property integrals               ...      643.324 sec (=  10.722 min)  66.5 %
SCF Response                     ...      149.129 sec (=   2.485 min)  15.4 %
Property calculations            ...      129.305 sec (=   2.155 min)  13.4 %
                             ****ORCA TERMINATED NORMALLY****
TOTAL RUN TIME: 0 days 0 hours 16 minutes 7 seconds 998 msec
