29
 energy: -34.680125872683 gnorm: 0.033363690269 xtb: 6.7.1 (edcfbbe)
C           -3.72098772943462        0.15704068830384       -0.28583028531316
C           -2.28152408285633        0.11455952027854        0.21934613443467
H           -2.29497928044507       -0.05416920587591        1.30643067922279
C           -1.54086680611402        1.42525816605378       -0.05118576991839
C           -0.08246035713613        1.38568088867516        0.40702388162459
C            0.70435429266235        0.22275681902093       -0.24525523382063
H            0.64698578381225        0.37266803428740       -1.33647135930272
C           -0.07672373843329       -1.04765676002046        0.08092309228468
O            0.36702709182555       -1.94048394366473        0.77561399126032
C           -1.50472681808840       -1.05627506195989       -0.41926132143848
C            2.18062854931874        0.12943318000278        0.16782559234161
C            2.91329358355163       -0.88665077464319       -0.71456418088735
C            2.89365101025493        1.48238343395407        0.09962602216954
H           -4.28153955692676        0.96702005141326        0.19229129326618
H           -3.74307841987259        0.32495339286057       -1.36895291273108
H           -4.24201131503319       -0.78325817321436       -0.08027937303341
H           -1.57614857380438        1.63441839966345       -1.13075876377264
H           -2.06259579439445        2.25243007061953        0.44544454457517
H            0.40216117713861        2.33457353131440        0.15951211391036
H           -0.03340401206241        1.27525365367226        1.49954398108800
H           -1.51294470580630       -0.92562324132972       -1.51078402147330
H           -1.96274700685361       -2.01840937930711       -0.17411387577988
H            2.20718699173025       -0.23401803943231        1.20301708067662
H            2.92731747124699       -0.54578091413742       -1.75743612967063
H            2.43822930690268       -1.86927083837283       -0.67462994380982
H            3.95225038475099       -1.00209485853928       -0.39002726898032
H            3.96304223308170        1.35315971466777        0.29400238503448
H            2.51206706334973        2.19637511073717        0.83464297466846
H            2.79169321085065        1.93134381570053       -0.89656245933757
29
 energy: -34.681413479820 gnorm: 0.009531986759 xtb: 6.7.1 (edcfbbe)
C           -3.70456442897729        0.15629883063739       -0.28637398721278
C           -2.26968946534381        0.11174903130827        0.22740678931550
H           -2.28794717696799       -0.05465849174020        1.31210534898026
C           -1.53573425123654        1.42052698941266       -0.05960703243629
C           -0.08434023750957        1.38084116735098        0.40903461926827
C            0.69305195859901        0.22743932847197       -0.25791102341153
H            0.64019889730332        0.37217454671778       -1.34597513483278
C           -0.07555525180263       -1.03702525866791        0.09149254959368
O            0.37285342815768       -1.93089166635942        0.76813181291204
C           -1.49496575883295       -1.04699873193101       -0.42290458936947
C            2.16668034321399        0.13288773637216        0.16991931497676
C            2.89950563500682       -0.87716203817060       -0.71373638320281
C            2.88876967779590        1.47673272286638        0.09674799686001
H           -4.25868565436474        0.96235382738881        0.19338017595411
H           -3.72625303130377        0.32345223502215       -1.36388136108236
H           -4.21932906922969       -0.78026817981680       -0.07714752005431
H           -1.56672430015335        1.62583724071417       -1.13578867842364
H           -2.05226519269540        2.24254891666249        0.44385765374810
H            0.39212019786075        2.32975047421822        0.15797570598376
H           -0.04308278097723        1.26161287540097        1.49684903372494
H           -1.49943018528386       -0.91917645404534       -1.50979998941057
H           -1.95849276722636       -2.00356095660210       -0.17660230265804
H            2.19773855941467       -0.22956489894084        1.20376527949979
H            2.91187301551479       -0.54316750746926       -1.75266463647660
H            2.42117765855476       -1.85239336087248       -0.66607885564942
H            3.93140226423589       -0.99140917023631       -0.38331632221636
H            3.95184731454304        1.33719110354746        0.29072631052763
H            2.50929666302214        2.18087274854723        0.83450447933078
H            2.78369389189792        1.91962422094140       -0.89497838695059
29
 energy: -34.681543641863 gnorm: 0.002271611767 xtb: 6.7.1 (edcfbbe)
C           -3.69888687207130        0.15465907750630       -0.28515752567804
C           -2.26261397983089        0.11265555998068        0.22514186214858
H           -2.27992529584051       -0.05205053907146        1.30824449735163
C           -1.53465641941178        1.42353954253479       -0.06207617498851
C           -0.08445989938356        1.38099115892489        0.40780533069129
C            0.68938115336097        0.22917899859464       -0.25897161305048
H            0.64199012538486        0.37346069341832       -1.34434362172791
C           -0.06900173554304       -1.03982502536621        0.08660653461521
O            0.37711718662781       -1.92818318144291        0.76703713156073
C           -1.48947025659241       -1.04476741209116       -0.42368564902893
C            2.16312013481853        0.13536700291705        0.16949287877852
C            2.89114931913030       -0.87804461735619       -0.71332529594600
C            2.88532478176524        1.47857746267474        0.09726578465263
H           -4.24949930249070        0.96007318987278        0.19536383283000
H           -3.71776430312968        0.32098326423249       -1.36018966690533
H           -4.20921446279513       -0.78180003837818       -0.07407220788098
H           -1.56300248876573        1.62248269264161       -1.13670070627413
H           -2.05107172763000        2.24435844381368        0.44090511704496
H            0.39133990672512        2.33052157872455        0.16225527977174
H           -0.04844306667016        1.25252171561645        1.49226945327754
H           -1.49323100726644       -0.91740733102809       -1.50779337382758
H           -1.95752199687719       -1.99879596408568       -0.17710810553058
H            2.19101681864003       -0.22699552930767        1.20217907013098
H            2.90003727313701       -0.54447923295119       -1.74968164644533
H            2.40915928881466       -1.84978134028181       -0.66239290141452
H            3.92076102948173       -0.99245582615583       -0.38295082498479
H            3.94585929722199        1.33310711025816        0.28899402259110
H            2.50789932133964        2.17943551258997        0.83656253855972
H            2.77775713106610        1.91829031394346       -0.89254315303346
29
 energy: -34.681557262122 gnorm: 0.000818749411 xtb: 6.7.1 (edcfbbe)
C           -3.69870150363566        0.15306890967628       -0.28502772957824
C           -2.26156152236547        0.11293305945318        0.22445718543676
H           -2.27718534820347       -0.05153143151530        1.30756238085179
C           -1.53430337985085        1.42427249215933       -0.06306519263147
C           -0.08426847581574        1.38148088513360        0.40905384867645
C            0.68928627760666        0.23056150485734       -0.25800029396273
H            0.64167150502800        0.37463115462313       -1.34321171484731
C           -0.06971576154976       -1.03767087397644        0.08960174359597
O            0.37765228604804       -1.92790095649890        0.76753269765542
C           -1.48916169241307       -1.04430685214228       -0.42496123135483
C            2.16345582496196        0.13609805205810        0.16977468479157
C            2.88912186650938       -0.87929754698042       -0.71330813115267
C            2.88592637970323        1.47953643841393        0.09680390175787
H           -4.24887073623368        0.95860913040372        0.19575372862880
H           -3.71718096207686        0.31886295657531       -1.36014541713409
H           -4.20761201241623       -0.78398469310777       -0.07301102542116
H           -1.56119558586206        1.62158142831881       -1.13781054799603
H           -2.05169350026974        2.24541991829927        0.43795930612782
H            0.39311046948620        2.33084339203030        0.16638830030448
H           -0.05038211577293        1.25053654321607        1.49310945518384
H           -1.49015264023154       -0.91501752250202       -1.50885843985734
H           -1.95773717375720       -1.99894575599762       -0.18068147899883
H            2.19004425111482       -0.22562464523508        1.20265851639036
H            2.89581735465190       -0.54630026786717       -1.74990586484319
H            2.40521126505988       -1.85011681049040       -0.66030804342913
H            3.91908089002914       -0.99510366171354       -0.38476395992440
H            3.94669109981567        1.33337009960192        0.28656117692539
H            2.50969175807636        2.17971038188718        0.83740545976953
H            2.77611113557853        1.91990195204766       -0.89243244767658
29
 energy: -34.681565193627 gnorm: 0.001101480162 xtb: 6.7.1 (edcfbbe)
C           -3.69906592280984        0.15123885008102       -0.28421905263004
C           -2.26043907874658        0.11338579404601        0.22336881375983
H           -2.27321748220258       -0.05052314117159        1.30678855881529
C           -1.53378218598195        1.42494740015967       -0.06575316839447
C           -0.08490721646752        1.38188514148104        0.41205425482553
C            0.68938342688636        0.23254860165340       -0.25587177126585
H            0.64171740613825        0.37681213259883       -1.34114798245926
C           -0.06918092799984       -1.03676596782723        0.08975641824998
O            0.37781671551844       -1.92726031746169        0.76844055794606
C           -1.48818455616941       -1.04314982376926       -0.42727934385461
C            2.16407187535685        0.13713936460327        0.17132827090408
C            2.88613363370479       -0.88063245005597       -0.71270708742602
C            2.88770910347212        1.48031286736991        0.09577029921149
H           -4.24969011096080        0.95665798347462        0.19644340578679
H           -3.71849232611222        0.31535841536041       -1.35979500085762
H           -4.20558077949918       -0.78677541413702       -0.07021792613571
H           -1.55703289996262        1.62014762084013       -1.14107274691963
H           -2.05309313139750        2.24689063916673        0.43167235161173
H            0.39427501678758        2.33177236774347        0.17496462967183
H           -0.05576880507542        1.24771481964432        1.49599211271440
H           -1.48572403116863       -0.91176458380990       -1.51115205055771
H           -1.95761103066900       -1.99830004443662       -0.18601112206039
H            2.19053462680855       -0.22344561644703        1.20466923794438
H            2.88887380901015       -0.54948594295851       -1.75023771967340
H            2.39986961262226       -1.85029912937447       -0.65575866234335
H            3.91719369791188       -0.99849435841150       -0.38812135953769
H            3.94947434410519        1.33362383935725        0.28039007914584
H            2.51489331789641        2.17961411110340        0.83923704632798
H            2.77297385221975        1.92246412190547       -0.89240017551142
29
 energy: -34.681568735468 gnorm: 0.000472511385 xtb: 6.7.1 (edcfbbe)
C           -3.69922387392648        0.15060090247766       -0.28391039114750
C           -2.26024204211900        0.11355704896204        0.22205089814004
H           -2.27250444951720       -0.05048847244688        1.30545104283957
C           -1.53352808126208        1.42512568098532       -0.06656007809194
C           -0.08574342909117        1.38168087223701        0.41403392529279
C            0.68968466332626        0.23323445081749       -0.25440080846177
H            0.64188320163360        0.37884149408728       -1.33960157144902
C           -0.06911044177058       -1.03641830649540        0.08975684845220
O            0.37657082526695       -1.92634795061529        0.76956235365097
C           -1.48733720675626       -1.04245041055790       -0.42879489203689
C            2.16450308235386        0.13749295854427        0.17179691082332
C            2.88506371277424       -0.88130527707339       -0.71195531731582
C            2.88837181288174        1.48024436965575        0.09480101920265
H           -4.25017049815976        0.95572883594113        0.19673339353104
H           -3.72039812142629        0.31395285671127       -1.35952118901244
H           -4.20500635213362       -0.78749221783637       -0.06872381627551
H           -1.55412370215611        1.61926862099035       -1.14218628003342
H           -2.05388571110118        2.24771994507388        0.42887153290066
H            0.39372153656767        2.33212457628037        0.17962305311720
H           -0.05914779402450        1.24595493258561        1.49792089434715
H           -1.48399772445073       -0.90998827190748       -1.51254570009063
H           -1.95689439955387       -1.99774285664721       -0.18906867490269
H            2.19252719745758       -0.22227309457147        1.20533604526130
H            2.88588809188496       -0.55157735507329       -1.74987197583867
H            2.39940800493211       -1.85106109997336       -0.65296344002021
H            3.91680078710008       -0.99844330956418       -0.38937079254985
H            3.95079882208934        1.33312274090292        0.27518938166233
H            2.51883529184253        2.17940485457772        0.84011261134756
H            2.77040675055340        1.92315076266029       -0.89263411605442
29
 energy: -34.681570309948 gnorm: 0.000229408965 xtb: 6.7.1 (edcfbbe)
C           -3.69903765949003        0.15039817720355       -0.28426740562033
C           -2.26024777209890        0.11346899293686        0.22120829958848
H           -2.27256807623522       -0.05128770508052        1.30452428239336
C           -1.53301534391759        1.42488166456860       -0.06663069917226
C           -0.08614755856143        1.38128132548325        0.41620886853057
C            0.68983955404753        0.23353148174212       -0.25335526913155
H            0.64201036654308        0.38078952454874       -1.33836756201903
C           -0.06931804863045       -1.03619045067246        0.08979149079376
O            0.37499581918159       -1.92547881349933        0.77116640402502
C           -1.48678341026120       -1.04193649582233       -0.43033354761252
C            2.16450412932310        0.13771378182381        0.17229739518327
C            2.88454684354434       -0.88162555657458       -0.71102180334671
C            2.88838116615576        1.48017293636116        0.09306713899901
H           -4.24975938632819        0.95557388672314        0.19661072327579
H           -3.72152051494271        0.31345792910942       -1.35988866088178
H           -4.20482351987092       -0.78755773705636       -0.06833109500613
H           -1.55201134312483        1.61883208890408       -1.14234203930970
H           -2.05409031296786        2.24768415537034        0.42775638465548
H            0.39368515122796        2.33205853405895        0.18385799735343
H           -0.06088973859275        1.24385929756222        1.49990520889786
H           -1.48309724269896       -0.90839786435683       -1.51392384046920
H           -1.95645490066486       -1.99737832832114       -0.19173694255702
H            2.19353752959077       -0.22114589353120        1.20615484932035
H            2.88384396848836       -0.55370441424697       -1.74948124452303
H            2.40025986372016       -1.85186474747578       -0.64991335405581
H            3.91687772045131       -0.99703504430392       -0.38959179906826
H            3.95141508648923        1.33274408169856        0.26960381607849
H            2.52178251466402        2.17918128927323        0.83989210939566
H            2.76723506817419        1.92359118430157       -0.89372883842918
29
 energy: -34.681571071063 gnorm: 0.000223984216 xtb: 6.7.1 (edcfbbe)
C           -3.69882727026336        0.15065039324773       -0.28474921389751
C           -2.26016286669127        0.11316263024045        0.22077523023925
H           -2.27270079525511       -0.05241361443659        1.30395444641745
C           -1.53293907913510        1.42486191121279       -0.06586913034154
C           -0.08637530186711        1.38066553802238        0.41751255713898
C            0.68995058779543        0.23355825719724       -0.25306205953375
H            0.64185169620366        0.38167271529964       -1.33790386663636
C           -0.06946217847008       -1.03599390682232        0.08986620373229
O            0.37411597978558       -1.92475711602925        0.77242189751764
C           -1.48645680322001       -1.04189233230474       -0.43140634551490
C            2.16460314839761        0.13795727559698        0.17228305943791
C            2.88456424647274       -0.88224114081496       -0.71011620093789
C            2.88817796508763        1.48051372591534        0.09170450642057
H           -4.24936296693236        0.95598351516888        0.19615709579540
H           -3.72127415080995        0.31378829050092       -1.36034206405072
H           -4.20497090672805       -0.78714584988244       -0.06892412768957
H           -1.55121551155624        1.61922956660247       -1.14149807633473
H           -2.05429728534491        2.24749960317964        0.42854420052016
H            0.39366468221049        2.33160536129544        0.18638730045057
H           -0.06157098540182        1.24203613606339        1.50102301907221
H           -1.48241180672167       -0.90740910654329       -1.51483810520233
H           -1.95621449773368       -1.99753207758846       -0.19367934658793
H            2.19395184020047       -0.21995011029501        1.20644880955707
H            2.88259846600598       -0.55569318148867       -1.74898472085057
H            2.40113433425438       -1.85281341148923       -0.64727764278510
H            3.91731860173467       -0.99628418062728       -0.38948463897110
H            3.95164269811705        1.33324110295507        0.26564483443240
H            2.52325831616002        2.17950436269945        0.83935562360876
H            2.76455979692050        1.92381292385263       -0.89481237771867
29
 energy: -34.681571782886 gnorm: 0.000183952039 xtb: 6.7.1 (edcfbbe)
C           -3.69870607356043        0.15100176860355       -0.28548177733413
C           -2.26022061356330        0.11271903340125        0.22061610721768
H           -2.27312023621852       -0.05387655459205        1.30361550990167
C           -1.53278565754429        1.42463186951363       -0.06463203583110
C           -0.08616723499419        1.38007356891621        0.41843702931502
C            0.68998933854740        0.23337957791727       -0.25313778137576
H            0.64163361775360        0.38207759763999       -1.33784450106423
C           -0.06957031952424       -1.03596986450947        0.08979798403833
O            0.37332914213085       -1.92414788435007        0.77358494789841
C           -1.48628421473227       -1.04186659091039       -0.43226829852812
C            2.16462959399807        0.13816297865061        0.17223590458439
C            2.88482712054106       -0.88277277705199       -0.70916377452949
C            2.88774360154276        1.48096195636601        0.09016393287176
H           -4.24890694042714        0.95654718586583        0.19544116112745
H           -3.72043931322467        0.31460953466261       -1.36100821717219
H           -4.20558675075212       -0.78652674358121       -0.07026167225250
H           -1.55129276958502        1.62020471102365       -1.14002200824386
H           -2.05408060064314        2.24665639231374        0.43082138044314
H            0.39391411940738        2.33116404429290        0.18807452929713
H           -0.06116603339752        1.24036664524774        1.50177782420959
H           -1.48195445272949       -0.90658808742839       -1.51556198393579
H           -1.95612674881824       -1.99763938141189       -0.19523777255639
H            2.19394854789691       -0.21869756011590        1.20675681047247
H            2.88195517822137       -0.55779977736975       -1.74851382873914
H            2.40216646177889       -1.85360861085725       -0.64451711146503
H            3.91784216624556       -0.99551755298584       -0.38897339537993
H            3.95151795579320        1.33412396925089        0.26229176308907
H            2.52385285871982        2.17991203625198        0.83833475375685
H            2.76220821035318        1.92403579597451       -0.89619461252729
29
 energy: -34.681572306176 gnorm: 0.000108463352 xtb: 6.7.1 (edcfbbe)
C           -3.69845998203830        0.15131725702592       -0.28636460985919
C           -2.26025028984766        0.11226511795994        0.22069852441961
H           -2.27371165956846       -0.05528111205766        1.30354986617680
C           -1.53297749476076        1.42459232254978       -0.06321398355897
C           -0.08609722858315        1.37955374332768        0.41916225779611
C            0.68995901275708        0.23328309664466       -0.25318686681546
H            0.64142678983561        0.38221352495239       -1.33784240620318
C           -0.06961302808052       -1.03599030062419        0.08982084910554
O            0.37289807244973       -1.92386501039693        0.77431174121605
C           -1.48616822716144       -1.04185243146376       -0.43287085561054
C            2.16469861733120        0.13840404360300        0.17208259150467
C            2.88503565528273       -0.88333904816427       -0.70828771176248
C            2.88749510390854        1.48136400081344        0.08868611409681
H           -4.24856146272055        0.95686975473458        0.19465627166102
H           -3.71934016686465        0.31550268390952       -1.36184336128442
H           -4.20581802079001       -0.78612339208109       -0.07194182226375
H           -1.55211102145071        1.62165426046365       -1.13833986993094
H           -2.05402793832628        2.24589373910333        0.43368653315234
H            0.39383512540045        2.33075728693305        0.18905086967840
H           -0.06048053840945        1.23929693531645        1.50242889313946
H           -1.48143562729205       -0.90579474861617       -1.51607268372662
H           -1.95602979850984       -1.99781345697260       -0.19661693486018
H            2.19394868904538       -0.21744482872031        1.20694531069055
H            2.88158046818679       -0.55981000656877       -1.74808994498216
H            2.40276378194883       -1.85427056658042       -0.64205183712491
H            3.91822176072388       -0.99521071395627       -0.38833576468445
H            3.95149104742120        1.33491881797631        0.25979524843510
H            2.52412104631821        2.18044705479124        0.83699972248859
H            2.76075726700968        1.92407925682568       -0.89768527360578
29
 energy: -34.681572480348 gnorm: 0.000239244823 xtb: 6.7.1 (edcfbbe)
C           -3.69821389051617        0.15163274544829       -0.28724744238425
C           -2.26027996613201        0.11181120251862        0.22078094162155
H           -2.27430308291840       -0.05668566952326        1.30348422245192
C           -1.53316933197722        1.42455277558592       -0.06179593128685
C           -0.08602722217210        1.37903391773916        0.41988748627719
C            0.68992868696676        0.23318661537206       -0.25323595225516
H            0.64121996191761        0.38234945226480       -1.33784031134212
C           -0.06965573663680       -1.03601073673890        0.08984371417276
O            0.37246700276861       -1.92358213644379        0.77503853453369
C           -1.48605223959061       -1.04183827201712       -0.43347341269297
C            2.16476764066432        0.13864510855538        0.17192927842496
C            2.88524419002440       -0.88390531927655       -0.70741164899547
C            2.88724660627431        1.48176604526087        0.08720829532186
H           -4.24821598501396        0.95719232360332        0.19387138219460
H           -3.71824102050463        0.31639583315643       -1.36267850539665
H           -4.20604929082790       -0.78572004058097       -0.07362197227501
H           -1.55292927331639        1.62310380990365       -1.13665773161802
H           -2.05397527600943        2.24513108589291        0.43655168586153
H            0.39375613139353        2.33035052957320        0.19002721005968
H           -0.05979504342138        1.23822722538516        1.50307996206932
H           -1.48091680185462       -0.90500140980395       -1.51658338351746
H           -1.95593284820144       -1.99798753253332       -0.19799609716397
H            2.19394883019384       -0.21619209732472        1.20713381090862
H            2.88120575815222       -0.56182023576780       -1.74766606122519
H            2.40336110211878       -1.85493252230358       -0.63958656278480
H            3.91860135520220       -0.99490387492670       -0.38769813398897
H            3.95146413904919        1.33571366670173        0.25729873378113
H            2.52438923391661        2.18098207333050        0.83566469122033
H            2.75930632366618        1.92412271767685       -0.89917593468427
29
 energy: -34.681572747658 gnorm: 0.000145596038 xtb: 6.7.1 (edcfbbe)
C           -3.69830203996615        0.15139603701651       -0.28748610644757
C           -2.26040088376166        0.11174208145992        0.22066642641416
H           -2.27462965997365       -0.05698820636826        1.30331461889201
C           -1.53311150966845        1.42449963295212       -0.06130842848852
C           -0.08588687749601        1.37919506709810        0.42019345829209
C            0.68993941550337        0.23338138111763       -0.25307216445393
H            0.64115713930376        0.38261827865102       -1.33766808035187
C           -0.06959655684247       -1.03589712601219        0.08986774251822
O            0.37253617556110       -1.92359648947611        0.77486838207438
C           -1.48592766070440       -1.04166886175796       -0.43361870261779
C            2.16480389430122        0.13880663178568        0.17202236900846
C            2.88495068518709       -0.88412062898593       -0.70714484012745
C            2.88740375067283        1.48181116406010        0.08677151874812
H           -4.24856185961286        0.95676898581200        0.19364611548314
H           -3.71806078337793        0.31642211274425       -1.36286001139226
H           -4.20605515535715       -0.78610192593714       -0.07427303377671
H           -1.55292978749287        1.62347713248395       -1.13606920228356
H           -2.05396210094445        2.24485733588128        0.43733734143230
H            0.39385432157159        2.33059100920453        0.19043396587413
H           -0.05971524394919        1.23828797430452        1.50338156623051
H           -1.48059591546138       -0.90457711743307       -1.51669165119856
H           -1.95583868603834       -1.99787953766385       -0.19845538481002
H            2.19415187237663       -0.21570963585838        1.20733959695530
H            2.88082789528023       -0.56232486496702       -1.74748701870511
H            2.40296970124282       -1.85507482862599       -0.63901108003196
H            3.91834308794670       -0.99517669878773       -0.38755235009583
H            3.95161889878341        1.33570790356051        0.25685809630987
H            2.52467124966689        2.18141307227879        0.83492845052724
H            2.75949658646481        1.92375740219089       -0.89980072669079
29
 energy: -34.681573044015 gnorm: 0.000082778250 xtb: 6.7.1 (edcfbbe)
C           -3.69827857151141        0.15097323973500       -0.28772925613627
C           -2.26046609989248        0.11178203273162        0.22058168503844
H           -2.27487378180631       -0.05714643445026        1.30319541337808
C           -1.53318511137641        1.42461866886755       -0.06098264030473
C           -0.08601603307209        1.37946611373109        0.42073794385954
C            0.68993664165134        0.23377072226547       -0.25254795275585
H            0.64114072667953        0.38330240139804       -1.33710799075241
C           -0.06947678103785       -1.03576584236973        0.08978842323108
O            0.37271513888432       -1.92378468442750        0.77424954441277
C           -1.48571478609516       -1.04136772263492       -0.43374746099501
C            2.16482608808080        0.13899885330418        0.17229367117539
C            2.88442164587918       -0.88429894276274       -0.70687187489048
C            2.88782742708169        1.48167617420488        0.08622440020403
H           -4.24912164738050        0.95582392118224        0.19358407392708
H           -3.71805695803698        0.31638014689266       -1.36302913072261
H           -4.20559711923193       -0.78686831317791       -0.07496041789225
H           -1.55279708403074        1.62382372691463       -1.13569417731831
H           -2.05424023115306        2.24480860829018        0.43772718509616
H            0.39365429790304        2.33096081574910        0.19111240725903
H           -0.06000742983007        1.23850409055342        1.50392107632931
H           -1.48021634562608       -0.90403478230542       -1.51677941076393
H           -1.95562466812795       -1.99765131342417       -0.19893508971515
H            2.19450903997082       -0.21518121208685        1.20772448223229
H            2.88026816142212       -0.56262375617197       -1.74724528232837