      -----------------------------------------------------------      
     |                   =====================                   |     
     |                           x T B                           |     
     |                   =====================                   |     
     |                         S. Grimme                         |     
     |          Mulliken Center for Theoretical Chemistry        |     
     |                    University of Bonn                     |     
      -----------------------------------------------------------      

   * xtb version 6.7.1 (edcfbbe) compiled by 'albert@albert-system' on 2024-07-22

   xtb is free software: you can redistribute it and/or modify it under
   the terms of the GNU Lesser General Public License as published by
   the Free Software Foundation, either version 3 of the License, or
   (at your option) any later version.
   
   xtb is distributed in the hope that it will be useful,
   but WITHOUT ANY WARRANTY; without even the implied warranty of
   MERCHANTABILITY or FITNESS FOR A PARTICULAR PURPOSE.  See the
   GNU Lesser General Public License for more details.
   
   Cite this work as:
   * C. Bannwarth, E. Caldeweyher, S. Ehlert, A. Hansen, P. Pracht,
     J. Seibert, S. Spicher, S. Grimme, WIREs Comput. Mol. Sci., 2020, 11,
     e01493. DOI: 10.1002/wcms.1493
   
   for GFN2-xTB:
   * C. Bannwarth, S. Ehlert and S. Grimme., J. Chem. Theory Comput., 2019,
     15, 1652-1671. DOI: 10.1021/acs.jctc.8b01176
   for GFN1-xTB:
   * S. Grimme, C. Bannwarth, P. Shushkov, J. Chem. Theory Comput., 2017,
     13, 1989-2009. DOI: 10.1021/acs.jctc.7b00118
   for GFN0-xTB:
   * P. Pracht, E. Caldeweyher, S. Ehlert, S. Grimme, ChemRxiv, 2019, preprint.
     DOI: 10.26434/chemrxiv.8326202.v1
   for GFN-FF:
   * S. Spicher and S. Grimme, Angew. Chem. Int. Ed., 2020, 59, 15665-15673.
     DOI: 10.1002/anie.202004239
   
   for ALPB and GBSA implicit solvation:
   * S. Ehlert, M. Stahn, S. Spicher, S. Grimme, J. Chem. Theory Comput.,
     2021, 17, 4250-4261. DOI: 10.1021/acs.jctc.1c00471
   
   for ddCOSMO and CPCM-X implicit solvation:
   * M. Stahn, S. Ehlert, S. Grimme, J. Phys. Chem. A,
     2023, XX, XXXX-XXXX. DOI: 10.1021/acs.jpca.3c04382
   
   for DFT-D4:
   * E. Caldeweyher, C. Bannwarth and S. Grimme, J. Chem. Phys., 2017,
     147, 034112. DOI: 10.1063/1.4993215
   * E. Caldeweyher, S. Ehlert, A. Hansen, H. Neugebauer, S. Spicher,
     C. Bannwarth and S. Grimme, J. Chem. Phys., 2019, 150, 154122.
     DOI: 10.1063/1.5090222
   * E. Caldeweyher, J.-M. Mewes, S. Ehlert and S. Grimme, Phys. Chem. Chem. Phys.
     2020, 22, 8499-8512. DOI: 10.1039/D0CP00502A
   
   for sTDA-xTB:
   * S. Grimme and C. Bannwarth, J. Chem. Phys., 2016, 145, 054103.
     DOI: 10.1063/1.4959605
   
   in the mass-spec context:
   * V. Asgeirsson, C. Bauer and S. Grimme, Chem. Sci., 2017, 8, 4879.
     DOI: 10.1039/c7sc00601b
   * J. Koopman and S. Grimme, ACS Omega 2019, 4, 12, 15120-15133.
     DOI: 10.1021/acsomega.9b02011
   
   for metadynamics refer to:
   * S. Grimme, J. Chem. Theory Comput., 2019, 155, 2847-2862
     DOI: 10.1021/acs.jctc.9b00143
   
   for SPH calculations refer to:
   * S. Spicher and S. Grimme, J. Chem. Theory Comput., 2021, 17, 1701-1714
     DOI: 10.1021/acs.jctc.0c01306
   
   for ONIOM refer to:
   * C. Plett, A. Katbashev, S. Ehlert, S. Grimme, M. Bursch,
     Phys. Chem. Chem. Phys., 2023, 25, 17860-17868. DOI: 10.1039/D3CP02178E
   
   for DIPRO refer to:
   * J. Kohn, N. Gildemeister, S. Grimme, D. Fazzi, A. Hansen,
     J. Chem. Phys., 2023, just accepted.
   
   for PTB refer to:
   * S. Grimme, M. Mueller, A. Hansen, J. Chem. Phys., 2023, 158, 124111.
     DOI: 10.1063/5.0137838
   
   with help from (in alphabetical order)
   P. Atkinson, C. Bannwarth, F. Bohle, G. Brandenburg, E. Caldeweyher
   M. Checinski, S. Dohm, S. Ehlert, S. Ehrlich, I. Gerasimov, C. Hölzer
   A. Katbashev, J. Kohn, J. Koopman, C. Lavigne, S. Lehtola, F. März, M. Müller,
   F. Musil, H. Neugebauer, J. Pisarek, C. Plett, P. Pracht, F. Pultar,
   J. Seibert, P. Shushkov, S. Spicher, M. Stahn, M. Steiner, T. Strunk,
   J. Stückrath, T. Rose, and J. Unsleber
   
 * started run on 2025/04/15 at 19:19:38.652     
   ID    Z sym.   atoms
    1    6 C      1, 2, 4, 5
    2    7 N      3, 6
    3    1 H      7-16

           -------------------------------------------------
          |                Calculation Setup                |
           -------------------------------------------------

          program call               : /software/projects/pawsey0265/mwang1/xtb/bin/xtb xtb_opt.coord --opt normal --orca -I xtb_opt-xcontrol-inp
          hostname                   : nid002793
          coordinate file            : xtb_opt.coord
          omp threads                :                    20

           -------------------------------------------------
          |                   Orca driver                   |
           -------------------------------------------------
orca executable           : /software/projects/pawsey0265/mwang1/orca_avx2/orca
orca input file           : xtb_opt.inp
orca input line           : 
orca parallel             : true
orca number of threads    : 20
                         * ORCA takes the control...
  ------------------------------------------------------------------------

                                 *****************
                                 * O   R   C   A *
                                 *****************

                                            #,                                       
                                            ###                                      
                                            ####                                     
                                            #####                                    
                                            ######                                   
                                           ########,                                 
                                     ,,################,,,,,                         
                               ,,#################################,,                 
                          ,,##########################################,,             
                       ,#########################################, ''#####,          
                    ,#############################################,,   '####,        
                  ,##################################################,,,,####,       
                ,###########''''           ''''###############################       
              ,#####''   ,,,,##########,,,,          '''####'''          '####       
            ,##' ,,,,###########################,,,                        '##       
           ' ,,###''''                  '''############,,,                           
         ,,##''                                '''############,,,,        ,,,,,,###''
      ,#''                                            '''#######################'''  
     '                                                          ''''####''''         
             ,#######,   #######,   ,#######,      ##                                
            ,#'     '#,  ##    ##  ,#'     '#,    #''#        ,####,   ,####,        
            ##       ##  ##   ,#'  ##            #'  '#       #'       #'  '#        
            ##       ##  #######   ##           ,######,      #####,   #    #        
            '#,     ,#'  ##    ##  '#,     ,#' ,#      #,     #,   #   #,  ,#        
             '#######'   ##     ##  '#######'  #'      '#     '####' # '####'        



                #########################################################
                #                        -***-                          #
                #          Department of theory and spectroscopy        #
                #                                                       #
                #                      Frank Neese                      #
                #                                                       #
                #     Directorship, Architecture, Infrastructure        #
                #                    SHARK, DRIVERS                     #
                #        Core code/Algorithms in most modules           #
                #                                                       #
                #        Max Planck Institute fuer Kohlenforschung      #
                #                Kaiser Wilhelm Platz 1                 #
                #                 D-45470 Muelheim/Ruhr                 #
                #                      Germany                          #
                #                                                       #
                #                  All rights reserved                  #
                #                        -***-                          #
                #########################################################


                         Program Version 6.0.1  -  RELEASE   -


 With contributions from (in alphabetic order):
[Max-Planck-Institut fuer Kohlenforschung]                               
  Daniel Aravena         : Magnetic Suceptibility                        
  Michael Atanasov       : Ab Initio Ligand Field Theory (pilot matlab implementation)
  Alexander A. Auer      : GIAO ZORA, VPT2 properties, NMR spectrum      
  Ute Becker             : All parallelization in ORCA, NUMFREQ, NUMCALC 
  Giovanni Bistoni       : ED, misc. LED, open-shell LED, HFLD           
  Martin Brehm           : Molecular dynamics                            
  Dmytro Bykov           : pre 5.0 version of the SCF Hessian            
  Marcos Casanova-Páez   : Triplet and SCS-CIS(D). UHF-(DLPNO)-IP/EA/STEOM-CCSD. UHF-CVS-IP/STEOM-CCSD   
  Vijay G. Chilkuri      : MRCI spin determinant printing, contributions to CSF-ICE 
  Pauline Colinet        : FMM embedding                                 
  Dipayan Datta          : RHF DLPNO-CCSD density                        
  Achintya Kumar Dutta   : EOM-CC, STEOM-CC                              
  Nicolas Foglia         : Exact transition moments, OPA infrastructure, MCD improvements    
  Dmitry Ganyushin       : Spin-Orbit,Spin-Spin,Magnetic field MRCI      
  Miquel Garcia-Rates    : C-PCM and meta-GGA Hessian, CCSD/C-PCM, Gaussian charge scheme 
  Tiago L. C. Gouveia    : GS-ROHF, GS-ROCIS                             
  Yang Guo               : DLPNO-NEVPT2, F12-NEVPT2, CIM, IAO-localization        
  Andreas Hansen         : Spin unrestricted coupled pair/coupled cluster methods 
  Ingolf Harden          : AUTO-CI MPn and infrastructure                
  Benjamin Helmich-Paris : MC-RPA, TRAH-(SCF,CASSCF), AVAS, COSX integrals, SCF dyn. polar. 
  Lee Huntington         : MR-EOM, pCC                                   
  Robert Izsak           : Overlap fitted RIJCOSX, COSX-SCS-MP3, EOM     
  Riya Kayal             : Wick's Theorem for AUTO-CI, AUTO-CI UHF-CCSDT 
  Emily Kempfer          : AUTO-CI, RHF CISDT and CCSDT                  
  Christian Kollmar      : KDIIS, OOCD, Brueckner-CCSD(T), CCSD density, CASPT2, CASPT2-K, improved NEVPT2 
  Axel Koslowski         : Symmetry handling                             
  Simone Kossmann        : meta-GGA functionals, TD-DFT gradient, OOMP2, (MP2 Hessian; deprecated post 5.0) 
  Lucas Lang             : DCDCAS                                        
  Marvin Lechner         : AUTO-CI (C++ implementation), FIC-MRCC        
  Spencer Leger          : CASSCF response                               
  Dagmar Lenk            : GEPOL surface, SMD, ORCA-2-JSON               
  Dimitrios Liakos       : Extrapolation schemes; Compound Job, initial MDCI parallelization 
  Dimitrios Manganas     : Further ROCIS development; embedding schemes. LFT, Crystal Embedding 
  Dimitrios Pantazis     : SARC Basis sets                               
  Anastasios Papadopoulos: AUTO-CI, single reference methods and gradients 
  Taras Petrenko         : pre 6.0 DFT Hessian and TD-DFT gradient, (ASA, deprecated), ECA, 1-Electron XAS/XES, NRVS 
  Peter Pinski           : DLPNO-MP2, DLPNO-MP2 Gradient                 
  Christoph Reimann      : Effective Core Potentials                     
  Marius Retegan         : Local ZFS, SOC                                
  Christoph Riplinger    : Optimizer, TS searches, QM/MM, DLPNO-CCSD(T), (RO)-DLPNO pert. Triples 
  Michael Roemelt        : Original ROCIS implementation                 
  Masaaki Saitow         : Open-shell DLPNO-CCSD energy and density      
  Barbara Sandhoefer     : DKH picture change effects                    
  Kantharuban Sivalingam : CASSCF convergence/infrastructure, NEVPT2 and variants, FIC-MRCI 
  Bernardo de Souza      : ESD, SOC TD-DFT                               
  Georgi L. Stoychev     : AutoAux, RI-MP2 NMR, DLPNO-MP2 response, X2C  
  Van Anh Tran           : RI-MP2 g-tensors                              
  Willem Van den Heuvel  : Paramagnetic NMR                              
  Zikuan Wang            : NOTCH, Electric field optimization            
  Frank Wennmohs         : Technical directorship and infrastructure     
  Hang Xu                : AUTO-CI-Response properties                   
                                                                         
[FACCTs GmbH]                                                            
  Markus Bursch, Miquel Garcia-Rates, Christoph Riplinger, Bernardo de Souza, Georgi L. Stoychev 
                                                                 
  APM, Basis sets (HGBS, AHGBS, def-TZVP (Ac-Lr), def2-XVPD (La-Lu)), CI-OPT, improved COSX, DLPNO-Multilevel,           
  DOCKER, DRACO, updates on ESD, GOAT, IRC, LR-CPCM, MBIS, meta-GGA TD-DFT gradient, ML-optimized integration grids, 
  MM, NACMEs, nearIR, NEB, NEB-TS, NL-DFT gradient (VV10), 2- and 3-layer-ONIOM, interface openCOSMO-RS, QMMM,   
  Crystal-QMMM, SF, symmetry and pop. for TD-DFT, r2SCAN hybrids, SOLVATOR                                   
                                                                         
[Other institutions]                                                     
  V. Asgeirsson          : NEB                                           
  Christoph Bannwarth    : sTDA-DFT, sTD-DFT, PBEh-3c, B97-3c, D3        
  Sebastian Ehlert       : rSCAN, r2SCAN, r2SCAN-3c, D4, dhf basis sets  
  Marvin Friede          : D4 for Fr, Ra, Ac-Lr                          
  Lars Goerigk           : TD-DFT with DH, B97 family of functionals     
  Stefan Grimme          : VdW corrections, initial TS optimization, DFT functionals, gCP, sTDA/sTD-DF 
  Waldemar Hujo          : DFT-NL                                        
  H. Jonsson             : NEB                                           
  Holger Kruse           : gCP                                           
  Marcel Mueller         : wB97X-3c, vDZP basis set                      
  Hagen Neugebauer       : wr2SCAN                                       
  Tobias Risthaus        : range-separated hybrid DFT                    
  Lukas Wittmann         : regularized MP2, r2SCAN double-hybrids, wr2SCAN        
                                                                         
We gratefully acknowledge several colleagues who have allowed us to      
interface, adapt or use parts of their codes:                            
  Ed Valeev, F. Pavosevic, A. Kumar             : LibInt (2-el integral package), F12 methods 
  Garnet Chan, S. Sharma, J. Yang, R. Olivares  : DMRG                   
  Ulf Ekstrom                                   : XCFun DFT Library      
  Mihaly Kallay                                 : mrcc  (arbitrary order and MRCC methods)
  Frank Weinhold                                : gennbo (NPA and NBO analysis)           
  Simon Mueller                                 : openCOSMO-RS                            
  Christopher J. Cramer and Donald G. Truhlar   : smd solvation model                     
  S Lehtola, MJT Oliveira, MAL Marques          : LibXC Library                           
  Liviu Ungur et al                             : ANISO software                          


 Your calculation uses the libint2 library for the computation of 2-el integrals
 For citations please refer to: http://libint.valeyev.net

 Your ORCA version has been built with support for libXC version: 6.2.2
 For citations please refer to: https://libxc.gitlab.io

 This ORCA versions uses:
   CBLAS   interface :  Fast vector & matrix operations
   LAPACKE interface :  Fast linear algebra routines
   SCALAPACK package :  Parallel linear algebra routines
   Shared memory     :  Shared parallel matrices
   BLAS/LAPACK       :  OpenBLAS 0.3.27  USE64BITINT DYNAMIC_ARCH NO_AFFINITY Zen SINGLE_THREADED
        Core in use  :  Zen
   Copyright (c) 2011-2014, The OpenBLAS Project




***************************************
The coordinates will be read from file: xtb_opt.xyz
***************************************


Your calculation utilizes the geometrical counterpoise correction gCP
Please cite in your paper:
H.Kruse, S. Grimme J.Chem.Phys., 136, (2012), 154101 
   

Your calculation utilizes the atom-pairwise dispersion correction
based on EEQ partial charges (D4)


================================================================================

----- Orbital basis set information -----
Your calculation utilizes the basis: def2-mTZVPP
   Stefan Grimme, Andreas Hansen, Sebastian Ehlert, and Jan-Michael Mewes 
   J. Chem. Phys. 154, 064103 (2021). DOI: 10.1063/5.0040021

----- AuxJ basis set information -----
Your calculation utilizes the auxiliary basis: def2/J
   F. Weigend, Phys. Chem. Chem. Phys. 8, 1057 (2006).

================================================================================
                                        WARNINGS
                       Please study these warnings very carefully!
================================================================================



WARNING: SCAN, rSCAN, or r2SCAN functional requested.
  ===> : libXC variant has now been activated.



================================================================================
                                       INPUT FILE
================================================================================
NAME = xtb_opt.inp
|  1> ! r2scan-3c def2/J RI DEFGRID2 scfconv7 ENGRAD tightSCF miniprint
|  2> * xyzfile 0 1 xtb_opt.xyz
|  3> 
|  4>                          ****END OF INPUT****
================================================================================

                     *******************************
                     * Energy+Gradient Calculation *
                     *******************************

---------------------------------
CARTESIAN COORDINATES (ANGSTROEM)
---------------------------------
  C      0.733233   -1.197841    0.231154
  C     -0.733218   -1.197834   -0.231051
  N     -1.443777    0.000023    0.191991
  C     -0.733152    1.197861   -0.231122
  C      0.733245    1.197791    0.231232
  N      1.443729    0.000005   -0.192202
  H      1.260214   -2.071138   -0.158525
  H      0.772441   -1.229886    1.325740
  H     -0.772396   -1.230110   -1.325658
  H     -1.260211   -2.071065    0.158750
  H     -1.520183    0.000078    1.206220
  H     -0.772277    1.230024   -1.325741
  H     -1.260185    2.071139    0.158533
  H      1.260268    2.071133   -0.158271
  H      0.772332    1.229705    1.325834
  H      1.519382    0.000008   -1.206490

----------------------------
CARTESIAN COORDINATES (A.U.)
----------------------------
  NO LB      ZA    FRAG     MASS         X           Y           Z
   0 C     6.0000    0    12.011    1.385609   -2.263591    0.436818
   1 C     6.0000    0    12.011   -1.385581   -2.263578   -0.436624
   2 N     7.0000    0    14.007   -2.728344    0.000043    0.362811
   3 C     6.0000    0    12.011   -1.385456    2.263629   -0.436757
   4 C     6.0000    0    12.011    1.385633    2.263496    0.436965
   5 N     7.0000    0    14.007    2.728252    0.000010   -0.363210
   6 H     1.0000    0     1.008    2.381460   -3.913883   -0.299569
   7 H     1.0000    0     1.008    1.459701   -2.324148    2.505285
   8 H     1.0000    0     1.008   -1.459617   -2.324570   -2.505130
   9 H     1.0000    0     1.008   -2.381454   -3.913746    0.299994
  10 H     1.0000    0     1.008   -2.872729    0.000148    2.279425
  11 H     1.0000    0     1.008   -1.459392    2.324409   -2.505287
  12 H     1.0000    0     1.008   -2.381404    3.913885    0.299585
  13 H     1.0000    0     1.008    2.381562    3.913874   -0.299089
  14 H     1.0000    0     1.008    1.459497    2.323806    2.505463
  15 H     1.0000    0     1.008    2.871216    0.000014   -2.279937

------------------------------------------------------------------------------
                   ___                                                        
                  /   \      - P O W E R E D   B Y -                         
                 /     \                                                     
                 |  |  |   _    _      __       _____    __    __             
                 |  |  |  | |  | |    /  \     |  _  \  |  |  /  |          
                  \  \/   | |  | |   /    \    | | | |  |  | /  /          
                 / \  \   | |__| |  /  /\  \   | |_| |  |  |/  /          
                |  |  |   |  __  | /  /__\  \  |    /   |      \           
                |  |  |   | |  | | |   __   |  |    \   |  |\   \          
                \     /   | |  | | |  |  |  |  | |\  \  |  | \   \       
                 \___/    |_|  |_| |__|  |__|  |_| \__\ |__|  \__/        
                                                                              
                      - O R C A' S   B I G   F R I E N D -                    
                                      &                                       
                       - I N T E G R A L  F E E D E R -                       
                                                                              
 v1 FN, 2020, v2 2021, v3 2022-2024                                           
------------------------------------------------------------------------------


----------------------
SHARK INTEGRAL PACKAGE
----------------------

Number of atoms                             ...     16
Number of basis functions                   ...    174
Number of shells                            ...     86
Maximum angular momentum                    ...      2
Integral batch strategy                     ... SHARK/LIBINT Hybrid
RI-J (if used) integral strategy            ... SPLIT-RIJ (Revised 2003 algorithm where possible)
Printlevel                                  ...      1
Contraction scheme used                     ... SEGMENTED contraction
Prescreening option                         ... SCHWARTZ
   Thresh                                   ... 3.000e-11
   Tcut                                     ... 1.000e-12
   Tpresel                                  ... 1.000e-12 
Coulomb Range Separation                    ... NOT USED
Exchange Range Separation                   ... NOT USED
Multipole approximations                    ... NOT USED
Finite Nucleus Model                        ... NOT USED
CABS basis                                  ... NOT available
Auxiliary Coulomb fitting basis             ... AVAILABLE
   # of basis functions in Aux-J            ...    404
   # of shells in Aux-J                     ...    140
   Maximum angular momentum in Aux-J        ...      4
Auxiliary J/K fitting basis                 ... NOT available
Auxiliary Correlation fitting basis         ... NOT available
Auxiliary 'external' fitting basis          ... NOT available

Checking pre-screening integrals            ... done (  0.0 sec) Dimension = 86
Check shell pair data                       ... done (  0.0 sec)
Shell pair information
Shell pair cut-off parameter TPreSel        ...   1.0e-12
Total number of shell pairs                 ...      3741
Shell pairs after pre-screening             ...      3653
Total number of primitive shell pairs       ...     13042
Primitive shell pairs kept                  ...      9731
          la=0 lb=0:   1225 shell pairs
          la=1 lb=0:   1366 shell pairs
          la=1 lb=1:    404 shell pairs
          la=2 lb=0:    398 shell pairs
          la=2 lb=1:    224 shell pairs
          la=2 lb=2:     36 shell pairs

Calculating one electron integrals          ... done (  0.0 sec)
Calculating RI/J V-Matrix + Cholesky decomp.... done (  0.0 sec)
Calculating Nuclear repulsion               ... done (  0.0 sec) ENN=    263.178030155503 Eh

Diagonalization of the overlap matrix:
Smallest eigenvalue                        ... 7.195e-05
Time for diagonalization                   ...    0.003 sec
Threshold for overlap eigenvalues          ... 1.000e-07
Number of eigenvalues below threshold      ... 0
Time for construction of square roots      ...    0.003 sec
Total time needed                          ...    0.007 sec

-------------------
DFT GRID GENERATION
-------------------

General Integration Accuracy     IntAcc      ... 4.388
Radial Grid Type                 RadialGrid  ... OptM3 with GC (2021)
Angular Grid (max. ang.)         AngularGrid ... 4 (Lebedev-302)
Angular grid pruning method      GridPruning ... 4 (adaptive)
Weight generation scheme         WeightScheme... mBecke (2022)
Basis function cutoff            BFCut       ... 1.0000e-11
Integration weight cutoff        WCut        ... 1.0000e-14
Partially contracted basis set               ... off
Rotationally invariant grid construction     ... off
Angular grids for H and He will be reduced by one unit

Total number of grid points                  ...    67952
Total number of batches                      ...     1069
Average number of points per batch           ...       63
Average number of grid points per atom       ...     4247
Initializing property integral containers    ... done (  0.0 sec)

SHARK setup successfully completed in   0.8 seconds

Maximum memory used throughout the entire STARTUP-calculation: 30.3 MB
Occupation numbers will be reassigned to an Aufbau configuration
             **** ENERGY FILE WAS UPDATED (xtb_opt.en.tmp) ****
Finished Guess after   0.1 sec
Maximum memory used throughout the entire GUESS-calculation: 12.8 MB
----------------------------------------D-I-I-S--------------------------------------------
Iteration    Energy (Eh)           Delta-E    RMSDP     MaxDP     DIISErr   Damp  Time(sec)
-------------------------------------------------------------------------------------------
               ***  Starting incremental Fock matrix formation  ***
                              *** Initializing SOSCF ***
---------------------------------------S-O-S-C-F--------------------------------------
Iteration    Energy (Eh)           Delta-E    RMSDP     MaxDP     MaxGrad    Time(sec)
--------------------------------------------------------------------------------------
    1    -267.8548272688498741     0.00e+00  1.78e-05  2.75e-04  4.42e-05     2.1
               *** Restarting incremental Fock matrix formation ***
    2    -267.8548272540238600     1.48e-08  2.38e-05  3.84e-04  1.28e-04     1.4
    3    -267.8548261197078659     1.13e-06  1.65e-05  2.60e-04  2.36e-04     1.1
    4    -267.8548278319669294    -1.71e-06  1.24e-06  1.45e-05  7.64e-06     1.1
                  *** Gradient check signals convergence ***

               *****************************************************
               *                     SUCCESS                       *
               *           SCF CONVERGED AFTER   4 CYCLES          *
               *****************************************************

             **** ENERGY FILE WAS UPDATED (xtb_opt.en.tmp) ****

----------------
TOTAL SCF ENERGY
----------------

Total Energy       :       -267.85482783196693 Eh           -7288.70042 eV

Components:
Nuclear Repulsion  :        263.17803015550300 Eh            7161.43828 eV
Electronic Energy  :       -531.03285798746992 Eh          -14450.13870 eV
One Electron Energy:       -882.65562075589912 Eh          -24018.28051 eV
Two Electron Energy:        351.62276276842920 Eh            9568.14181 eV

Virial components:
Potential Energy   :       -534.54625147999764 Eh          -14545.74299 eV
Kinetic Energy     :        266.69142364803065 Eh            7257.04258 eV
Virial Ratio       :          2.00436236069395

DFT components:
N(Alpha)           :       24.000050109014 electrons
N(Beta)            :       24.000050109014 electrons
N(Total)           :       48.000100218027 electrons
E(X)               :      -37.705818600952 Eh       
E(C)               :       -1.530506048719 Eh       
E(XC)              :      -39.236324649671 Eh       

---------------
SCF CONVERGENCE
---------------

  Last Energy change         ...    1.7123e-06  Tolerance :   1.0000e-07
  Last MAX-Density change    ...    1.4496e-05  Tolerance :   1.0000e-07
  Last RMS-Density change    ...    1.2404e-06  Tolerance :   5.0000e-09
  Last DIIS Error            ...    3.9972e-04  Tolerance :   1.0000e-07
  Last Orbital Gradient      ...    7.6433e-06  Tolerance :   1.0000e-04
  Last Orbital Rotation      ...    1.4932e-05  Tolerance :   1.0000e-04


----------------
ORBITAL ENERGIES
----------------

  NO   OCC          E(Eh)            E(eV) 
   0   2.0000     -14.141029      -384.7970 
   1   2.0000     -14.141025      -384.7969 
   2   2.0000     -10.047747      -273.4131 
   3   2.0000     -10.047742      -273.4130 
   4   2.0000     -10.047626      -273.4098 
   5   2.0000     -10.047622      -273.4097 
   6   2.0000      -0.898359       -24.4456 
   7   2.0000      -0.842367       -22.9220 
   8   2.0000      -0.721529       -19.6338 
   9   2.0000      -0.624581       -16.9957 
  10   2.0000      -0.601215       -16.3599 
  11   2.0000      -0.558217       -15.1898 
  12   2.0000      -0.474473       -12.9111 
  13   2.0000      -0.424386       -11.5481 
  14   2.0000      -0.423025       -11.5111 
  15   2.0000      -0.415982       -11.3195 
  16   2.0000      -0.396519       -10.7898 
  17   2.0000      -0.359344        -9.7782 
  18   2.0000      -0.351351        -9.5607 
  19   2.0000      -0.320828        -8.7302 
  20   2.0000      -0.309336        -8.4175 
  21   2.0000      -0.306406        -8.3377 
  22   2.0000      -0.229133        -6.2350 
  23   2.0000      -0.163323        -4.4443 
  24   0.0000       0.077264         2.1025 
  25   0.0000       0.081198         2.2095 
  26   0.0000       0.108427         2.9504 
  27   0.0000       0.113858         3.0982 
  28   0.0000       0.120661         3.2833 
  29   0.0000       0.146806         3.9948 
  30   0.0000       0.148858         4.0506 
  31   0.0000       0.163887         4.4596 
  32   0.0000       0.167340         4.5536 
  33   0.0000       0.169209         4.6044 
  34   0.0000       0.169437         4.6106 
*Only the first 10 virtual orbitals were printed.
Total SCF time: 0 days 0 hours 0 min 6 sec 
Finished LeanSCF after   9.2 sec

Maximum memory used throughout the entire LEANSCF-calculation: 19.7 MB


-------------------------------------------------------------------------------
                          DFT DISPERSION CORRECTION                            
                                                                               
                                DFTD4 V3.4.0                                   
-------------------------------------------------------------------------------
-------------------------   ----------------
Dispersion correction           -0.004222894
-------------------------   ----------------

------------------   -----------------
gCP correction             0.015968068
------------------   -----------------

-------------------------   --------------------
FINAL SINGLE POINT ENERGY      -267.843082657121
-------------------------   --------------------

------------------------------------------------------------------------------
                         ORCA SCF GRADIENT CALCULATION
------------------------------------------------------------------------------

Nuc. rep. gradient        (SHARK) ... done (  0.0 sec)
HCore & Overlap gradient  (SHARK) ... done (  0.2 sec)
Split-RIJ-J gradient      (SHARK) ... done (  0.9 sec)
XC gradient                       ... done (  4.0 sec)
Dispersion correction             ... done (  0.0 sec)

-------------------
DISPERSION GRADIENT
-------------------

   1   C   :    0.000019719   -0.000046733    0.000009874
   2   C   :   -0.000019714   -0.000046737   -0.000009873
   3   N   :   -0.000069471    0.000000003    0.000018710
   4   C   :   -0.000019713    0.000046737   -0.000009875
   5   C   :    0.000019719    0.000046731    0.000009878
   6   N   :    0.000069459    0.000000000   -0.000018726
   7   H   :    0.000021989   -0.000031586   -0.000001835
   8   H   :    0.000015272   -0.000019968    0.000011374
   9   H   :   -0.000015270   -0.000019970   -0.000011373
  10   H   :   -0.000021989   -0.000031586    0.000001837
  11   H   :   -0.000024304    0.000000001    0.000000285
  12   H   :   -0.000015268    0.000019969   -0.000011373
  13   H   :   -0.000021988    0.000031587    0.000001835
  14   H   :    0.000021990    0.000031586   -0.000001832
  15   H   :    0.000015271    0.000019965    0.000011374
  16   H   :    0.000024298    0.000000000   -0.000000279

Difference to translation invariance:
           :   -0.0000000000    0.0000000000    0.0000000000

Difference to rotation invariance:
           :    0.0000000000    0.0000000000    0.0000000000

Norm of the Dispersion gradient    ...    0.0001766281
RMS gradient                       ...    0.0000254941
MAX gradient                       ...    0.0000694707
gCP correction                   ... done

------------------
CARTESIAN GRADIENT
------------------

   1   C   :    0.005623793    0.002230856    0.005756484
   2   C   :   -0.005621246    0.002258705   -0.005737781
   3   N   :    0.009942714   -0.000016704   -0.002889824
   4   C   :   -0.005603526   -0.002242890   -0.005742395
   5   C   :    0.005633039   -0.002247153    0.005758473
   6   N   :   -0.009944415    0.000017864    0.002874213
   7   H   :   -0.001870694    0.004055007   -0.000573457
   8   H   :    0.000299156    0.002497820   -0.002785811
   9   H   :   -0.000304481    0.002498921    0.002773814
  10   H   :    0.001875126    0.004057466    0.000573672
  11   H   :    0.000061314    0.000002266    0.000490798
  12   H   :   -0.000310434   -0.002498500    0.002768624
  13   H   :    0.001871115   -0.004054044    0.000570632
  14   H   :   -0.001875044   -0.004058102   -0.000571274
  15   H   :    0.000299584   -0.002497242   -0.002780659
  16   H   :   -0.000076001   -0.000004270   -0.000485509

Difference to translation invariance:
           :    0.0000000000   -0.0000000000   -0.0000000000

Difference to rotation invariance:
           :    0.0000000316   -0.0004812513   -0.0000004636

Norm of the Cartesian gradient     ...    0.0251175611
RMS gradient                       ...    0.0036254077
MAX gradient                       ...    0.0099444148

-------
TIMINGS
-------

Total SCF gradient time     ....        5.073 sec

Densities                   ....       0.000 sec  (  0.0%)
One electron gradient       ....       0.154 sec  (  3.0%)
RI-J Coulomb gradient       ....       0.863 sec  ( 17.0%)
XC gradient                 ....       4.017 sec  ( 79.2%)

Maximum memory used throughout the entire SCFGRAD-calculation: 32.8 MB

------------------------------------------------------------------------------
                              ORCA PROPERTY CALCULATIONS
------------------------------------------------------------------------------

GBWName                                 ... xtb_opt.gbw
Number of atoms                         ...     16
Number of basis functions               ...    174
Max core memory                         ...   1024 MB

Electric properties:
Dipole moment                           ... YES
Quadrupole moment                       ...  NO
Static polarizability (Dipole/Dipole)   ...  NO
Static polarizability (Dipole/Quad.)    ...  NO
Static polarizability (Quad./Quad.)     ...  NO
Static polarizability (Velocity)        ...  NO

Atomic electric properties:
Dipole moment                           ...  NO
Quadrupole moment                       ...  NO
Static polarizability                   ...  NO

Choice of electric origin               ... Center of mass
Position of electric origin             ...    -0.000000    -0.000000    -0.000000

General magnetic properties:
Magnetizability                         ...  NO

EPR properties:
g-Tensor (aka g-matrix)                 ...  NO
Zero-Field splitting spin-orbit         ...  NO
Zero-field splitting spin-spin          ...  NO
Hyperfine couplings                     ...  NO (   0 nuclei)
Quadrupole couplings                    ...  NO (   0 nuclei)
Contact density                         ...  NO (   0 nuclei)

NMR properties:
Chemical shifts                         ...  NO (   0 nuclei)
Spin-rotation constants                 ...  NO (   0 nuclei)
Spin-spin couplings                     ...  NO (   0 nuclei,    0 pairs)

Choice of magnetic origin               ... GIAO
Position of magnetic origin             ...     0.000000     0.000000     0.000000

Properties with geometric perturbations:
SCF Hessian                             ...  NO
IR spectrum                             ...  NO
VCD spectrum                            ...  NO
X-ray spectroscopy properties:
SCF XES/XAS/RIXS spectra                ...  NO


-------------
DIPOLE MOMENT
-------------

Method             : SCF
Type of density    : Electron Density
Multiplicity       :   1
Irrep              :   0
Energy             :  -267.8548278319669294 Eh
Relativity type    : 
Basis              : AO
                                X                 Y                 Z
Electronic contribution:      0.000225196       0.000124175      -0.000082059
Nuclear contribution   :     -0.000576378      -0.000104541       0.000365561
                        -----------------------------------------
Total Dipole Moment    :     -0.000351182       0.000019635       0.000283502
                        -----------------------------------------
Magnitude (a.u.)       :      0.000451761
Magnitude (Debye)      :      0.001148285



--------------------
Rotational spectrum 
--------------------
 
Rotational constants in cm-1:             0.158958             0.151313             0.088718 
Rotational constants in MHz :          4765.454981          4536.256743          2659.683935 

Dipole components along the rotational axes: 
x,y,z [a.u.] :     0.000351     0.000020     0.000284 
x,y,z [Debye]:     0.000893     0.000050     0.000721 

 

Dipole moment calculation done in   0.8 sec 

Maximum memory used throughout the entire PROP-calculation: 11.2 MB

--------------------------------
SUGGESTED CITATIONS FOR THIS RUN
--------------------------------

Below you find a list of papers that are relevant to this ORCA run
We neither can nor want to force you to cite these papers, but we appreciate if you do
You receive ORCA, which is the product of decades of hard work by many enthusiastic individuals, for free
The only thing we kindly ask in return is that you cite our papers,
We deeply appreciate it, if you show your appreciation for ORCA by not just citing the generic ORCA reference.

Please note that relegating all ORCA citations to the supporting information does *not* help us.
SI sections are not indexed - citations you put there will not count into any citation statistics
But we need these citations in order to attract the funding resources that allow us to do what we are doing

Therefore, if you are a happy ORCA user, please consider citing a few of the papers listed below in the main body of your paper

In addition to the list printed below, the program has created the file xtb_opt.bibtex that contains the list in bibtex format
You can import this file easily into all common literature databanks and citation aid programs


List of essential papers. We consider these as the minimum necessary citations

  1. Neese,F.
     Software update: the ORCA program system, version 5.0
     WIRES Comput. Molec. Sci., 2022 12(1)e1606
     doi.org/10.1002/wcms.1606
  2. Grimme,S.; Hansen,A.; Ehlert,S.; Mewes,J.
     r2SCAN-3c: A 'Swiss army knife' composite electronic-structure method
     J. Chem. Phys., 2021 154 064103
     doi.org/10.1063/5.0040021

List of papers to cite with high priority. The work reported in these papers was absolutely
necessary for this run to complete.
Our perspective: the developers of density functionals and basis sets usually get cited in chemistry papers
Good! But without the algorithms to do something with them, the functionals or basis sets would not do anything.
Hence, in our opinion, the algorithm design and method developments papers are equally worthy of getting cited

  1. Neese,F.
     An improvement of the resolution of the identity approximation for the formation of the Coulomb matrix
     J. Comp. Chem., 2003 24(14)1740-1747
     doi.org/10.1002/jcc.10318
  2. Neese,F.
     The SHARK Integral Generation and Digestion System
     J. Comp. Chem., 2022  1-16
     doi.org/10.1002/jcc.26942
  3. Lehtola,S.; Steigemann,C.; Oliveira,M.; Marques,M.
     Recent developments in Libxc - A comprehensive library of functionals for density functional theory
     Software X, 2018 7 
     doi.org/10.1016/j.softx.2017.11.002
  4. Caldeweyher,E.; Bannwarth,C.; Grimme,S.
     Extension of the D3 dispersion coefficient model
     J. Chem. Phys., 2017 147 034112
     doi.org/10.1063/1.4993215
  5. Caldeweyher,E.; Ehlert,S.; Hansen,A.; Neugebauer,H.; Spicher,S.; Bannwarth,C.; Grimme,S.
     A generally applicable atomic-charge dependent London dispersion correction
     J. Chem. Phys., 2019 150 154122
     doi.org/10.1063/1.5090222
  6. Caldeweyher,E.; Mewes,J.; Ehlert,S.; Grimme,S.
     Extension and evaluation of the D4 London-dispersion model for periodic systems
     Phys. Chem. Chem. Phys., 2020 22(16)8499-8512
     doi.org/10.1039/D0CP00502A
  7. Wittmann,L.; Gordiy,I.; Friede,M.; Helmich-Paris,B.; Grimme,S.; Hansen,A.; Bursch,M.
     Extension of the D3 and D4 London Dispersion Corrections to the full Actinides Series
     Phys. Chem. Chem. Phys., 2024 26(32)21379-21394
     doi.org/https://doi.org/10.1039/D4CP01514B 

List of suggested additional citations. These are papers that are important in the 'surrounding' of 
of this run, or papers that preceded the highly important papers. If you like your results we are grateful for a citation.

  1. Neese,F.
     The ORCA program system
     WIRES Comput. Molec. Sci., 2012 2(1)73-78
     doi.org/10.1002/wcms.81
  2. Neese,F.
     Software update: the ORCA program system, version 4.0
     WIRES Comput. Molec. Sci., 2018 8(1)1-6
     doi.org/10.1002/wcms.1327
  3. Neese,F.; Wennmohs,F.; Becker,U.; Riplinger,C.
     The ORCA quantum chemistry program package
     J. Chem. Phys., 2020 152 Art. No. L224108
     doi.org/10.1063/5.0004608

List of optional additional citations

  1. Neese,F.
     Approximate second-order SCF convergence for spin unrestricted wavefunctions
     Chem. Phys. Lett., 2000 325(1-3)93-98
     doi.org/10.1016/s0009-2614(00)00662-x

Timings for individual modules:

Sum of individual times          ...       16.818 sec (=   0.280 min)
Startup calculation              ...        0.849 sec (=   0.014 min)   5.0 %
SCF iterations                   ...        9.308 sec (=   0.155 min)  55.3 %
Property calculations            ...        0.868 sec (=   0.014 min)   5.2 %
SCF Gradient evaluation          ...        5.793 sec (=   0.097 min)  34.4 %
                             ****ORCA TERMINATED NORMALLY****
TOTAL RUN TIME: 0 days 0 hours 0 minutes 18 seconds 830 msec
  ------------------------------------------------------------------------
          * successful ORCA run, taking over control again...

         :::::::::::::::::::::::::::::::::::::::::::::::::::::
         ::                  ORCA SUMMARY                   ::
         :::::::::::::::::::::::::::::::::::::::::::::::::::::
         :: total energy            -267.843082657121 Eh    ::
         :: gradient norm              0.025117561112 Eh/a0 ::
         :: HOMO-LUMO gap              0.000000000000 eV    ::
         :::::::::::::::::::::::::::::::::::::::::::::::::::::

      ----------------------------------------------------------- 
     |                       L-ANC optimizer                     |
      ----------------------------------------------------------- 
          low memory version by Sebastian Ehlert

          ...................................................
          :                      SETUP                      :
          :.................................................:
          :   energy convergence        0.5000000E-05 Eh    :
          :   grad. convergence         0.1000000E-02 Eh/a0 :
          :   optimization log               true           :
          :   writing optlog all                1     steps :
          :   Hessian reset                     8     steps :
          :   maximium step len.        1.0000000     a0    :
          :   LBFGS images                      8           :
          ...................................................
 * calculating model hessian...
Using Lindh-Hessian (1995)
 Shifting diagonal of input Hessian by   1.000000000000000E-002
 Lowest  eigenvalues of input Hessian
    0.000000    0.000000    0.000000    0.000000    0.000000    0.000000
    0.020332    0.026113    0.036169    0.036403    0.037325    0.045119
    0.064632    0.065990    0.068423    0.069519    0.072949    0.083077
 Highest eigenvalues
    1.177124    1.231073    1.368831    1.420585    1.440123    1.469161
 

........................................................................
.............................. CYCLE    1 ..............................
........................................................................
                         * ORCA takes the control...
  ------------------------------------------------------------------------

                                 *****************
                                 * O   R   C   A *
                                 *****************

                                            #,                                       
                                            ###                                      
                                            ####                                     
                                            #####                                    
                                            ######                                   
                                           ########,                                 
                                     ,,################,,,,,                         
                               ,,#################################,,                 
                          ,,##########################################,,             
                       ,#########################################, ''#####,          
                    ,#############################################,,   '####,        
                  ,##################################################,,,,####,       
                ,###########''''           ''''###############################       
              ,#####''   ,,,,##########,,,,          '''####'''          '####       
            ,##' ,,,,###########################,,,                        '##       
           ' ,,###''''                  '''############,,,                           
         ,,##''                                '''############,,,,        ,,,,,,###''
      ,#''                                            '''#######################'''  
     '                                                          ''''####''''         
             ,#######,   #######,   ,#######,      ##                                
            ,#'     '#,  ##    ##  ,#'     '#,    #''#        ,####,   ,####,        
            ##       ##  ##   ,#'  ##            #'  '#       #'       #'  '#        
            ##       ##  #######   ##           ,######,      #####,   #    #        
            '#,     ,#'  ##    ##  '#,     ,#' ,#      #,     #,   #   #,  ,#        
             '#######'   ##     ##  '#######'  #'      '#     '####' # '####'        



                #########################################################
                #                        -***-                          #
                #          Department of theory and spectroscopy        #
                #                                                       #
                #                      Frank Neese                      #
                #                                                       #
                #     Directorship, Architecture, Infrastructure        #
                #                    SHARK, DRIVERS                     #
                #        Core code/Algorithms in most modules           #
                #                                                       #
                #        Max Planck Institute fuer Kohlenforschung      #
                #                Kaiser Wilhelm Platz 1                 #
                #                 D-45470 Muelheim/Ruhr                 #
                #                      Germany                          #
                #                                                       #
                #                  All rights reserved                  #
                #                        -***-                          #
                #########################################################


                         Program Version 6.0.1  -  RELEASE   -


 With contributions from (in alphabetic order):
[Max-Planck-Institut fuer Kohlenforschung]                               
  Daniel Aravena         : Magnetic Suceptibility                        
  Michael Atanasov       : Ab Initio Ligand Field Theory (pilot matlab implementation)
  Alexander A. Auer      : GIAO ZORA, VPT2 properties, NMR spectrum      
  Ute Becker             : All parallelization in ORCA, NUMFREQ, NUMCALC 
  Giovanni Bistoni       : ED, misc. LED, open-shell LED, HFLD           
  Martin Brehm           : Molecular dynamics                            
  Dmytro Bykov           : pre 5.0 version of the SCF Hessian            
  Marcos Casanova-Páez   : Triplet and SCS-CIS(D). UHF-(DLPNO)-IP/EA/STEOM-CCSD. UHF-CVS-IP/STEOM-CCSD   
  Vijay G. Chilkuri      : MRCI spin determinant printing, contributions to CSF-ICE 
  Pauline Colinet        : FMM embedding                                 
  Dipayan Datta          : RHF DLPNO-CCSD density                        
  Achintya Kumar Dutta   : EOM-CC, STEOM-CC                              
  Nicolas Foglia         : Exact transition moments, OPA infrastructure, MCD improvements    
  Dmitry Ganyushin       : Spin-Orbit,Spin-Spin,Magnetic field MRCI      
  Miquel Garcia-Rates    : C-PCM and meta-GGA Hessian, CCSD/C-PCM, Gaussian charge scheme 
  Tiago L. C. Gouveia    : GS-ROHF, GS-ROCIS                             
  Yang Guo               : DLPNO-NEVPT2, F12-NEVPT2, CIM, IAO-localization        
  Andreas Hansen         : Spin unrestricted coupled pair/coupled cluster methods 
  Ingolf Harden          : AUTO-CI MPn and infrastructure                
  Benjamin Helmich-Paris : MC-RPA, TRAH-(SCF,CASSCF), AVAS, COSX integrals, SCF dyn. polar. 
  Lee Huntington         : MR-EOM, pCC                                   
  Robert Izsak           : Overlap fitted RIJCOSX, COSX-SCS-MP3, EOM     
  Riya Kayal             : Wick's Theorem for AUTO-CI, AUTO-CI UHF-CCSDT 
  Emily Kempfer          : AUTO-CI, RHF CISDT and CCSDT                  
  Christian Kollmar      : KDIIS, OOCD, Brueckner-CCSD(T), CCSD density, CASPT2, CASPT2-K, improved NEVPT2 
  Axel Koslowski         : Symmetry handling                             
  Simone Kossmann        : meta-GGA functionals, TD-DFT gradient, OOMP2, (MP2 Hessian; deprecated post 5.0) 
  Lucas Lang             : DCDCAS                                        
  Marvin Lechner         : AUTO-CI (C++ implementation), FIC-MRCC        
  Spencer Leger          : CASSCF response                               
  Dagmar Lenk            : GEPOL surface, SMD, ORCA-2-JSON               
  Dimitrios Liakos       : Extrapolation schemes; Compound Job, initial MDCI parallelization 
  Dimitrios Manganas     : Further ROCIS development; embedding schemes. LFT, Crystal Embedding 
  Dimitrios Pantazis     : SARC Basis sets                               
  Anastasios Papadopoulos: AUTO-CI, single reference methods and gradients 
  Taras Petrenko         : pre 6.0 DFT Hessian and TD-DFT gradient, (ASA, deprecated), ECA, 1-Electron XAS/XES, NRVS 
  Peter Pinski           : DLPNO-MP2, DLPNO-MP2 Gradient                 
  Christoph Reimann      : Effective Core Potentials                     
  Marius Retegan         : Local ZFS, SOC                                
  Christoph Riplinger    : Optimizer, TS searches, QM/MM, DLPNO-CCSD(T), (RO)-DLPNO pert. Triples 
  Michael Roemelt        : Original ROCIS implementation                 
  Masaaki Saitow         : Open-shell DLPNO-CCSD energy and density      
  Barbara Sandhoefer     : DKH picture change effects                    
  Kantharuban Sivalingam : CASSCF convergence/infrastructure, NEVPT2 and variants, FIC-MRCI 
  Bernardo de Souza      : ESD, SOC TD-DFT                               
  Georgi L. Stoychev     : AutoAux, RI-MP2 NMR, DLPNO-MP2 response, X2C  
  Van Anh Tran           : RI-MP2 g-tensors                              
  Willem Van den Heuvel  : Paramagnetic NMR                              
  Zikuan Wang            : NOTCH, Electric field optimization            
  Frank Wennmohs         : Technical directorship and infrastructure     
  Hang Xu                : AUTO-CI-Response properties                   
                                                                         
[FACCTs GmbH]                                                            
  Markus Bursch, Miquel Garcia-Rates, Christoph Riplinger, Bernardo de Souza, Georgi L. Stoychev 
                                                                 
  APM, Basis sets (HGBS, AHGBS, def-TZVP (Ac-Lr), def2-XVPD (La-Lu)), CI-OPT, improved COSX, DLPNO-Multilevel,           
  DOCKER, DRACO, updates on ESD, GOAT, IRC, LR-CPCM, MBIS, meta-GGA TD-DFT gradient, ML-optimized integration grids, 
  MM, NACMEs, nearIR, NEB, NEB-TS, NL-DFT gradient (VV10), 2- and 3-layer-ONIOM, interface openCOSMO-RS, QMMM,   
  Crystal-QMMM, SF, symmetry and pop. for TD-DFT, r2SCAN hybrids, SOLVATOR                                   
                                                                         
[Other institutions]                                                     
  V. Asgeirsson          : NEB                                           
  Christoph Bannwarth    : sTDA-DFT, sTD-DFT, PBEh-3c, B97-3c, D3        
  Sebastian Ehlert       : rSCAN, r2SCAN, r2SCAN-3c, D4, dhf basis sets  
  Marvin Friede          : D4 for Fr, Ra, Ac-Lr                          
  Lars Goerigk           : TD-DFT with DH, B97 family of functionals     
  Stefan Grimme          : VdW corrections, initial TS optimization, DFT functionals, gCP, sTDA/sTD-DF 
  Waldemar Hujo          : DFT-NL                                        
  H. Jonsson             : NEB                                           
  Holger Kruse           : gCP                                           
  Marcel Mueller         : wB97X-3c, vDZP basis set                      
  Hagen Neugebauer       : wr2SCAN                                       
  Tobias Risthaus        : range-separated hybrid DFT                    
  Lukas Wittmann         : regularized MP2, r2SCAN double-hybrids, wr2SCAN        
                                                                         
We gratefully acknowledge several colleagues who have allowed us to      
interface, adapt or use parts of their codes:                            
  Ed Valeev, F. Pavosevic, A. Kumar             : LibInt (2-el integral package), F12 methods 
  Garnet Chan, S. Sharma, J. Yang, R. Olivares  : DMRG                   
  Ulf Ekstrom                                   : XCFun DFT Library      
  Mihaly Kallay                                 : mrcc  (arbitrary order and MRCC methods)
  Frank Weinhold                                : gennbo (NPA and NBO analysis)           
  Simon Mueller                                 : openCOSMO-RS                            
  Christopher J. Cramer and Donald G. Truhlar   : smd solvation model                     
  S Lehtola, MJT Oliveira, MAL Marques          : LibXC Library                           
  Liviu Ungur et al                             : ANISO software                          


 Your calculation uses the libint2 library for the computation of 2-el integrals
 For citations please refer to: http://libint.valeyev.net

 Your ORCA version has been built with support for libXC version: 6.2.2
 For citations please refer to: https://libxc.gitlab.io

 This ORCA versions uses:
   CBLAS   interface :  Fast vector & matrix operations
   LAPACKE interface :  Fast linear algebra routines
   SCALAPACK package :  Parallel linear algebra routines
   Shared memory     :  Shared parallel matrices
   BLAS/LAPACK       :  OpenBLAS 0.3.27  USE64BITINT DYNAMIC_ARCH NO_AFFINITY Zen SINGLE_THREADED
        Core in use  :  Zen
   Copyright (c) 2011-2014, The OpenBLAS Project




***************************************
The coordinates will be read from file: xtb_opt.xyz
***************************************


Your calculation utilizes the geometrical counterpoise correction gCP
Please cite in your paper:
H.Kruse, S. Grimme J.Chem.Phys., 136, (2012), 154101 
   

Your calculation utilizes the atom-pairwise dispersion correction
based on EEQ partial charges (D4)


================================================================================

----- Orbital basis set information -----
Your calculation utilizes the basis: def2-mTZVPP
   Stefan Grimme, Andreas Hansen, Sebastian Ehlert, and Jan-Michael Mewes 
   J. Chem. Phys. 154, 064103 (2021). DOI: 10.1063/5.0040021

----- AuxJ basis set information -----
Your calculation utilizes the auxiliary basis: def2/J
   F. Weigend, Phys. Chem. Chem. Phys. 8, 1057 (2006).

================================================================================
                                        WARNINGS
                       Please study these warnings very carefully!
================================================================================

WARNING: Old DensityContainer found on disk!
         Will remove this file - 
         If you want to keep old densities, please start your calculation with a different basename. 



WARNING: SCAN, rSCAN, or r2SCAN functional requested.
  ===> : libXC variant has now been activated.



================================================================================
                                       INPUT FILE
================================================================================
NAME = xtb_opt.inp
|  1> ! r2scan-3c def2/J RI DEFGRID2 scfconv7 ENGRAD tightSCF miniprint
|  2> * xyzfile 0 1 xtb_opt.xyz
|  3> 
|  4>                          ****END OF INPUT****
================================================================================

                     *******************************
                     * Energy+Gradient Calculation *
                     *******************************

---------------------------------
CARTESIAN COORDINATES (ANGSTROEM)
---------------------------------
  C      0.735452   -1.205150    0.221737
  C     -0.735482   -1.205165   -0.221656
  N     -1.457019    0.000020    0.192148
  C     -0.735427    1.205181   -0.221701
  C      0.735470    1.205115    0.221785
  N      1.456986   -0.000003   -0.192304
  H      1.262720   -2.087087   -0.160165
  H      0.771256   -1.251265    1.319593
  H     -0.771235   -1.251486   -1.319516
  H     -1.262773   -2.087038    0.160361
  H     -1.537528    0.000057    1.205431
  H     -0.771107    1.251414   -1.319568
  H     -1.262735    2.087093    0.160207
  H      1.262790    2.087086   -0.159966
  H      0.771170    1.251115    1.319651
  H      1.536910    0.000006   -1.205645

----------------------------
CARTESIAN COORDINATES (A.U.)
----------------------------
  NO LB      ZA    FRAG     MASS         X           Y           Z
   0 C     6.0000    0    12.011    1.389802   -2.277403    0.419023
   1 C     6.0000    0    12.011   -1.389859   -2.277433   -0.418870
   2 N     7.0000    0    14.007   -2.753367    0.000038    0.363106
   3 C     6.0000    0    12.011   -1.389756    2.277463   -0.418954
   4 C     6.0000    0    12.011    1.389837    2.277338    0.419113
   5 N     7.0000    0    14.007    2.753304   -0.000006   -0.363401
   6 H     1.0000    0     1.008    2.386195   -3.944023   -0.302668
   7 H     1.0000    0     1.008    1.457462   -2.364548    2.493668
   8 H     1.0000    0     1.008   -1.457424   -2.364966   -2.493523
   9 H     1.0000    0     1.008   -2.386296   -3.943930    0.303039
  10 H     1.0000    0     1.008   -2.905507    0.000107    2.277935
  11 H     1.0000    0     1.008   -1.457181    2.364829   -2.493622
  12 H     1.0000    0     1.008   -2.386223    3.944033    0.302747
  13 H     1.0000    0     1.008    2.386327    3.944022   -0.302292
  14 H     1.0000    0     1.008    1.457299    2.364265    2.493779
  15 H     1.0000    0     1.008    2.904339    0.000011   -2.278338

------------------------------------------------------------------------------
                   ___                                                        
                  /   \      - P O W E R E D   B Y -                         
                 /     \                                                     
                 |  |  |   _    _      __       _____    __    __             
                 |  |  |  | |  | |    /  \     |  _  \  |  |  /  |          
                  \  \/   | |  | |   /    \    | | | |  |  | /  /          
                 / \  \   | |__| |  /  /\  \   | |_| |  |  |/  /          
                |  |  |   |  __  | /  /__\  \  |    /   |      \           
                |  |  |   | |  | | |   __   |  |    \   |  |\   \          
                \     /   | |  | | |  |  |  |  | |\  \  |  | \   \       
                 \___/    |_|  |_| |__|  |__|  |_| \__\ |__|  \__/        
                                                                              
                      - O R C A' S   B I G   F R I E N D -                    
                                      &                                       
                       - I N T E G R A L  F E E D E R -                       
                                                                              
 v1 FN, 2020, v2 2021, v3 2022-2024                                           
------------------------------------------------------------------------------


----------------------
SHARK INTEGRAL PACKAGE
----------------------

Number of atoms                             ...     16
Number of basis functions                   ...    174
Number of shells                            ...     86
Maximum angular momentum                    ...      2
Integral batch strategy                     ... SHARK/LIBINT Hybrid
RI-J (if used) integral strategy            ... SPLIT-RIJ (Revised 2003 algorithm where possible)
Printlevel                                  ...      1
Contraction scheme used                     ... SEGMENTED contraction
Prescreening option                         ... SCHWARTZ
   Thresh                                   ... 3.000e-11
   Tcut                                     ... 1.000e-12
   Tpresel                                  ... 1.000e-12 
Coulomb Range Separation                    ... NOT USED
Exchange Range Separation                   ... NOT USED
Multipole approximations                    ... NOT USED
Finite Nucleus Model                        ... NOT USED
CABS basis                                  ... NOT available
Auxiliary Coulomb fitting basis             ... AVAILABLE
   # of basis functions in Aux-J            ...    404
   # of shells in Aux-J                     ...    140
   Maximum angular momentum in Aux-J        ...      4
Auxiliary J/K fitting basis                 ... NOT available
Auxiliary Correlation fitting basis         ... NOT available
Auxiliary 'external' fitting basis          ... NOT available

Checking pre-screening integrals            ... done (  0.0 sec) Dimension = 86
Check shell pair data                       ... done (  0.0 sec)
Shell pair information
Shell pair cut-off parameter TPreSel        ...   1.0e-12
Total number of shell pairs                 ...      3741
Shell pairs after pre-screening             ...      3643
Total number of primitive shell pairs       ...     13042
Primitive shell pairs kept                  ...      9697
          la=0 lb=0:   1219 shell pairs
          la=1 lb=0:   1362 shell pairs
          la=1 lb=1:    404 shell pairs
          la=2 lb=0:    398 shell pairs
          la=2 lb=1:    224 shell pairs
          la=2 lb=2:     36 shell pairs

Calculating one electron integrals          ... done (  0.0 sec)
Calculating RI/J V-Matrix + Cholesky decomp.... done (  0.0 sec)
Calculating Nuclear repulsion               ... done (  0.0 sec) ENN=    261.913809644937 Eh

Diagonalization of the overlap matrix:
Smallest eigenvalue                        ... 7.478e-05
Time for diagonalization                   ...    0.003 sec
Threshold for overlap eigenvalues          ... 1.000e-07
Number of eigenvalues below threshold      ... 0
Time for construction of square roots      ...    0.003 sec
Total time needed                          ...    0.007 sec

-------------------
DFT GRID GENERATION
-------------------

General Integration Accuracy     IntAcc      ... 4.388
Radial Grid Type                 RadialGrid  ... OptM3 with GC (2021)
Angular Grid (max. ang.)         AngularGrid ... 4 (Lebedev-302)
Angular grid pruning method      GridPruning ... 4 (adaptive)
Weight generation scheme         WeightScheme... mBecke (2022)
Basis function cutoff            BFCut       ... 1.0000e-11
Integration weight cutoff        WCut        ... 1.0000e-14
Partially contracted basis set               ... off
Rotationally invariant grid construction     ... off
Angular grids for H and He will be reduced by one unit

Total number of grid points                  ...    67998
Total number of batches                      ...     1072
Average number of points per batch           ...       63
Average number of grid points per atom       ...     4250
Initializing property integral containers    ... done (  0.0 sec)

SHARK setup successfully completed in   0.6 seconds

Maximum memory used throughout the entire STARTUP-calculation: 30.3 MB
Occupation numbers will be reassigned to an Aufbau configuration
             **** ENERGY FILE WAS UPDATED (xtb_opt.en.tmp) ****
Finished Guess after   0.1 sec
Maximum memory used throughout the entire GUESS-calculation: 12.7 MB
----------------------------------------D-I-I-S--------------------------------------------
Iteration    Energy (Eh)           Delta-E    RMSDP     MaxDP     DIISErr   Damp  Time(sec)
-------------------------------------------------------------------------------------------
               ***  Starting incremental Fock matrix formation  ***
                              *** Initializing SOSCF ***
---------------------------------------S-O-S-C-F--------------------------------------
Iteration    Energy (Eh)           Delta-E    RMSDP     MaxDP     MaxGrad    Time(sec)
--------------------------------------------------------------------------------------
    1    -267.8552040101907892     0.00e+00  3.87e-04  6.80e-03  5.04e-04     1.4
               *** Restarting incremental Fock matrix formation ***
    2    -267.8554895831780982    -2.86e-04  1.60e-04  2.58e-03  7.83e-04     1.6
    3    -267.8554977237782282    -8.14e-06  6.72e-05  9.61e-04  8.72e-04     1.3
    4    -267.8555128382237740    -1.51e-05  2.74e-05  4.29e-04  1.34e-04     1.8
    5    -267.8555135470127766    -7.09e-07  4.84e-06  6.64e-05  3.55e-05     1.7
    6    -267.8555135835402439    -3.65e-08  3.02e-06  6.79e-05  2.83e-05     1.6
                 **** Energy Check signals convergence ****

               *****************************************************
               *                     SUCCESS                       *
               *           SCF CONVERGED AFTER   6 CYCLES          *
               *****************************************************

             **** ENERGY FILE WAS UPDATED (xtb_opt.en.tmp) ****

----------------
TOTAL SCF ENERGY
----------------

Total Energy       :       -267.85551358354024 Eh           -7288.71908 eV

Components:
Nuclear Repulsion  :        261.91380964493720 Eh            7127.03709 eV
Electronic Energy  :       -529.76932322847745 Eh          -14415.75617 eV
One Electron Energy:       -880.14695328333926 Eh          -23950.01619 eV
Two Electron Energy:        350.37763005486181 Eh            9534.26003 eV

Virial components:
Potential Energy   :       -534.43722036636768 Eh          -14542.77611 eV
Kinetic Energy     :        266.58170678282744 Eh            7254.05703 eV
Virial Ratio       :          2.00477829786629

DFT components:
N(Alpha)           :       24.000067033294 electrons
N(Beta)            :       24.000067033294 electrons
N(Total)           :       48.000134066587 electrons
E(X)               :      -37.678316044055 Eh       
E(C)               :       -1.528747787918 Eh       
E(XC)              :      -39.207063831973 Eh       

---------------
SCF CONVERGENCE
---------------

  Last Energy change         ...    3.6527e-08  Tolerance :   1.0000e-07
  Last MAX-Density change    ...    6.7852e-05  Tolerance :   1.0000e-07
  Last RMS-Density change    ...    3.0214e-06  Tolerance :   5.0000e-09
  Last DIIS Error            ...    3.0478e-03  Tolerance :   1.0000e-07
  Last Orbital Gradient      ...    2.8276e-05  Tolerance :   1.0000e-04
  Last Orbital Rotation      ...    3.6470e-05  Tolerance :   1.0000e-04


----------------
ORBITAL ENERGIES
----------------

  NO   OCC          E(Eh)            E(eV) 
   0   2.0000     -14.143446      -384.8627 
   1   2.0000     -14.143440      -384.8626 
   2   2.0000     -10.049774      -273.4683 
   3   2.0000     -10.049770      -273.4681 
   4   2.0000     -10.049652      -273.4649 
   5   2.0000     -10.049648      -273.4648 
   6   2.0000      -0.894608       -24.3435 
   7   2.0000      -0.840198       -22.8630 
   8   2.0000      -0.721040       -19.6205 
   9   2.0000      -0.627269       -17.0689 
  10   2.0000      -0.599625       -16.3166 
  11   2.0000      -0.555874       -15.1261 
  12   2.0000      -0.472612       -12.8604 
  13   2.0000      -0.423834       -11.5331 
  14   2.0000      -0.421404       -11.4670 
  15   2.0000      -0.413878       -11.2622 
  16   2.0000      -0.397135       -10.8066 
  17   2.0000      -0.359406        -9.7799 
  18   2.0000      -0.352965        -9.6047 
  19   2.0000      -0.317255        -8.6330 
  20   2.0000      -0.307344        -8.3633 
  21   2.0000      -0.306062        -8.3284 
  22   2.0000      -0.229948        -6.2572 
  23   2.0000      -0.166768        -4.5380 
  24   0.0000       0.075122         2.0442 
  25   0.0000       0.082646         2.2489 
  26   0.0000       0.110577         3.0089 
  27   0.0000       0.110770         3.0142 
  28   0.0000       0.118979         3.2376 
  29   0.0000       0.144101         3.9212 
  30   0.0000       0.151414         4.1202 
  31   0.0000       0.162734         4.4282 
  32   0.0000       0.163823         4.4579 
  33   0.0000       0.165600         4.5062 
  34   0.0000       0.170105         4.6288 
*Only the first 10 virtual orbitals were printed.
Total SCF time: 0 days 0 hours 0 min 10 sec 
Finished LeanSCF after  12.5 sec

Maximum memory used throughout the entire LEANSCF-calculation: 19.4 MB


-------------------------------------------------------------------------------
                          DFT DISPERSION CORRECTION                            
                                                                               
                                DFTD4 V3.4.0                                   
-------------------------------------------------------------------------------
-------------------------   ----------------
Dispersion correction           -0.004208639
-------------------------   ----------------

------------------   -----------------
gCP correction             0.015635928
------------------   -----------------

-------------------------   --------------------
FINAL SINGLE POINT ENERGY      -267.844086293846
-------------------------   --------------------

------------------------------------------------------------------------------
                         ORCA SCF GRADIENT CALCULATION
------------------------------------------------------------------------------

Nuc. rep. gradient        (SHARK) ... done (  0.0 sec)
HCore & Overlap gradient  (SHARK) ... done (  0.3 sec)
Split-RIJ-J gradient      (SHARK) ... done (  1.5 sec)
XC gradient                       ... done (  4.4 sec)
Dispersion correction             ... done (  0.0 sec)

-------------------
DISPERSION GRADIENT
-------------------

   1   C   :    0.000020160   -0.000048243    0.000009670
   2   C   :   -0.000020157   -0.000048250   -0.000009668
   3   N   :   -0.000070530    0.000000002    0.000018621
   4   C   :   -0.000020156    0.000048250   -0.000009670
   5   C   :    0.000020160    0.000048242    0.000009672
   6   N   :    0.000070522   -0.000000000   -0.000018632
   7   H   :    0.000021859   -0.000031535   -0.000001802
   8   H   :    0.000015302   -0.000020408    0.000011154
   9   H   :   -0.000015300   -0.000020411   -0.000011154
  10   H   :   -0.000021860   -0.000031535    0.000001803
  11   H   :   -0.000024756    0.000000001    0.000000538
  12   H   :   -0.000015298    0.000020410   -0.000011154
  13   H   :   -0.000021859    0.000031536    0.000001801
  14   H   :    0.000021860    0.000031535   -0.000001800
  15   H   :    0.000015300    0.000020406    0.000011154
  16   H   :    0.000024752    0.000000000   -0.000000533

Difference to translation invariance:
           :   -0.0000000000   -0.0000000000    0.0000000000

Difference to rotation invariance:
           :    0.0000000000   -0.0000000000    0.0000000000

Norm of the Dispersion gradient    ...    0.0001793886
RMS gradient                       ...    0.0000258925
MAX gradient                       ...    0.0000705297
gCP correction                   ... done

------------------
CARTESIAN GRADIENT
------------------

   1   C   :    0.003893710    0.001017162   -0.000937149
   2   C   :   -0.003899401    0.001021845    0.000941739
   3   N   :    0.003233696   -0.000009372   -0.001208365
   4   C   :   -0.003892343   -0.001013974    0.000943761
   5   C   :    0.003898643   -0.001023239   -0.000942808
   6   N   :   -0.003220040    0.000008098    0.001209534
   7   H   :   -0.000261542    0.000781014    0.000306393
   8   H   :   -0.000935812    0.000846800   -0.000993672
   9   H   :    0.000935851    0.000845250    0.000990153
  10   H   :    0.000261642    0.000780800   -0.000306067
  11   H   :    0.000070687    0.000001517   -0.000356988
  12   H   :    0.000936120   -0.000845977    0.000989072
  13   H   :    0.000260351   -0.000779807   -0.000308031
  14   H   :   -0.000261664   -0.000780799    0.000309002
  15   H   :   -0.000937726   -0.000847907   -0.000992895
  16   H   :   -0.000082172   -0.000001411    0.000356322

Difference to translation invariance:
           :    0.0000000000    0.0000000000   -0.0000000000

Difference to rotation invariance:
           :   -0.0000000258   -0.0004519502   -0.0000003535

Norm of the Cartesian gradient     ...    0.0102870412
RMS gradient                       ...    0.0014848065
MAX gradient                       ...    0.0038994005

-------
TIMINGS
-------

Total SCF gradient time     ....        6.168 sec

Densities                   ....       0.000 sec  (  0.0%)
One electron gradient       ....       0.264 sec  (  4.3%)
RI-J Coulomb gradient       ....       1.493 sec  ( 24.2%)
XC gradient                 ....       4.373 sec  ( 70.9%)

Maximum memory used throughout the entire SCFGRAD-calculation: 32.8 MB

------------------------------------------------------------------------------
                              ORCA PROPERTY CALCULATIONS
------------------------------------------------------------------------------

GBWName                                 ... xtb_opt.gbw
Number of atoms                         ...     16
Number of basis functions               ...    174
Max core memory                         ...   1024 MB

Electric properties:
Dipole moment                           ... YES
Quadrupole moment                       ...  NO
Static polarizability (Dipole/Dipole)   ...  NO
Static polarizability (Dipole/Quad.)    ...  NO
Static polarizability (Quad./Quad.)     ...  NO
Static polarizability (Velocity)        ...  NO

Atomic electric properties:
Dipole moment                           ...  NO
Quadrupole moment                       ...  NO
Static polarizability                   ...  NO

Choice of electric origin               ... Center of mass
Position of electric origin             ...    -0.000019    -0.000002     0.000004

General magnetic properties:
Magnetizability                         ...  NO

EPR properties:
g-Tensor (aka g-matrix)                 ...  NO
Zero-Field splitting spin-orbit         ...  NO
Zero-field splitting spin-spin          ...  NO
Hyperfine couplings                     ...  NO (   0 nuclei)
Quadrupole couplings                    ...  NO (   0 nuclei)
Contact density                         ...  NO (   0 nuclei)

NMR properties:
Chemical shifts                         ...  NO (   0 nuclei)
Spin-rotation constants                 ...  NO (   0 nuclei)
Spin-spin couplings                     ...  NO (   0 nuclei,    0 pairs)

Choice of magnetic origin               ... GIAO
Position of magnetic origin             ...     0.000000     0.000000     0.000000

Properties with geometric perturbations:
SCF Hessian                             ...  NO
IR spectrum                             ...  NO
VCD spectrum                            ...  NO
X-ray spectroscopy properties:
SCF XES/XAS/RIXS spectra                ...  NO


-------------
DIPOLE MOMENT
-------------

Method             : SCF
Type of density    : Electron Density
Multiplicity       :   1
Irrep              :   0
Energy             :  -267.8555135835402439 Eh
Relativity type    : 
Basis              : AO
                                X                 Y                 Z
Electronic contribution:      0.000113834       0.000096213      -0.000135811
Nuclear contribution   :     -0.000409057      -0.000089135       0.000338740
                        -----------------------------------------
Total Dipole Moment    :     -0.000295223       0.000007079       0.000202929
                        -----------------------------------------
Magnitude (a.u.)       :      0.000358311
Magnitude (Debye)      :      0.000910755



--------------------
Rotational spectrum 
--------------------
 
[...]
TOTAL SCF ENERGY
----------------

Total Energy       :       -267.85558446623304 Eh           -7288.72100 eV

Components:
Nuclear Repulsion  :        261.32452241797114 Eh            7111.00177 eV
Electronic Energy  :       -529.18010688420418 Eh          -14399.72278 eV
One Electron Energy:       -878.98731235088474 Eh          -23918.46076 eV
Two Electron Energy:        349.80720546668056 Eh            9518.73798 eV

Virial components:
Potential Energy   :       -534.39140964964713 Eh          -14541.52953 eV
Kinetic Energy     :        266.53582518341403 Eh            7252.80853 eV
Virial Ratio       :          2.00495152680474

DFT components:
N(Alpha)           :       24.000084217193 electrons
N(Beta)            :       24.000084217193 electrons
N(Total)           :       48.000168434386 electrons
E(X)               :      -37.666394000593 Eh       
E(C)               :       -1.527863784875 Eh       
E(XC)              :      -39.194257785468 Eh       

---------------
SCF CONVERGENCE
---------------

  Last Energy change         ...    3.5718e-09  Tolerance :   1.0000e-07
  Last MAX-Density change    ...    2.8938e-05  Tolerance :   1.0000e-07
  Last RMS-Density change    ...    1.3838e-06  Tolerance :   5.0000e-09
  Last DIIS Error            ...    2.5258e-05  Tolerance :   1.0000e-07
  Last Orbital Gradient      ...    9.1816e-06  Tolerance :   1.0000e-04
  Last Orbital Rotation      ...    1.8722e-05  Tolerance :   1.0000e-04


----------------
ORBITAL ENERGIES
----------------

  NO   OCC          E(Eh)            E(eV) 
   0   2.0000     -14.143917      -384.8755 
   1   2.0000     -14.143916      -384.8755 
   2   2.0000     -10.050543      -273.4892 
   3   2.0000     -10.050538      -273.4891 
   4   2.0000     -10.050416      -273.4857 
   5   2.0000     -10.050412      -273.4856 
   6   2.0000      -0.892226       -24.2787 
   7   2.0000      -0.837994       -22.8030 
   8   2.0000      -0.721424       -19.6309 
   9   2.0000      -0.628298       -17.0969 
  10   2.0000      -0.598784       -16.2938 
  11   2.0000      -0.554368       -15.0851 
  12   2.0000      -0.471041       -12.8177 
  13   2.0000      -0.423150       -11.5145 
  14   2.0000      -0.421032       -11.4569 
  15   2.0000      -0.413605       -11.2548 
  16   2.0000      -0.396351       -10.7853 
  17   2.0000      -0.358981        -9.7684 
  18   2.0000      -0.352849        -9.6015 
  19   2.0000      -0.318600        -8.6696 
  20   2.0000      -0.306250        -8.3335 
  21   2.0000      -0.304823        -8.2946 
  22   2.0000      -0.229483        -6.2446 
  23   2.0000      -0.168433        -4.5833 
  24   0.0000       0.073404         1.9974 
  25   0.0000       0.083198         2.2639 
  26   0.0000       0.108756         2.9594 
  27   0.0000       0.110925         3.0184 
  28   0.0000       0.118959         3.2370 
  29   0.0000       0.143907         3.9159 
  30   0.0000       0.151470         4.1217 
  31   0.0000       0.162676         4.4266 
  32   0.0000       0.162734         4.4282 
  33   0.0000       0.164569         4.4781 
  34   0.0000       0.170905         4.6506 
*Only the first 10 virtual orbitals were printed.
Total SCF time: 0 days 0 hours 0 min 4 sec 
Finished LeanSCF after   8.2 sec

Maximum memory used throughout the entire LEANSCF-calculation: 19.5 MB


-------------------------------------------------------------------------------
                          DFT DISPERSION CORRECTION                            
                                                                               
                                DFTD4 V3.4.0                                   
-------------------------------------------------------------------------------
-------------------------   ----------------
Dispersion correction           -0.004201458
-------------------------   ----------------

------------------   -----------------
gCP correction             0.015516225
------------------   -----------------

-------------------------   --------------------
FINAL SINGLE POINT ENERGY      -267.844269699943
-------------------------   --------------------

------------------------------------------------------------------------------
                         ORCA SCF GRADIENT CALCULATION
------------------------------------------------------------------------------

Nuc. rep. gradient        (SHARK) ... done (  0.0 sec)
HCore & Overlap gradient  (SHARK) ... done (  0.2 sec)
Split-RIJ-J gradient      (SHARK) ... done (  0.9 sec)
XC gradient                       ... done (  4.0 sec)
Dispersion correction             ... done (  0.0 sec)

-------------------
DISPERSION GRADIENT
-------------------

   1   C   :    0.000020488   -0.000049227    0.000009675
   2   C   :   -0.000020489   -0.000049229   -0.000009675
   3   N   :   -0.000071035    0.000000001    0.000018271
   4   C   :   -0.000020487    0.000049229   -0.000009675
   5   C   :    0.000020489    0.000049227    0.000009676
   6   N   :    0.000071034   -0.000000001   -0.000018274
   7   H   :    0.000021688   -0.000031427   -0.000001796
   8   H   :    0.000015468   -0.000020826    0.000011336
   9   H   :   -0.000015468   -0.000020827   -0.000011337
  10   H   :   -0.000021689   -0.000031427    0.000001796
  11   H   :   -0.000024865    0.000000000    0.000000455
  12   H   :   -0.000015468    0.000020827   -0.000011336
  13   H   :   -0.000021688    0.000031427    0.000001796
  14   H   :    0.000021689    0.000031427   -0.000001796
  15   H   :    0.000015469    0.000020826    0.000011336
  16   H   :    0.000024864   -0.000000000   -0.000000455

Difference to translation invariance:
           :    0.0000000000   -0.0000000000    0.0000000000

Difference to rotation invariance:
           :    0.0000000000   -0.0000000000   -0.0000000000

Norm of the Dispersion gradient    ...    0.0001810933
RMS gradient                       ...    0.0000261386
MAX gradient                       ...    0.0000710351
gCP correction                   ... done

------------------
CARTESIAN GRADIENT
------------------

   1   C   :   -0.000072323   -0.000052588    0.000013167
   2   C   :    0.000071847   -0.000052387   -0.000013477
   3   N   :   -0.000082871    0.000000157   -0.000026481
   4   C   :    0.000071968    0.000052250   -0.000013111
   5   C   :   -0.000072487    0.000052870    0.000012919
   6   N   :    0.000085698   -0.000000059    0.000026251
   7   H   :   -0.000004516    0.000015627    0.000019545
   8   H   :   -0.000020801    0.000022202   -0.000014157
   9   H   :    0.000020809    0.000021530    0.000014483
  10   H   :    0.000004479    0.000015718   -0.000019028
  11   H   :    0.000025271    0.000000009    0.000013813
  12   H   :    0.000020958   -0.000021735    0.000014235
  13   H   :    0.000004444   -0.000015571   -0.000019406
  14   H   :   -0.000004469   -0.000015603    0.000019902
  15   H   :   -0.000020946   -0.000022461   -0.000013969
  16   H   :   -0.000027059    0.000000039   -0.000014685

Difference to translation invariance:
           :    0.0000000000    0.0000000000   -0.0000000000

Difference to rotation invariance:
           :   -0.0000000469   -0.0005023701   -0.0000002588

Norm of the Cartesian gradient     ...    0.0002387339
RMS gradient                       ...    0.0000344583
MAX gradient                       ...    0.0000856975

-------
TIMINGS
-------

Total SCF gradient time     ....        5.047 sec

Densities                   ....       0.000 sec  (  0.0%)
One electron gradient       ....       0.153 sec  (  3.0%)
RI-J Coulomb gradient       ....       0.860 sec  ( 17.0%)
XC gradient                 ....       3.995 sec  ( 79.2%)

Maximum memory used throughout the entire SCFGRAD-calculation: 32.8 MB

------------------------------------------------------------------------------
                              ORCA PROPERTY CALCULATIONS
------------------------------------------------------------------------------

GBWName                                 ... xtb_opt.gbw
Number of atoms                         ...     16
Number of basis functions               ...    174
Max core memory                         ...   1024 MB

Electric properties:
Dipole moment                           ... YES
Quadrupole moment                       ...  NO
Static polarizability (Dipole/Dipole)   ...  NO
Static polarizability (Dipole/Quad.)    ...  NO
Static polarizability (Quad./Quad.)     ...  NO
Static polarizability (Velocity)        ...  NO

Atomic electric properties:
Dipole moment                           ...  NO
Quadrupole moment                       ...  NO
Static polarizability                   ...  NO

Choice of electric origin               ... Center of mass
Position of electric origin             ...    -0.000056    -0.000011     0.000033

General magnetic properties:
Magnetizability                         ...  NO

EPR properties:
g-Tensor (aka g-matrix)                 ...  NO
Zero-Field splitting spin-orbit         ...  NO
Zero-field splitting spin-spin          ...  NO
Hyperfine couplings                     ...  NO (   0 nuclei)
Quadrupole couplings                    ...  NO (   0 nuclei)
Contact density                         ...  NO (   0 nuclei)

NMR properties:
Chemical shifts                         ...  NO (   0 nuclei)
Spin-rotation constants                 ...  NO (   0 nuclei)
Spin-spin couplings                     ...  NO (   0 nuclei,    0 pairs)

Choice of magnetic origin               ... GIAO
Position of magnetic origin             ...     0.000000     0.000000     0.000000

Properties with geometric perturbations:
SCF Hessian                             ...  NO
IR spectrum                             ...  NO
VCD spectrum                            ...  NO
X-ray spectroscopy properties:
SCF XES/XAS/RIXS spectra                ...  NO


-------------
DIPOLE MOMENT
-------------

Method             : SCF
Type of density    : Electron Density
Multiplicity       :   1
Irrep              :   0
Energy             :  -267.8555844662330401 Eh
Relativity type    : 
Basis              : AO
                                X                 Y                 Z
Electronic contribution:      0.000024310       0.000019633      -0.000066001
Nuclear contribution   :     -0.000084549      -0.000018068       0.000112336
                        -----------------------------------------
Total Dipole Moment    :     -0.000060238       0.000001565       0.000046335
                        -----------------------------------------
Magnitude (a.u.)       :      0.000076014
Magnitude (Debye)      :      0.000193211



--------------------
Rotational spectrum 
--------------------
 
Rotational constants in cm-1:             0.156304             0.149531             0.086990 
Rotational constants in MHz :          4685.883788          4482.834621          2607.893007 

Dipole components along the rotational axes: 
x,y,z [a.u.] :     0.000060     0.000002     0.000046 
x,y,z [Debye]:     0.000153     0.000004     0.000118 

 

Dipole moment calculation done in   0.8 sec 

Maximum memory used throughout the entire PROP-calculation: 11.1 MB

--------------------------------
SUGGESTED CITATIONS FOR THIS RUN
--------------------------------

Below you find a list of papers that are relevant to this ORCA run
We neither can nor want to force you to cite these papers, but we appreciate if you do
You receive ORCA, which is the product of decades of hard work by many enthusiastic individuals, for free
The only thing we kindly ask in return is that you cite our papers,
We deeply appreciate it, if you show your appreciation for ORCA by not just citing the generic ORCA reference.

Please note that relegating all ORCA citations to the supporting information does *not* help us.
SI sections are not indexed - citations you put there will not count into any citation statistics
But we need these citations in order to attract the funding resources that allow us to do what we are doing

Therefore, if you are a happy ORCA user, please consider citing a few of the papers listed below in the main body of your paper

In addition to the list printed below, the program has created the file xtb_opt.bibtex that contains the list in bibtex format
You can import this file easily into all common literature databanks and citation aid programs


List of essential papers. We consider these as the minimum necessary citations

  1. Neese,F.
     Software update: the ORCA program system, version 5.0
     WIRES Comput. Molec. Sci., 2022 12(1)e1606
     doi.org/10.1002/wcms.1606
  2. Grimme,S.; Hansen,A.; Ehlert,S.; Mewes,J.
     r2SCAN-3c: A 'Swiss army knife' composite electronic-structure method
     J. Chem. Phys., 2021 154 064103
     doi.org/10.1063/5.0040021

List of papers to cite with high priority. The work reported in these papers was absolutely
necessary for this run to complete.
Our perspective: the developers of density functionals and basis sets usually get cited in chemistry papers
Good! But without the algorithms to do something with them, the functionals or basis sets would not do anything.
Hence, in our opinion, the algorithm design and method developments papers are equally worthy of getting cited

  1. Neese,F.
     An improvement of the resolution of the identity approximation for the formation of the Coulomb matrix
     J. Comp. Chem., 2003 24(14)1740-1747
     doi.org/10.1002/jcc.10318
  2. Neese,F.
     The SHARK Integral Generation and Digestion System
     J. Comp. Chem., 2022  1-16
     doi.org/10.1002/jcc.26942
  3. Lehtola,S.; Steigemann,C.; Oliveira,M.; Marques,M.
     Recent developments in Libxc - A comprehensive library of functionals for density functional theory
     Software X, 2018 7 
     doi.org/10.1016/j.softx.2017.11.002
  4. Caldeweyher,E.; Bannwarth,C.; Grimme,S.
     Extension of the D3 dispersion coefficient model
     J. Chem. Phys., 2017 147 034112
     doi.org/10.1063/1.4993215
  5. Caldeweyher,E.; Ehlert,S.; Hansen,A.; Neugebauer,H.; Spicher,S.; Bannwarth,C.; Grimme,S.
     A generally applicable atomic-charge dependent London dispersion correction
     J. Chem. Phys., 2019 150 154122
     doi.org/10.1063/1.5090222
  6. Caldeweyher,E.; Mewes,J.; Ehlert,S.; Grimme,S.
     Extension and evaluation of the D4 London-dispersion model for periodic systems
     Phys. Chem. Chem. Phys., 2020 22(16)8499-8512
     doi.org/10.1039/D0CP00502A
  7. Wittmann,L.; Gordiy,I.; Friede,M.; Helmich-Paris,B.; Grimme,S.; Hansen,A.; Bursch,M.
     Extension of the D3 and D4 London Dispersion Corrections to the full Actinides Series
     Phys. Chem. Chem. Phys., 2024 26(32)21379-21394
     doi.org/https://doi.org/10.1039/D4CP01514B 

List of suggested additional citations. These are papers that are important in the 'surrounding' of 
of this run, or papers that preceded the highly important papers. If you like your results we are grateful for a citation.

  1. Neese,F.
     The ORCA program system
     WIRES Comput. Molec. Sci., 2012 2(1)73-78
     doi.org/10.1002/wcms.81
  2. Neese,F.
     Software update: the ORCA program system, version 4.0
     WIRES Comput. Molec. Sci., 2018 8(1)1-6
     doi.org/10.1002/wcms.1327
  3. Neese,F.; Wennmohs,F.; Becker,U.; Riplinger,C.
     The ORCA quantum chemistry program package
     J. Chem. Phys., 2020 152 Art. No. L224108
     doi.org/10.1063/5.0004608

List of optional additional citations

  1. Neese,F.
     Approximate second-order SCF convergence for spin unrestricted wavefunctions
     Chem. Phys. Lett., 2000 325(1-3)93-98
     doi.org/10.1016/s0009-2614(00)00662-x

Timings for individual modules:

Sum of individual times          ...       15.770 sec (=   0.263 min)
Startup calculation              ...        0.640 sec (=   0.011 min)   4.1 %
SCF iterations                   ...        8.343 sec (=   0.139 min)  52.9 %
Property calculations            ...        0.849 sec (=   0.014 min)   5.4 %
SCF Gradient evaluation          ...        5.938 sec (=   0.099 min)  37.7 %
                             ****ORCA TERMINATED NORMALLY****
TOTAL RUN TIME: 0 days 0 hours 0 minutes 20 seconds 13 msec
  ------------------------------------------------------------------------
          * successful ORCA run, taking over control again...

         :::::::::::::::::::::::::::::::::::::::::::::::::::::
         ::                  ORCA SUMMARY                   ::
         :::::::::::::::::::::::::::::::::::::::::::::::::::::
         :: total energy            -267.844269699943 Eh    ::
         :: gradient norm              0.000238733881 Eh/a0 ::
         :: HOMO-LUMO gap              0.000000000000 eV    ::
         :::::::::::::::::::::::::::::::::::::::::::::::::::::

           -------------------------------------------------
          |                Property Printout                |
           -------------------------------------------------
           -------------------------------------------------
          |                Geometry Summary                 |
           -------------------------------------------------

      molecular mass/u    :       86.1357575
   center of mass at/Å    :       -0.0000295      -0.0000056       0.0000173
  moments of inertia/u·Å² :        0.1078479E+03   0.1127333E+03   0.1937829E+03
rotational constants/cm⁻¹ :        0.1563094E+00   0.1495355E+00   0.8699238E-01

 * 16 selected distances

     #   Z          #   Z                                           value/Å
     1   6 C        2   6 C                                       1.5321113 (max)
     2   6 C        3   7 N                                       1.4704723
     3   7 N        4   6 C                                       1.4704718
     4   6 C        5   6 C                                       1.5321098
     1   6 C        6   7 N                                       1.4704757
     5   6 C        6   7 N                                       1.4704758
     1   6 C        7   1 H                                       1.0977737
     1   6 C        8   1 H                                       1.1007160
     2   6 C        9   1 H                                       1.1007164
     2   6 C       10   1 H                                       1.0977737
     3   7 N       11   1 H                                       1.0170228 (min)
     4   6 C       12   1 H                                       1.1007169
     4   6 C       13   1 H                                       1.0977738
     5   6 C       14   1 H                                       1.0977736
     5   6 C       15   1 H                                       1.1007164
     6   7 N       16   1 H                                       1.0170258

 * 4 distinct bonds (by element types)

   Z      Z             #   av. dist./Å        max./Å        min./Å
   1 H    6 C           8     1.0992451     1.1007169     1.0977736
   6 C    6 C           2     1.5321106     1.5321113     1.5321098
   1 H    7 N           2     1.0170243     1.0170258     1.0170228
   6 C    7 N           4     1.4704739     1.4704758     1.4704718


optimized geometry written to: xtbopt.coord


           -------------------------------------------------
          | TOTAL ENERGY             -267.844269699943 Eh   |
          | GRADIENT NORM               0.000238733881 Eh/α |
           -------------------------------------------------

------------------------------------------------------------------------
 * finished run on 2025/04/15 at 19:22:08.315     
------------------------------------------------------------------------
 total:
 * wall-time:     0 d,  0 h,  2 min, 29.662 sec
 *  cpu-time:     0 d,  0 h,  0 min,  0.960 sec
 * ratio c/w:     0.006 speedup
 SCF:
 * wall-time:     0 d,  0 h,  0 min, 18.926 sec
 *  cpu-time:     0 d,  0 h,  0 min,  0.298 sec
 * ratio c/w:     0.016 speedup
 ANC optimizer:
 * wall-time:     0 d,  0 h,  2 min, 10.664 sec
 *  cpu-time:     0 d,  0 h,  0 min,  0.637 sec
 * ratio c/w:     0.005 speedup

