
                                 *****************
                                 * O   R   C   A *
                                 *****************

                                            #,                                       
                                            ###                                      
                                            ####                                     
                                            #####                                    
                                            ######                                   
                                           ########,                                 
                                     ,,################,,,,,                         
                               ,,#################################,,                 
                          ,,##########################################,,             
                       ,#########################################, ''#####,          
                    ,#############################################,,   '####,        
                  ,##################################################,,,,####,       
                ,###########''''           ''''###############################       
              ,#####''   ,,,,##########,,,,          '''####'''          '####       
            ,##' ,,,,###########################,,,                        '##       
           ' ,,###''''                  '''############,,,                           
         ,,##''                                '''############,,,,        ,,,,,,###''
      ,#''                                            '''#######################'''  
     '                                                          ''''####''''         
             ,#######,   #######,   ,#######,      ##                                
            ,#'     '#,  ##    ##  ,#'     '#,    #''#        ,####,   ,####,        
            ##       ##  ##   ,#'  ##            #'  '#       #'       #'  '#        
            ##       ##  #######   ##           ,######,      #####,   #    #        
            '#,     ,#'  ##    ##  '#,     ,#' ,#      #,     #,   #   #,  ,#        
             '#######'   ##     ##  '#######'  #'      '#     '####' # '####'        



                #########################################################
                #                        -***-                          #
                #          Department of theory and spectroscopy        #
                #                                                       #
                #                      Frank Neese                      #
                #                                                       #
                #     Directorship, Architecture, Infrastructure        #
                #                    SHARK, DRIVERS                     #
                #        Core code/Algorithms in most modules           #
                #                                                       #
                #        Max Planck Institute fuer Kohlenforschung      #
                #                Kaiser Wilhelm Platz 1                 #
                #                 D-45470 Muelheim/Ruhr                 #
                #                      Germany                          #
                #                                                       #
                #                  All rights reserved                  #
                #                        -***-                          #
                #########################################################


                         Program Version 6.0.1  -  RELEASE   -


 With contributions from (in alphabetic order):
[Max-Planck-Institut fuer Kohlenforschung]                               
  Daniel Aravena         : Magnetic Suceptibility                        
  Michael Atanasov       : Ab Initio Ligand Field Theory (pilot matlab implementation)
  Alexander A. Auer      : GIAO ZORA, VPT2 properties, NMR spectrum      
  Ute Becker             : All parallelization in ORCA, NUMFREQ, NUMCALC 
  Giovanni Bistoni       : ED, misc. LED, open-shell LED, HFLD           
  Martin Brehm           : Molecular dynamics                            
  Dmytro Bykov           : pre 5.0 version of the SCF Hessian            
  Marcos Casanova-Páez   : Triplet and SCS-CIS(D). UHF-(DLPNO)-IP/EA/STEOM-CCSD. UHF-CVS-IP/STEOM-CCSD   
  Vijay G. Chilkuri      : MRCI spin determinant printing, contributions to CSF-ICE 
  Pauline Colinet        : FMM embedding                                 
  Dipayan Datta          : RHF DLPNO-CCSD density                        
  Achintya Kumar Dutta   : EOM-CC, STEOM-CC                              
  Nicolas Foglia         : Exact transition moments, OPA infrastructure, MCD improvements    
  Dmitry Ganyushin       : Spin-Orbit,Spin-Spin,Magnetic field MRCI      
  Miquel Garcia-Rates    : C-PCM and meta-GGA Hessian, CCSD/C-PCM, Gaussian charge scheme 
  Tiago L. C. Gouveia    : GS-ROHF, GS-ROCIS                             
  Yang Guo               : DLPNO-NEVPT2, F12-NEVPT2, CIM, IAO-localization        
  Andreas Hansen         : Spin unrestricted coupled pair/coupled cluster methods 
  Ingolf Harden          : AUTO-CI MPn and infrastructure                
  Benjamin Helmich-Paris : MC-RPA, TRAH-(SCF,CASSCF), AVAS, COSX integrals, SCF dyn. polar. 
  Lee Huntington         : MR-EOM, pCC                                   
  Robert Izsak           : Overlap fitted RIJCOSX, COSX-SCS-MP3, EOM     
  Riya Kayal             : Wick's Theorem for AUTO-CI, AUTO-CI UHF-CCSDT 
  Emily Kempfer          : AUTO-CI, RHF CISDT and CCSDT                  
  Christian Kollmar      : KDIIS, OOCD, Brueckner-CCSD(T), CCSD density, CASPT2, CASPT2-K, improved NEVPT2 
  Axel Koslowski         : Symmetry handling                             
  Simone Kossmann        : meta-GGA functionals, TD-DFT gradient, OOMP2, (MP2 Hessian; deprecated post 5.0) 
  Lucas Lang             : DCDCAS                                        
  Marvin Lechner         : AUTO-CI (C++ implementation), FIC-MRCC        
  Spencer Leger          : CASSCF response                               
  Dagmar Lenk            : GEPOL surface, SMD, ORCA-2-JSON               
  Dimitrios Liakos       : Extrapolation schemes; Compound Job, initial MDCI parallelization 
  Dimitrios Manganas     : Further ROCIS development; embedding schemes. LFT, Crystal Embedding 
  Dimitrios Pantazis     : SARC Basis sets                               
  Anastasios Papadopoulos: AUTO-CI, single reference methods and gradients 
  Taras Petrenko         : pre 6.0 DFT Hessian and TD-DFT gradient, (ASA, deprecated), ECA, 1-Electron XAS/XES, NRVS 
  Peter Pinski           : DLPNO-MP2, DLPNO-MP2 Gradient                 
  Christoph Reimann      : Effective Core Potentials                     
  Marius Retegan         : Local ZFS, SOC                                
  Christoph Riplinger    : Optimizer, TS searches, QM/MM, DLPNO-CCSD(T), (RO)-DLPNO pert. Triples 
  Michael Roemelt        : Original ROCIS implementation                 
  Masaaki Saitow         : Open-shell DLPNO-CCSD energy and density      
  Barbara Sandhoefer     : DKH picture change effects                    
  Kantharuban Sivalingam : CASSCF convergence/infrastructure, NEVPT2 and variants, FIC-MRCI 
  Bernardo de Souza      : ESD, SOC TD-DFT                               
  Georgi L. Stoychev     : AutoAux, RI-MP2 NMR, DLPNO-MP2 response, X2C  
  Van Anh Tran           : RI-MP2 g-tensors                              
  Willem Van den Heuvel  : Paramagnetic NMR                              
  Zikuan Wang            : NOTCH, Electric field optimization            
  Frank Wennmohs         : Technical directorship and infrastructure     
  Hang Xu                : AUTO-CI-Response properties                   
                                                                         
[FACCTs GmbH]                                                            
  Markus Bursch, Miquel Garcia-Rates, Christoph Riplinger, Bernardo de Souza, Georgi L. Stoychev 
                                                                 
  APM, Basis sets (HGBS, AHGBS, def-TZVP (Ac-Lr), def2-XVPD (La-Lu)), CI-OPT, improved COSX, DLPNO-Multilevel,           
  DOCKER, DRACO, updates on ESD, GOAT, IRC, LR-CPCM, MBIS, meta-GGA TD-DFT gradient, ML-optimized integration grids, 
  MM, NACMEs, nearIR, NEB, NEB-TS, NL-DFT gradient (VV10), 2- and 3-layer-ONIOM, interface openCOSMO-RS, QMMM,   
  Crystal-QMMM, SF, symmetry and pop. for TD-DFT, r2SCAN hybrids, SOLVATOR                                   
                                                                         
[Other institutions]                                                     
  V. Asgeirsson          : NEB                                           
  Christoph Bannwarth    : sTDA-DFT, sTD-DFT, PBEh-3c, B97-3c, D3        
  Sebastian Ehlert       : rSCAN, r2SCAN, r2SCAN-3c, D4, dhf basis sets  
  Marvin Friede          : D4 for Fr, Ra, Ac-Lr                          
  Lars Goerigk           : TD-DFT with DH, B97 family of functionals     
  Stefan Grimme          : VdW corrections, initial TS optimization, DFT functionals, gCP, sTDA/sTD-DF 
  Waldemar Hujo          : DFT-NL                                        
  H. Jonsson             : NEB                                           
  Holger Kruse           : gCP                                           
  Marcel Mueller         : wB97X-3c, vDZP basis set                      
  Hagen Neugebauer       : wr2SCAN                                       
  Tobias Risthaus        : range-separated hybrid DFT                    
  Lukas Wittmann         : regularized MP2, r2SCAN double-hybrids, wr2SCAN        
                                                                         
We gratefully acknowledge several colleagues who have allowed us to      
interface, adapt or use parts of their codes:                            
  Ed Valeev, F. Pavosevic, A. Kumar             : LibInt (2-el integral package), F12 methods 
  Garnet Chan, S. Sharma, J. Yang, R. Olivares  : DMRG                   
  Ulf Ekstrom                                   : XCFun DFT Library      
  Mihaly Kallay                                 : mrcc  (arbitrary order and MRCC methods)
  Frank Weinhold                                : gennbo (NPA and NBO analysis)           
  Simon Mueller                                 : openCOSMO-RS                            
  Christopher J. Cramer and Donald G. Truhlar   : smd solvation model                     
  S Lehtola, MJT Oliveira, MAL Marques          : LibXC Library                           
  Liviu Ungur et al                             : ANISO software                          


 Your calculation uses the libint2 library for the computation of 2-el integrals
 For citations please refer to: http://libint.valeyev.net

 Your ORCA version has been built with support for libXC version: 6.2.2
 For citations please refer to: https://libxc.gitlab.io

 This ORCA versions uses:
   CBLAS   interface :  Fast vector & matrix operations
   LAPACKE interface :  Fast linear algebra routines
   SCALAPACK package :  Parallel linear algebra routines
   Shared memory     :  Shared parallel matrices
   BLAS/LAPACK       :  OpenBLAS 0.3.27  USE64BITINT DYNAMIC_ARCH NO_AFFINITY Zen SINGLE_THREADED
        Core in use  :  Zen
   Copyright (c) 2011-2014, The OpenBLAS Project


Your calculation utilizes the geometrical counterpoise correction gCP
Please cite in your paper:
H.Kruse, S. Grimme J.Chem.Phys., 136, (2012), 154101 
   

Your calculation utilizes the atom-pairwise dispersion correction
based on EEQ partial charges (D4)


================================================================================

----- Orbital basis set information -----
Your calculation utilizes the basis: def2-SV(P)
   F. Weigend and R. Ahlrichs, Phys. Chem. Chem. Phys. 7, 3297 (2005).

----- AuxJ basis set information -----
Your calculation utilizes the auxiliary basis: def2/J
   F. Weigend, Phys. Chem. Chem. Phys. 8, 1057 (2006).

================================================================================
                                        WARNINGS
                       Please study these warnings very carefully!
================================================================================


================================================================================
                                       INPUT FILE
================================================================================
NAME = sp.inp
|  1> ! pbe def2-sv(p) def2/J RI DEFGRID1 loosescf d4 GCP(DFT/SV(P)) printgap
|  2> %output
|  3>     printlevel normal
|  4> end
|  5> * xyz 0 1
|  6> C -2.510418639 -0.7247174812 -0.0089567955
|  7> C -1.1236848246 -0.4795068697 0.6056220832
|  8> H -1.1426706395 -0.8078753777 1.6612106362
|  9> C -0.7249569886 1.018346983 0.5791670719
| 10> H -1.5899256266 1.6267318319 0.2766611344
| 11> C 0.3984466548 1.2301647074 -0.4616609607
| 12> H 0.6869897681 2.2864596725 -0.4573819742
| 13> C 1.6222564115 0.3816535757 -0.0692285941
| 14> H 2.3023030994 0.3091265679 -0.9248185215
| 15> C 1.1500694912 -1.0577247796 0.2690059305
| 16> H 1.2455065514 -1.2160262524 1.3645624765
| 17> O -0.1991242309 -1.2742177222 -0.1054382684
| 18> O 1.9199846226 -1.9525416806 -0.4445847309
| 19> O 2.3529681397 0.9585175256 0.9695716399
| 20> O -0.0696395028 0.9395718499 -1.7503255746
| 21> O -0.2471010619 1.457130324 1.8347807916
| 22> O -2.5920988737 -0.436062188 -1.3720558041
| 23> H -3.2438336555 -0.132916456 0.5642984274
| 24> H -2.7613214564 -1.7833979145 0.092326985
| 25> H 1.5327092525 -2.8334055264 -0.3676540013
| 26> H 1.734371919 1.2258171775 1.6650145954
| 27> H -0.0537556223 -0.0233089352 -1.8681577226
| 28> H -0.9749624817 1.4917237627 2.4646811826
| 29> H -2.0677859362 0.3519634969 -1.5826868099
| 30> *
| 31> 
| 32>                          ****END OF INPUT****
================================================================================

                       ****************************
                       * Single Point Calculation *
                       ****************************

---------------------------------
CARTESIAN COORDINATES (ANGSTROEM)
---------------------------------
  C     -2.510419   -0.724717   -0.008957
  C     -1.123685   -0.479507    0.605622
  H     -1.142671   -0.807875    1.661211
  C     -0.724957    1.018347    0.579167
  H     -1.589926    1.626732    0.276661
  C      0.398447    1.230165   -0.461661
  H      0.686990    2.286460   -0.457382
  C      1.622256    0.381654   -0.069229
  H      2.302303    0.309127   -0.924819
  C      1.150069   -1.057725    0.269006
  H      1.245507   -1.216026    1.364562
  O     -0.199124   -1.274218   -0.105438
  O      1.919985   -1.952542   -0.444585
  O      2.352968    0.958518    0.969572
  O     -0.069640    0.939572   -1.750326
  O     -0.247101    1.457130    1.834781
  O     -2.592099   -0.436062   -1.372056
  H     -3.243834   -0.132916    0.564298
  H     -2.761321   -1.783398    0.092327
  H      1.532709   -2.833406   -0.367654
  H      1.734372    1.225817    1.665015
  H     -0.053756   -0.023309   -1.868158
  H     -0.974962    1.491724    2.464681
  H     -2.067786    0.351963   -1.582687

----------------------------
CARTESIAN COORDINATES (A.U.)
----------------------------
  NO LB      ZA    FRAG     MASS         X           Y           Z
   0 C     6.0000    0    12.011   -4.744004   -1.369518   -0.016926
   1 C     6.0000    0    12.011   -2.123457   -0.906137    1.144460
   2 H     1.0000    0     1.008   -2.159335   -1.526663    3.139233
   3 C     6.0000    0    12.011   -1.369970    1.924397    1.094467
   4 H     1.0000    0     1.008   -3.004524    3.074078    0.522814
   5 C     6.0000    0    12.011    0.752955    2.324674   -0.872413
   6 H     1.0000    0     1.008    1.298223    4.320783   -0.864327
   7 C     6.0000    0    12.011    3.065620    0.721221   -0.130823
   8 H     1.0000    0     1.008    4.350722    0.584165   -1.747654
   9 C     6.0000    0    12.011    2.173316   -1.998810    0.508348
  10 H     1.0000    0     1.008    2.353666   -2.297957    2.578649
  11 O     8.0000    0    15.999   -0.376290   -2.407923   -0.199249
  12 O     8.0000    0    15.999    3.628245   -3.689769   -0.840143
  13 O     8.0000    0    15.999    4.446465    1.811336    1.832225
  14 O     8.0000    0    15.999   -0.131600    1.775533   -3.307636
  15 O     8.0000    0    15.999   -0.466953    2.753577    3.467233
  16 O     8.0000    0    15.999   -4.898357   -0.824038   -2.592810
  17 H     1.0000    0     1.008   -6.129957   -0.251176    1.066369
  18 H     1.0000    0     1.008   -5.218141   -3.370134    0.174473
  19 H     1.0000    0     1.008    2.896401   -5.354360   -0.694765
  20 H     1.0000    0     1.008    3.277488    2.316459    3.146422
  21 H     1.0000    0     1.008   -0.101583   -0.044048   -3.530306
  22 H     1.0000    0     1.008   -1.842412    2.818949    4.657572
  23 H     1.0000    0     1.008   -3.907549    0.665115   -2.990845

--------------------------------
INTERNAL COORDINATES (ANGSTROEM)
--------------------------------
 C      0   0   0     0.000000000000     0.00000000     0.00000000
 C      1   0   0     1.536511019855     0.00000000     0.00000000
 H      2   1   0     1.105646205365   108.60123319     0.00000000
 C      2   1   3     1.550241890439   112.30284751   240.73007811
 H      4   2   1     1.099914865486   109.68553494     9.44421655
 C      4   2   1     1.546035409627   109.31484449   251.09662523
 H      6   4   2     1.095004333897   108.72386971   181.17465270
 C      6   4   2     1.540027474939   109.29271010   299.72042360
 H      8   6   4     1.095334555491   109.31799220   164.57953191
 C      8   6   4     1.552151130219   108.94860128    47.58709790
 H     10   8   6     1.111040833738   108.71573148   250.85133253
 O      2   1   3     1.411376793816   107.44836473   117.72670257
 O     10   8   6     1.379376028468   108.60517646   129.11824198
 O      8   6   4     1.394925651274   112.22157531   282.49279799
 O      6   4   2     1.401501104846   110.36051538    64.15996765
 O      4   2   1     1.413309208956   111.82519001   131.48712086
 O      1   2   3     1.395719329335   114.23291834   184.22073438
 H      1   2   3     1.103062822525   107.85368164    60.36754096
 H      1   2   3     1.092709882734   108.95207891   302.66315413
 H     13  10   8     0.965309102972   109.07482336   190.26294646
 H     14   8   6     0.968375594759   108.32062155    47.33350831
 H     15   6   4     0.970193856441   108.17901670   279.75115408
 H     16   4   2     0.963199592513   109.67274597   289.79120853
 H     17   1   2     0.969666931011   110.40005672   322.04141366

---------------------------
INTERNAL COORDINATES (A.U.)
---------------------------
 C      0   0   0     0.000000000000     0.00000000     0.00000000
 C      1   0   0     2.903585029279     0.00000000     0.00000000
 H      2   1   0     2.089368529149   108.60123319     0.00000000
 C      2   1   3     2.929532614262   112.30284751   240.73007811
 H      4   2   1     2.078537866398   109.68553494     9.44421655
 C      4   2   1     2.921583517540   109.31484449   251.09662523
 H      6   4   2     2.069258306523   108.72386971   181.17465270
 C      6   4   2     2.910230166350   109.29271010   299.72042360
 H      8   6   4     2.069882334898   109.31799220   164.57953191
 C      8   6   4     2.933140554570   108.94860128    47.58709790
 H     10   8   6     2.099562899369   108.71573148   250.85133253
 O      2   1   3     2.667115612084   107.44836473   117.72670257
 O     10   8   6     2.606642929500   108.60517646   129.11824198
 O      8   6   4     2.636027458089   112.22157531   282.49279799
 O      6   4   2     2.648453264547   110.36051538    64.15996765
 O      4   2   1     2.670767347476   111.82519001   131.48712086
 O      1   2   3     2.637527292263   114.23291834   184.22073438
 H      1   2   3     2.084486643083   107.85368164    60.36754096
 H      1   2   3     2.064922422196   108.95207891   302.66315413
 H     13  10   8     1.824169839198   109.07482336   190.26294646
 H     14   8   6     1.829964668868   108.32062155    47.33350831
 H     15   6   4     1.833400685487   108.17901670   279.75115408
 H     16   4   2     1.820183442153   109.67274597   289.79120853
 H     17   1   2     1.832404940731   110.40005672   322.04141366

---------------------
BASIS SET INFORMATION
---------------------
There are 3 groups of distinct atoms

 Group   1 Type C   : 7s4p1d contracted to 3s2p1d pattern {511/31/1}
 Group   2 Type H   : 4s contracted to 2s pattern {31}
 Group   3 Type O   : 7s4p1d contracted to 3s2p1d pattern {511/31/1}

Atom   0C    basis set group =>   1
Atom   1C    basis set group =>   1
Atom   2H    basis set group =>   2
Atom   3C    basis set group =>   1
Atom   4H    basis set group =>   2
Atom   5C    basis set group =>   1
Atom   6H    basis set group =>   2
Atom   7C    basis set group =>   1
Atom   8H    basis set group =>   2
Atom   9C    basis set group =>   1
Atom  10H    basis set group =>   2
Atom  11O    basis set group =>   3
Atom  12O    basis set group =>   3
Atom  13O    basis set group =>   3
Atom  14O    basis set group =>   3
Atom  15O    basis set group =>   3
Atom  16O    basis set group =>   3
Atom  17H    basis set group =>   2
Atom  18H    basis set group =>   2
Atom  19H    basis set group =>   2
Atom  20H    basis set group =>   2
Atom  21H    basis set group =>   2
Atom  22H    basis set group =>   2
Atom  23H    basis set group =>   2
---------------------------------
AUXILIARY/J BASIS SET INFORMATION
---------------------------------
There are 3 groups of distinct atoms

 Group   1 Type C   : 12s5p4d2f1g contracted to 6s4p3d1f1g pattern {711111/2111/211/2/1}
 Group   2 Type H   : 5s2p1d contracted to 3s1p1d pattern {311/2/1}
 Group   3 Type O   : 12s5p4d2f1g contracted to 6s4p3d1f1g pattern {711111/2111/211/2/1}

Atom   0C    basis set group =>   1
Atom   1C    basis set group =>   1
Atom   2H    basis set group =>   2
Atom   3C    basis set group =>   1
Atom   4H    basis set group =>   2
Atom   5C    basis set group =>   1
Atom   6H    basis set group =>   2
Atom   7C    basis set group =>   1
Atom   8H    basis set group =>   2
Atom   9C    basis set group =>   1
Atom  10H    basis set group =>   2
Atom  11O    basis set group =>   3
Atom  12O    basis set group =>   3
Atom  13O    basis set group =>   3
Atom  14O    basis set group =>   3
Atom  15O    basis set group =>   3
Atom  16O    basis set group =>   3
Atom  17H    basis set group =>   2
Atom  18H    basis set group =>   2
Atom  19H    basis set group =>   2
Atom  20H    basis set group =>   2
Atom  21H    basis set group =>   2
Atom  22H    basis set group =>   2
Atom  23H    basis set group =>   2
------------------------------------------------------------------------------
                             ORCA STARTUP CALCULATIONS
                           -- RI-GTO INTEGRALS CHOSEN --
------------------------------------------------------------------------------
------------------------------------------------------------------------------
                   ___                                                        
                  /   \      - P O W E R E D   B Y -                         
                 /     \                                                     
                 |  |  |   _    _      __       _____    __    __             
                 |  |  |  | |  | |    /  \     |  _  \  |  |  /  |          
                  \  \/   | |  | |   /    \    | | | |  |  | /  /          
                 / \  \   | |__| |  /  /\  \   | |_| |  |  |/  /          
                |  |  |   |  __  | /  /__\  \  |    /   |      \           
                |  |  |   | |  | | |   __   |  |    \   |  |\   \          
                \     /   | |  | | |  |  |  |  | |\  \  |  | \   \       
                 \___/    |_|  |_| |__|  |__|  |_| \__\ |__|  \__/        
                                                                              
                      - O R C A' S   B I G   F R I E N D -                    
                                      &                                       
                       - I N T E G R A L  F E E D E R -                       
                                                                              
 v1 FN, 2020, v2 2021, v3 2022-2024                                           
------------------------------------------------------------------------------


----------------------
SHARK INTEGRAL PACKAGE
----------------------

Number of atoms                             ...     24
Number of basis functions                   ...    192
Number of shells                            ...     96
Maximum angular momentum                    ...      2
Integral batch strategy                     ... SHARK/LIBINT Hybrid
RI-J (if used) integral strategy            ... SPLIT-RIJ (Revised 2003 algorithm where possible)
Printlevel                                  ...      1
Contraction scheme used                     ... SEGMENTED contraction
Prescreening option                         ... SCHWARTZ
   Thresh                                   ... 1.000e-09
   Tcut                                     ... 1.000e-10
   Tpresel                                  ... 1.000e-10 
Coulomb Range Separation                    ... NOT USED
Exchange Range Separation                   ... NOT USED
Multipole approximations                    ... NOT USED
Finite Nucleus Model                        ... NOT USED
CABS basis                                  ... NOT available
Auxiliary Coulomb fitting basis             ... AVAILABLE
   # of basis functions in Aux-J            ...    720
   # of shells in Aux-J                     ...    240
   Maximum angular momentum in Aux-J        ...      4
Auxiliary J/K fitting basis                 ... NOT available
Auxiliary Correlation fitting basis         ... NOT available
Auxiliary 'external' fitting basis          ... NOT available

Checking pre-screening integrals            ... done (  0.0 sec) Dimension = 96
Check shell pair data                       ... done (  0.0 sec)
Shell pair information
Shell pair cut-off parameter TPreSel        ...   1.0e-10
Total number of shell pairs                 ...      4656
Shell pairs after pre-screening             ...      4281
Total number of primitive shell pairs       ...     18720
Primitive shell pairs kept                  ...     11571
          la=0 lb=0:   1656 shell pairs
          la=1 lb=0:   1359 shell pairs
          la=1 lb=1:    293 shell pairs
          la=2 lb=0:    631 shell pairs
          la=2 lb=1:    273 shell pairs
          la=2 lb=2:     69 shell pairs

Calculating one electron integrals          ... done (  0.0 sec)
Calculating RI/J V-Matrix + Cholesky decomp.... done (  0.0 sec)
Calculating Nuclear repulsion               ... done (  0.0 sec) ENN=    859.352721593366 Eh

Diagonalization of the overlap matrix:
Smallest eigenvalue                        ... 9.420e-04
Time for diagonalization                   ...    0.003 sec
Threshold for overlap eigenvalues          ... 1.000e-07
Number of eigenvalues below threshold      ... 0
Time for construction of square roots      ...    0.004 sec
Total time needed                          ...    0.008 sec

-------------------
DFT GRID GENERATION
-------------------

General Integration Accuracy     IntAcc      ... 4.159
Radial Grid Type                 RadialGrid  ... OptM3 with GC (2021)
Angular Grid (max. ang.)         AngularGrid ... 3 (Lebedev-194)
Angular grid pruning method      GridPruning ... 4 (adaptive)
Weight generation scheme         WeightScheme... mBecke (2022)
Basis function cutoff            BFCut       ... 1.0000e-10
Integration weight cutoff        WCut        ... 1.0000e-14
Partially contracted basis set               ... off
Rotationally invariant grid construction     ... off
Angular grids for H and He will be reduced by one unit

Total number of grid points                  ...    55574
Total number of batches                      ...      879
Average number of points per batch           ...       63
Average number of grid points per atom       ...     2316
Initializing property integral containers    ... done (  0.0 sec)

SHARK setup successfully completed in   0.6 seconds

Maximum memory used throughout the entire STARTUP-calculation: 28.7 MB
-------------------------------------------------------------------------------
                                 ORCA GUESS
                   Start orbitals & Density for SCF / CASSCF
-------------------------------------------------------------------------------

------------
SCF SETTINGS
------------
Hamiltonian:
 Density Functional     Method          .... DFT(GTOs)
 Exchange Functional    Exchange        .... PBE
   PBE kappa parameter   XKappa         ....  0.804000
   PBE mue parameter    XMuePBE         ....  0.219520
 Correlation Functional Correlation     .... PBE
   PBE beta parameter  CBetaPBE         ....  0.066725
 LDA part of GGA corr.  LDAOpt          .... PW91-LDA
 Gradients option       PostSCFGGA      .... off
   NL short-range parameter             ....  6.400000
 RI-approximation to the Coulomb term is turned on
   Number of AuxJ basis functions       .... 720


General Settings:
 Integral files         IntName         .... sp
 Hartree-Fock type      HFTyp           .... RHF
 Total Charge           Charge          ....    0
 Multiplicity           Mult            ....    1
 Number of Electrons    NEL             ....   96
 Basis Dimension        Dim             ....  192
 Nuclear Repulsion      ENuc            ....    859.3527215934 Eh

Convergence Acceleration:
 AO-DIIS                CNVDIIS         .... on
   Start iteration      DIISMaxIt       ....    12
   Startup error        DIISStart       ....  0.200000
   # of expansion vecs  DIISMaxEq       ....     5
   Bias factor          DIISBfac        ....   1.050
   Max. coefficient     DIISMaxC        ....  10.000
 MO-DIIS                CNVKDIIS        .... off
 Trust-Rad. Augm. Hess. CNVTRAH         .... auto
   Auto Start mean grad. ratio tolernc. ....  1.125000
   Auto Start start iteration           ....    50
   Auto Start num. interpolation iter.  ....    10
   Max. Number of Micro iterations      ....    24
   Max. Number of Macro iterations      .... Maxiter - #DIIS iter
   Number of Davidson start vectors     ....     2
   Converg. threshold    (grad. norm)   ....   1.000e-04
   Grad. Scal. Fac. for Micro threshold ....   0.100
   Minimum threshold for Micro iter.    ....   1.000e-02
   NR start threshold (gradient norm)   ....   1.000e-04
   Initial trust radius                 ....   0.400
   Minimum AH scaling param. (alpha)    ....   1.000
   Maximum AH scaling param. (alpha)    .... 1000.000
   Quad. conv. algorithm                .... NR
   White noise on init. David. guess    .... on
   Maximum white noise                  ....   0.010
   Pseudo random numbers                .... off
   Inactive MOs                         .... canonical
   Orbital update algorithm             .... Taylor
   Preconditioner                       .... Diag
   Full preconditioner red. dimension   ....   250
 SOSCF                  CNVSOSCF        .... on
   Start iteration      SOSCFMaxIt      ....   150
   Startup grad/error   SOSCFStart      ....  0.003300
   Hessian update       SOSCFHessUp     .... L-BFGS
 Level Shifting         CNVShift        .... on
   Level shift para.    LevelShift      ....    0.2500
   Turn off err/grad.   ShiftErr        ....    0.0010
 Zerner damping         CNVZerner       .... off
 Static damping         CNVDamp         .... on
   Fraction old density DampFac         ....    0.7000
   Max. Damping (<1)    DampMax         ....    0.9800
   Min. Damping (>=0)   DampMin         ....    0.0000
   Turn off err/grad.   DampErr         ....    0.1000

SCF Procedure:
 Maximum # iterations   MaxIter         ....   125
 SCF integral mode      SCFMode         .... Direct
   Integral package                     .... SHARK and LIBINT hybrid scheme
 Reset frequency        DirectResetFreq ....    20
 Integral Threshold     Thresh          ....  1.000e-09 Eh
 Primitive CutOff       TCut            ....  1.000e-10 Eh

Convergence Tolerance:
 Convergence Check Mode ConvCheckMode   .... Total+1el-Energy
 Convergence forced     ConvForced      .... 0
 Energy Change          TolE            ....  1.000e-05 Eh
 1-El. energy change                    ....  1.000e-02 Eh
 Orbital Gradient       TolG            ....  1.000e-04
 Orbital Rotation angle TolX            ....  1.000e-04
 DIIS Error             TolErr          ....  5.000e-04

------------------------------
INITIAL GUESS: MODEL POTENTIAL
------------------------------
Loading Hartree-Fock densities                     ... done
Calculating cut-offs                               ... done
Initializing the effective Hamiltonian             ... done
Setting up the integral package (SHARK)            ... done
Starting the Coulomb interaction                   ... done (   0.2 sec)
Making the grid                                    ... done (   0.2 sec)
Mapping shells                                     ... done
Starting the XC term evaluation                    ... done (   0.2 sec)
  promolecular density results
     # of electrons  =     95.989842010
     EX              =    -83.249845277
     EC              =     -3.278690530
     EX+EC           =    -86.528535807
Transforming the Hamiltonian                       ... done (   0.0 sec)
Diagonalizing the Hamiltonian                      ... done (   0.0 sec)
Back transforming the eigenvectors                 ... done (   0.0 sec)
Now organizing SCF variables                       ... done
                      ------------------
                      INITIAL GUESS DONE (   0.6 sec)
                      ------------------
             **** ENERGY FILE WAS UPDATED (sp.en.tmp) ****
Finished Guess after   0.7 sec
Maximum memory used throughout the entire GUESS-calculation: 22.6 MB

-------------------------------------------------------------------------------------------
                                      ORCA LEAN-SCF
                              memory conserving SCF solver
-------------------------------------------------------------------------------------------

----------------------------------------D-I-I-S--------------------------------------------
Iteration    Energy (Eh)           Delta-E    RMSDP     MaxDP     DIISErr   Damp  Time(sec)
-------------------------------------------------------------------------------------------
               ***  Starting incremental Fock matrix formation  ***
    1    -685.5271486756575996     0.00e+00  4.94e-03  1.49e-01  2.24e-01  0.700   0.8
    2    -685.6761401511096210    -1.49e-01  3.19e-03  9.86e-02  8.58e-02  0.700   0.9
                               ***Turning on AO-DIIS***
    3    -685.7228254126318916    -4.67e-02  1.12e-03  2.52e-02  2.07e-02  0.700   0.8
    4    -685.7540752351264928    -3.12e-02  1.45e-03  2.39e-02  9.42e-03  0.000   0.7
    5    -685.8264847746513624    -7.24e-02  4.93e-04  1.44e-02  5.15e-03  0.000   0.7
                              *** Initializing SOSCF ***
---------------------------------------S-O-S-C-F--------------------------------------
Iteration    Energy (Eh)           Delta-E    RMSDP     MaxDP     MaxGrad    Time(sec)
--------------------------------------------------------------------------------------
    6    -685.8268160375387197    -3.31e-04  1.43e-04  2.75e-03  1.10e-03     0.7
               *** Restarting incremental Fock matrix formation ***
    7    -685.8268447382426984    -2.87e-05  9.14e-05  2.06e-03  1.59e-04     0.8
    8    -685.8268466683914539    -1.93e-06  3.44e-05  5.95e-04  1.24e-04     0.7
                 **** Energy Check signals convergence ****

               *****************************************************
               *                     SUCCESS                       *
               *           SCF CONVERGED AFTER   8 CYCLES          *
               *****************************************************

             **** ENERGY FILE WAS UPDATED (sp.en.tmp) ****

----------------
TOTAL SCF ENERGY
----------------

Total Energy       :       -685.82684666839145 Eh          -18662.29727 eV

Components:
Nuclear Repulsion  :        859.35272159336637 Eh           23384.17638 eV
Electronic Energy  :      -1545.17956826175782 Eh          -42046.47365 eV
One Electron Energy:      -2647.03949368273197 Eh          -72029.60654 eV
Two Electron Energy:       1101.85992542097415 Eh           29983.13288 eV

Virial components:
Potential Energy   :      -1366.95782769351626 Eh          -37196.81354 eV
Kinetic Energy     :        681.13098102512470 Eh           18534.51627 eV
Virial Ratio       :          2.00689421825476

DFT components:
N(Alpha)           :       47.999389064039 electrons
N(Beta)            :       47.999389064039 electrons
N(Total)           :       95.998778128077 electrons
E(X)               :      -84.605748542214 Eh       
E(C)               :       -3.287259842350 Eh       
E(XC)              :      -87.893008384565 Eh       

---------------
SCF CONVERGENCE
---------------

  Last Energy change         ...    1.9301e-06  Tolerance :   1.0000e-05
  Last MAX-Density change    ...    5.9535e-04  Tolerance :   1.0000e-03
  Last RMS-Density change    ...    3.4377e-05  Tolerance :   1.0000e-04
  Last DIIS Error            ...    1.1014e-03  Tolerance :   5.0000e-04
  Last Orbital Gradient      ...    1.2447e-04  Tolerance :   1.0000e-04
  Last Orbital Rotation      ...    1.6680e-04  Tolerance :   1.0000e-04


----------------
ORBITAL ENERGIES
----------------

  NO   OCC          E(Eh)            E(eV) 
   0   2.0000     -18.789125      -511.2781 
   1   2.0000     -18.785890      -511.1901 
   2   2.0000     -18.770427      -510.7693 
   3   2.0000     -18.766436      -510.6607 
   4   2.0000     -18.746143      -510.1085 
   5   2.0000     -18.742180      -510.0006 
   6   2.0000      -9.991384      -271.8794 
   7   2.0000      -9.963770      -271.1280 
   8   2.0000      -9.960770      -271.0463 
   9   2.0000      -9.953479      -270.8479 
  10   2.0000      -9.942913      -270.5604 
  11   2.0000      -9.940964      -270.5074 
  12   2.0000      -0.998703       -27.1761 
  13   2.0000      -0.965290       -26.2669 
  14   2.0000      -0.948093       -25.7989 
  15   2.0000      -0.933179       -25.3931 
  16   2.0000      -0.922645       -25.1064 
  17   2.0000      -0.919187       -25.0123 
  18   2.0000      -0.712363       -19.3844 
  19   2.0000      -0.692719       -18.8498 
  20   2.0000      -0.632571       -17.2131 
  21   2.0000      -0.595176       -16.1956 
  22   2.0000      -0.576080       -15.6759 
  23   2.0000      -0.533355       -14.5133 
  24   2.0000      -0.514449       -13.9989 
  25   2.0000      -0.504612       -13.7312 
  26   2.0000      -0.494437       -13.4543 
  27   2.0000      -0.478410       -13.0182 
  28   2.0000      -0.458448       -12.4750 
  29   2.0000      -0.432171       -11.7600 
  30   2.0000      -0.416958       -11.3460 
  31   2.0000      -0.406303       -11.0561 
  32   2.0000      -0.397934       -10.8283 
  33   2.0000      -0.382112       -10.3978 
  34   2.0000      -0.371199       -10.1008 
  35   2.0000      -0.358257        -9.7487 
  36   2.0000      -0.339900        -9.2491 
  37   2.0000      -0.332249        -9.0409 
  38   2.0000      -0.319865        -8.7040 
  39   2.0000      -0.314638        -8.5617 
  40   2.0000      -0.286538        -7.7971 
  41   2.0000      -0.273389        -7.4393 
  42   2.0000      -0.265491        -7.2244 
  43   2.0000      -0.253331        -6.8935 
  44   2.0000      -0.246111        -6.6970 
  45   2.0000      -0.227670        -6.1952 
  46   2.0000      -0.221911        -6.0385 
  47   2.0000      -0.207761        -5.6535 
  48   0.0000      -0.006563        -0.1786 
  49   0.0000       0.018599         0.5061 
  50   0.0000       0.035617         0.9692 
  51   0.0000       0.046397         1.2625 
  52   0.0000       0.065549         1.7837 
  53   0.0000       0.069542         1.8923 
  54   0.0000       0.080279         2.1845 
  55   0.0000       0.085601         2.3293 
  56   0.0000       0.090875         2.4728 
  57   0.0000       0.102206         2.7812 
  58   0.0000       0.104175         2.8348 
*Only the first 10 virtual orbitals were printed.

                    ********************************
                    * MULLIKEN POPULATION ANALYSIS *
                    ********************************

-----------------------
MULLIKEN ATOMIC CHARGES
-----------------------
   0 C :    0.100276
   1 C :   -0.013720
   2 H :    0.053584
   3 C :   -0.018232
   4 H :    0.086885
   5 C :    0.035768
   6 H :    0.091769
   7 C :    0.059539
   8 H :    0.089810
   9 C :    0.186187
  10 H :    0.038806
  11 O :   -0.309548
  12 O :   -0.375187
  13 O :   -0.420119
  14 O :   -0.419582
  15 O :   -0.425004
  16 O :   -0.442635
  17 H :    0.065279
  18 H :    0.089376
  19 H :    0.303522
  20 H :    0.303417
  21 H :    0.316649
  22 H :    0.314384
  23 H :    0.288776
Sum of atomic charges:   -0.0000000

--------------------------------
MULLIKEN REDUCED ORBITAL CHARGES
--------------------------------
  0 C s       :     3.005225  s :     3.005225
      pz      :     0.786762  p :     2.829791
      px      :     0.981674
      py      :     1.061355
      dz2     :     0.019711  d :     0.064708
      dxz     :     0.018638
      dyz     :     0.013202
      dx2y2   :     0.007489
      dxy     :     0.005668

  1 C s       :     3.066352  s :     3.066352
      pz      :     0.997100  p :     2.880919
      px      :     0.948721
      py      :     0.935099
      dz2     :     0.015781  d :     0.066449
      dxz     :     0.011174
      dyz     :     0.009183
      dx2y2   :     0.014727
      dxy     :     0.015585

  2 H s       :     0.946416  s :     0.946416

  3 C s       :     3.095651  s :     3.095651
      pz      :     0.803469  p :     2.857324
      px      :     1.057561
      py      :     0.996293
      dz2     :     0.016500  d :     0.065258
      dxz     :     0.014283
      dyz     :     0.014428
      dx2y2   :     0.008866
      dxy     :     0.011181

  4 H s       :     0.913115  s :     0.913115

  5 C s       :     3.057558  s :     3.057558
      pz      :     0.774606  p :     2.839065
      px      :     0.972323
      py      :     1.092137
      dz2     :     0.019667  d :     0.067609
      dxz     :     0.019373
      dyz     :     0.009830
      dx2y2   :     0.010628
      dxy     :     0.008110

  6 H s       :     0.908231  s :     0.908231

  7 C s       :     3.062007  s :     3.062007
      pz      :     0.924628  p :     2.810790
      px      :     0.953370
      py      :     0.932793
      dz2     :     0.013777  d :     0.067663
      dxz     :     0.017763
      dyz     :     0.011619
      dx2y2   :     0.011995
      dxy     :     0.012509

  8 H s       :     0.910190  s :     0.910190

  9 C s       :     3.041818  s :     3.041818
      pz      :     0.973750  p :     2.672488
      px      :     0.727917
      py      :     0.970821
      dz2     :     0.024249  d :     0.099507
      dxz     :     0.017329
      dyz     :     0.011764
      dx2y2   :     0.023494
      dxy     :     0.022671

 10 H s       :     0.961194  s :     0.961194

 11 O s       :     3.769243  s :     3.769243
      pz      :     1.653227  p :     4.524982
      px      :     1.208714
      py      :     1.663040
      dz2     :     0.002241  d :     0.015323
      dxz     :     0.003851
      dyz     :     0.002681
      dx2y2   :     0.003118
      dxy     :     0.003432

 12 O s       :     3.763532  s :     3.763532
      pz      :     1.730471  p :     4.595775
      px      :     1.650670
      py      :     1.214635
      dz2     :     0.003119  d :     0.015880
      dxz     :     0.002977
      dyz     :     0.001586
      dx2y2   :     0.002911
      dxy     :     0.005285

 13 O s       :     3.777902  s :     3.777902
      pz      :     1.315075  p :     4.626365
      px      :     1.558676
      py      :     1.752615
      dz2     :     0.001385  d :     0.015852
      dxz     :     0.007496
      dyz     :     0.001450
      dx2y2   :     0.002756
      dxy     :     0.002765

 14 O s       :     3.788303  s :     3.788303
      pz      :     1.437437  p :     4.615576
      px      :     1.797916
      py      :     1.380223
      dz2     :     0.005442  d :     0.015703
      dxz     :     0.002577
      dyz     :     0.001569
      dx2y2   :     0.005313
      dxy     :     0.000803

 15 O s       :     3.781501  s :     3.781501
      pz      :     1.254400  p :     4.628689
      px      :     1.513560
      py      :     1.860730
      dz2     :     0.001488  d :     0.014813
      dxz     :     0.007332
      dyz     :     0.001511
      dx2y2   :     0.003145
      dxy     :     0.001337

 16 O s       :     3.777651  s :     3.777651
      pz      :     1.360371  p :     4.649398
      px      :     1.753296
      py      :     1.535731
      dz2     :     0.005754  d :     0.015586
      dxz     :     0.002307
      dyz     :     0.001826
      dx2y2   :     0.001372
      dxy     :     0.004328

 17 H s       :     0.934721  s :     0.934721

 18 H s       :     0.910624  s :     0.910624

 19 H s       :     0.696478  s :     0.696478

 20 H s       :     0.696583  s :     0.696583

 21 H s       :     0.683351  s :     0.683351

 22 H s       :     0.685616  s :     0.685616

 23 H s       :     0.711224  s :     0.711224


------------------------
MULLIKEN OVERLAP CHARGES
------------------------
B(  0-C ,  1-C ) :   0.5061 B(  0-C , 11-O ) :  -0.0810 B(  0-C , 16-O ) :   0.7641 
B(  0-C , 17-H ) :   0.6874 B(  0-C , 18-H ) :   0.6781 B(  0-C , 23-H ) :  -0.1114 
B(  1-C ,  2-H ) :   0.5913 B(  1-C ,  3-C ) :   0.2082 B(  1-C ,  4-H ) :  -0.1542 
B(  1-C ,  7-C ) :  -0.1121 B(  1-C , 11-O ) :   0.5339 B(  1-C , 14-O ) :   0.0533 
B(  1-C , 15-O ) :  -0.0863 B(  1-C , 16-O ) :  -0.0810 B(  1-C , 17-H ) :  -0.0566 
B(  2-H ,  3-C ) :  -0.1231 B(  2-H , 11-O ) :  -0.0595 B(  3-C ,  4-H ) :   0.6987 
B(  3-C ,  5-C ) :   0.1634 B(  3-C ,  6-H ) :  -0.0936 B(  3-C ,  7-C ) :   0.0989 
B(  3-C ,  9-C ) :  -0.1262 B(  3-C , 11-O ) :  -0.1533 B(  3-C , 14-O ) :  -0.1238 
B(  3-C , 15-O ) :   0.4934 B(  3-C , 22-H ) :  -0.0574 B(  5-C ,  6-H ) :   0.6873 
B(  5-C ,  7-C ) :   0.3521 B(  5-C ,  8-H ) :  -0.0516 B(  5-C , 11-O ) :   0.0933 
B(  5-C , 13-O ) :  -0.0533 B(  5-C , 14-O ) :   0.5157 B(  5-C , 15-O ) :  -0.1002 
B(  5-C , 21-H ) :  -0.1045 B(  6-H ,  7-C ) :  -0.0657 B(  7-C ,  8-H ) :   0.6152 
B(  7-C ,  9-C ) :   0.1168 B(  7-C , 10-H ) :  -0.1413 B(  7-C , 11-O ) :  -0.1345 
B(  7-C , 12-O ) :  -0.0946 B(  7-C , 13-O ) :   0.5721 B(  7-C , 20-H ) :  -0.0973 
B(  8-H ,  9-C ) :  -0.0735 B(  9-C , 10-H ) :   0.6777 B(  9-C , 11-O ) :   0.5404 
B(  9-C , 12-O ) :   0.6982 B(  9-C , 13-O ) :  -0.0778 B(  9-C , 19-H ) :  -0.0529 
B( 10-H , 11-O ) :  -0.0883 B( 10-H , 12-O ) :  -0.0602 B( 11-O , 12-O ) :  -0.1181 
B( 11-O , 21-H ) :   0.0505 B( 12-O , 19-H ) :   0.5105 B( 13-O , 20-H ) :   0.5579 
B( 14-O , 21-H ) :   0.5234 B( 14-O , 23-H ) :   0.1145 B( 15-O , 20-H ) :   0.0949 
B( 15-O , 22-H ) :   0.5196 B( 16-O , 17-H ) :  -0.0757 B( 16-O , 18-H ) :  -0.0711 
B( 16-O , 23-H ) :   0.5090 B( 17-H , 18-H ) :  -0.0923 


                     *******************************
                     * LOEWDIN POPULATION ANALYSIS *
                     *******************************

----------------------
LOEWDIN ATOMIC CHARGES
----------------------
   0 C :   -0.119186
   1 C :   -0.086373
   2 H :    0.104523
   3 C :   -0.084730
   4 H :    0.109424
   5 C :   -0.072360
   6 H :    0.123514
   7 C :   -0.084215
   8 H :    0.126782
   9 C :   -0.000067
  10 H :    0.081305
  11 O :   -0.157581
  12 O :   -0.288925
  13 O :   -0.309984
  14 O :   -0.298147
  15 O :   -0.313237
  16 O :   -0.336375
  17 H :    0.092514
  18 H :    0.116163
  19 H :    0.287903
  20 H :    0.272106
  21 H :    0.278777
  22 H :    0.293863
  23 H :    0.264304

-------------------------------
LOEWDIN REDUCED ORBITAL CHARGES
-------------------------------
  0 C s       :     2.915274  s :     2.915274
      pz      :     0.888074  p :     3.056035
      px      :     1.060418
      py      :     1.107543
      dz2     :     0.044506  d :     0.147878
      dxz     :     0.043646
      dyz     :     0.026672
      dx2y2   :     0.019866
      dxy     :     0.013188

  1 C s       :     2.907530  s :     2.907530
      pz      :     1.041851  p :     3.024204
      px      :     0.981851
      py      :     1.000502
      dz2     :     0.037678  d :     0.154639
      dxz     :     0.026645
      dyz     :     0.020013
      dx2y2   :     0.037357
      dxy     :     0.032945

  2 H s       :     0.895477  s :     0.895477

  3 C s       :     2.904581  s :     2.904581
      pz      :     0.897420  p :     3.026435
      px      :     1.074973
      py      :     1.054042
      dz2     :     0.037355  d :     0.153714
      dxz     :     0.036447
      dyz     :     0.030126
      dx2y2   :     0.023631
      dxy     :     0.026155

  4 H s       :     0.890576  s :     0.890576

  5 C s       :     2.893574  s :     2.893574
      pz      :     0.886844  p :     3.020896
      px      :     1.039496
      py      :     1.094555
      dz2     :     0.045440  d :     0.157890
      dxz     :     0.049164
      dyz     :     0.019102
      dx2y2   :     0.023965
      dxy     :     0.020219

  6 H s       :     0.876486  s :     0.876486

  7 C s       :     2.897990  s :     2.897990
      pz      :     0.986512  p :     3.027689
      px      :     1.019300
      py      :     1.021877
      dz2     :     0.030686  d :     0.158537
      dxz     :     0.042183
      dyz     :     0.024569
      dx2y2   :     0.027963
      dxy     :     0.033134

  8 H s       :     0.873218  s :     0.873218

  9 C s       :     2.900042  s :     2.900042
      pz      :     1.044541  p :     2.878356
      px      :     0.827482
      py      :     1.006332
      dz2     :     0.058501  d :     0.221669
      dxz     :     0.037144
      dyz     :     0.024419
      dx2y2   :     0.052978
      dxy     :     0.048627

 10 H s       :     0.918695  s :     0.918695

 11 O s       :     3.479691  s :     3.479691
      pz      :     1.692513  p :     4.647920
      px      :     1.274548
      py      :     1.680858
      dz2     :     0.003788  d :     0.029971
      dxz     :     0.007630
      dyz     :     0.004028
      dx2y2   :     0.007230
      dxy     :     0.007295

 12 O s       :     3.527282  s :     3.527282
      pz      :     1.763650  p :     4.733514
      px      :     1.683450
      py      :     1.286415
      dz2     :     0.004860  d :     0.028129
      dxz     :     0.004457
      dyz     :     0.003648
      dx2y2   :     0.005339
      dxy     :     0.009825

 13 O s       :     3.522571  s :     3.522571
      pz      :     1.382735  p :     4.759738
      px      :     1.614869
      py      :     1.762134
      dz2     :     0.002963  d :     0.027675
      dxz     :     0.013623
      dyz     :     0.003316
      dx2y2   :     0.003552
      dxy     :     0.004222

 14 O s       :     3.526495  s :     3.526495
      pz      :     1.497772  p :     4.744324
      px      :     1.801624
      py      :     1.444928
      dz2     :     0.010083  d :     0.027329
      dxz     :     0.004423
      dyz     :     0.002990
      dx2y2   :     0.008724
      dxy     :     0.001108

 15 O s       :     3.526568  s :     3.526568
      pz      :     1.323942  p :     4.760261
      px      :     1.577112
      py      :     1.859207
      dz2     :     0.004008  d :     0.026408
      dxz     :     0.013285
      dyz     :     0.003160
      dx2y2   :     0.004331
      dxy     :     0.001623

 16 O s       :     3.527339  s :     3.527339
      pz      :     1.432142  p :     4.781938
      px      :     1.768977
      py      :     1.580819
      dz2     :     0.011268  d :     0.027097
      dxz     :     0.003662
      dyz     :     0.003424
      dx2y2   :     0.001922
      dxy     :     0.006821

 17 H s       :     0.907486  s :     0.907486

 18 H s       :     0.883837  s :     0.883837

 19 H s       :     0.712097  s :     0.712097

 20 H s       :     0.727894  s :     0.727894

 21 H s       :     0.721223  s :     0.721223

 22 H s       :     0.706137  s :     0.706137

 23 H s       :     0.735696  s :     0.735696


---------------------------------
LOEWDIN BOND ORDERS (THRESH 0.050000)
---------------------------------
B(  0-C ,  1-C ) :   1.0695 B(  0-C ,  3-C ) :   0.0586 B(  0-C , 11-O ) :   0.0548 
B(  0-C , 16-O ) :   1.2652 B(  0-C , 17-H ) :   0.8989 B(  0-C , 18-H ) :   0.9072 
B(  1-C ,  2-H ) :   0.8621 B(  1-C ,  3-C ) :   1.0089 B(  1-C ,  5-C ) :   0.0518 
B(  1-C ,  9-C ) :   0.0681 B(  1-C , 11-O ) :   1.1331 B(  1-C , 15-O ) :   0.0754 
B(  1-C , 16-O ) :   0.0729 B(  3-C ,  4-H ) :   0.8713 B(  3-C ,  5-C ) :   1.0121 
B(  3-C ,  7-C ) :   0.0538 B(  3-C , 11-O ) :   0.0582 B(  3-C , 14-O ) :   0.0810 
B(  3-C , 15-O ) :   1.1937 B(  5-C ,  6-H ) :   0.8738 B(  5-C ,  7-C ) :   1.0191 
B(  5-C ,  9-C ) :   0.0561 B(  5-C , 13-O ) :   0.0816 B(  5-C , 14-O ) :   1.2209 
B(  5-C , 15-O ) :   0.0581 B(  7-C ,  8-H ) :   0.8685 B(  7-C ,  9-C ) :   1.0012 
B(  7-C , 11-O ) :   0.0584 B(  7-C , 12-O ) :   0.0635 B(  7-C , 13-O ) :   1.2523 
B(  7-C , 14-O ) :   0.0688 B(  9-C , 10-H ) :   0.8701 B(  9-C , 11-O ) :   1.1363 
B(  9-C , 12-O ) :   1.3034 B(  9-C , 13-O ) :   0.0832 B( 11-O , 12-O ) :   0.0812 
B( 12-O , 19-H ) :   0.8714 B( 13-O , 20-H ) :   0.8579 B( 14-O , 21-H ) :   0.8540 
B( 14-O , 23-H ) :   0.0792 B( 15-O , 20-H ) :   0.0766 B( 15-O , 22-H ) :   0.8763 
B( 16-O , 23-H ) :   0.8509 

------------------------------------------
LOEWDIN REDUCED ORBITAL POPULATIONS PER MO
-------------------------------------------
THRESHOLD FOR PRINTING IS 0.1%%
                      0         1         2         3         4         5   
                 -18.78913 -18.78589 -18.77043 -18.76644 -18.74614 -18.74218
                   2.00000   2.00000   2.00000   2.00000   2.00000   2.00000
                  --------  --------  --------  --------  --------  --------
11 O  s               0.0      99.9       0.0       0.0       0.0       0.0
12 O  s               0.0       0.0       0.0      99.9       0.0       0.0
13 O  s               0.0       0.0       0.0       0.0       0.0      99.9
14 O  s               0.0       0.0      99.9       0.0       0.0       0.0
15 O  s              99.9       0.0       0.0       0.0       0.0       0.0
16 O  s               0.0       0.0       0.0       0.0      99.9       0.0

                      6         7         8         9        10        11   
                  -9.99138  -9.96377  -9.96077  -9.95348  -9.94291  -9.94096
                   2.00000   2.00000   2.00000   2.00000   2.00000   2.00000
                  --------  --------  --------  --------  --------  --------
 0 C  s               0.0       0.0       0.0       0.0      99.6       0.0
 1 C  s               0.0       0.0      99.6       0.0       0.0       0.0
 3 C  s               0.0      99.6       0.0       0.0       0.0       0.0
 5 C  s               0.0       0.0       0.0      99.6       0.0       0.0
 7 C  s               0.0       0.0       0.0       0.0       0.0      99.6
 9 C  s              99.6       0.0       0.0       0.0       0.0       0.0
14 O  pz              0.0       0.0       0.0       0.1       0.0       0.0
16 O  pz              0.0       0.0       0.0       0.0       0.1       0.0

                     12        13        14        15        16        17   
                  -0.99870  -0.96529  -0.94809  -0.93318  -0.92264  -0.91919
                   2.00000   2.00000   2.00000   2.00000   2.00000   2.00000
                  --------  --------  --------  --------  --------  --------
 0 C  s               0.7       0.0       0.4       5.3       1.6       3.7
 0 C  pz              0.0       0.0       0.4       2.3       1.2       4.6
 0 C  px              0.6       0.0       0.0       0.3       0.0       0.3
 0 C  py              0.0       0.0       0.0       0.2       0.1       0.4
 0 C  dz2             0.0       0.0       0.0       0.2       0.1       0.4
 1 C  s               5.5       0.2       0.0       3.6       0.1       1.1
 1 C  pz              1.1       0.1       0.2       1.0       0.1       0.1
 1 C  px              2.4       0.0       0.0       0.1       0.2       2.6
 1 C  py              0.6       1.5       0.0       0.6       0.0       0.7
 1 C  dxz             0.1       0.0       0.0       0.0       0.0       0.1
 1 C  dxy             0.1       0.0       0.0       0.1       0.0       0.1
 2 H  s               0.7       0.1       0.0       0.4       0.0       0.1
 3 C  s               1.9       8.7       0.2       0.0       0.2       0.0
 3 C  pz              0.0       4.8       3.8       0.0       0.1       0.1
 3 C  px              0.2       0.9       0.0       0.2       0.0       0.0
 3 C  py              0.4       0.7       0.1       0.5       0.1       0.2
 3 C  dz2             0.0       0.4       0.0       0.0       0.0       0.0
 3 C  dxz             0.0       0.1       0.1       0.0       0.0       0.0
 3 C  dyz             0.0       0.1       0.0       0.0       0.0       0.0
 4 H  s               0.2       1.1       0.0       0.0       0.0       0.0
 5 C  s               1.6       2.1       6.5       1.4       0.1       0.0
 5 C  pz              0.0       0.1       6.8       0.5       1.3       0.1
 5 C  px              0.1       0.4       0.5       0.1       1.4       0.0
 5 C  py              0.6       0.0       0.6       0.1       0.0       0.1
 5 C  dz2             0.0       0.0       0.3       0.0       0.1       0.0
 5 C  dxz             0.0       0.0       0.2       0.0       0.0       0.0
 5 C  dyz             0.0       0.0       0.1       0.0       0.0       0.0
 6 H  s               0.2       0.3       0.7       0.2       0.0       0.0
 7 C  s               2.0       0.2       0.3       3.1       6.7       0.2
 7 C  pz              0.1       0.0       0.2       0.6       5.1       0.2
 7 C  px              0.4       0.1       0.4       0.2       2.0       0.0
 7 C  py              0.6       0.7       0.5       0.2       1.4       0.1
 7 C  dz2             0.0       0.0       0.0       0.0       0.1       0.0
 7 C  dxz             0.0       0.0       0.0       0.1       0.3       0.0
 7 C  dyz             0.0       0.0       0.0       0.0       0.2       0.0
 8 H  s               0.4       0.0       0.1       0.6       0.7       0.0
 9 C  s              13.2       1.6       0.7       0.7       0.0       0.1
 9 C  pz              1.6       0.4       0.1       0.3       0.1       0.4
 9 C  px              1.5       0.0       0.2       4.9       0.0       5.8
 9 C  py              0.9       1.0       0.9       0.3       1.5       1.7
 9 C  dz2             0.1       0.0       0.0       0.0       0.0       0.0
 9 C  dxz             0.0       0.0       0.0       0.1       0.0       0.2
 9 C  dyz             0.1       0.0       0.0       0.1       0.0       0.1
 9 C  dx2y2           0.2       0.0       0.0       0.2       0.0       0.2
 9 C  dxy             0.0       0.0       0.0       0.1       0.0       0.2
10 H  s               1.5       0.1       0.1       0.1       0.0       0.0
11 O  s              30.2       1.5       0.0       9.2       0.0      13.4
11 O  pz              0.7       0.0       0.0       0.3       0.0       0.4
11 O  px              0.6       0.2       0.1       0.4       0.0       0.1
11 O  py              0.7       0.0       0.0       0.4       0.0       0.5
12 O  s              14.2       5.8       5.3      13.3       1.8      18.4
12 O  pz              0.5       0.1       0.1       0.2       0.0       0.2
12 O  px              1.2       0.3       0.2       0.4       0.1       0.4
12 O  py              0.1       0.0       0.0       0.0       0.0       0.1
13 O  s               0.8       0.8       0.1      10.0      43.8       1.4
13 O  px              0.1       0.1       0.0       0.6       2.5       0.1
14 O  s               2.4       3.1      42.6       5.2       4.4       0.3
14 O  pz              0.2       0.2       1.5       0.2       0.1       0.0
14 O  px              0.0       0.0       0.2       0.0       0.0       0.0
14 O  py              0.1       0.0       0.9       0.1       0.1       0.0
15 O  s               2.3      46.7       8.4       0.0       1.4       0.6
15 O  pz              0.1       0.2       0.0       0.0       0.0       0.0
15 O  px              0.1       2.0       0.4       0.0       0.1       0.0
15 O  py              0.0       0.2       0.0       0.0       0.0       0.0
16 O  s               0.5       0.1       2.4      19.1       8.2      27.8
16 O  pz              0.0       0.0       0.1       0.8       0.3       0.8
16 O  px              0.0       0.0       0.1       0.3       0.1       0.4
16 O  py              0.0       0.0       0.0       0.2       0.1       0.4
17 H  s               0.1       0.0       0.0       0.6       0.2       0.4
18 H  s               0.1       0.0       0.0       0.7       0.2       0.4
19 H  s               3.0       1.2       1.1       2.5       0.4       3.6
20 H  s               0.3       0.8       0.0       2.1       8.4       0.2
21 H  s               1.0       0.6       8.5       0.7       0.7       0.0
22 H  s               0.5       9.4       1.7       0.0       0.4       0.1
23 H  s               0.2       0.1       1.2       3.5       1.4       5.7

                     18        19        20        21        22        23   
                  -0.71236  -0.69272  -0.63257  -0.59518  -0.57608  -0.53335
                   2.00000   2.00000   2.00000   2.00000   2.00000   2.00000
                  --------  --------  --------  --------  --------  --------
 0 C  s               4.5       3.4      11.8       2.0       8.4       0.8
 0 C  pz              2.2       1.2       1.7       0.1       0.1       0.5
 0 C  px              1.5       1.0       0.0       0.3       3.7       1.1
 0 C  py              0.1       0.1       0.2       1.1       0.2       0.5
 1 C  s              14.1       5.8       1.5       1.0       3.7       2.0
 1 C  pz              0.0       0.1       0.1       1.6       0.1       1.3
 1 C  px              1.0       1.4       5.0       0.3       2.5       0.0
 1 C  py              3.0       1.2       0.7       5.6       0.3       0.0
 1 C  dxy             0.1       0.0       0.0       0.0       0.0       0.0
 2 H  s               2.6       1.3       0.9       0.6       1.2       2.1
 3 C  s              15.3       1.0       4.2       4.9       0.7       0.8
 3 C  pz              2.1       0.9       0.9       0.5       0.2       2.1
 3 C  px              0.0       2.5       0.6       2.8       0.0       1.5
 3 C  py              1.9       0.9       0.9       1.4       3.1       0.8
 3 C  dz2             0.1       0.0       0.0       0.0       0.0       0.0
 3 C  dxz             0.0       0.0       0.0       0.1       0.0       0.1
 4 H  s               3.3       0.1       1.1       1.8       0.8       0.0
 5 C  s               6.0       8.6       1.4       9.2       0.3       1.9
 5 C  pz              2.8       2.0       0.8       0.3       0.0       4.7
 5 C  px              0.8       1.1       3.2       3.3       2.2       0.9
 5 C  py              0.0       0.3       1.2       1.2       1.5       2.4
 6 H  s               1.2       1.7       0.7       4.5       0.4       1.5
 7 C  s               0.5      11.1       7.0       0.9       5.3       1.7
 7 C  pz              0.1       0.8       0.4       1.7       0.8       0.2
 7 C  px              0.7       3.3       0.2       0.4       0.7       0.0
 7 C  py              0.5       0.7       3.3       5.8       0.1       0.3
 7 C  dz2             0.0       0.1       0.0       0.0       0.0       0.0
 7 C  dxy             0.1       0.0       0.0       0.1       0.0       0.0
 8 H  s               0.1       2.1       2.6       0.4       2.8       0.9
 9 C  s               1.0       7.3       4.7       5.2       2.4       2.0
 9 C  pz              0.0       0.0       0.0       0.8       0.2       2.0
 9 C  px              1.3       0.1       2.0       0.3       2.1       0.6
 9 C  py              0.3       3.7       2.6       0.1       2.3       0.8
 9 C  dx2y2           0.1       0.0       0.1       0.0       0.1       0.0
10 H  s               0.1       1.1       1.1       2.3       0.7       2.3
11 O  s               3.3       0.3       1.5       1.8       0.1       0.8
11 O  pz              0.2       0.1       0.0       0.2       0.3       2.0
11 O  px              3.8       6.5       0.0       2.6      11.4       0.0
11 O  py              0.7       0.0       0.1       0.2       2.0       0.0
12 O  s               0.9       1.9       0.6       0.6       1.0       0.1
12 O  pz              0.0       0.2       0.3       0.8       0.4       1.5
12 O  px              0.1       0.1       0.0       0.1       1.1       0.0
12 O  py              0.2       3.1       5.0       4.9       1.0       3.5
13 O  s               0.4       4.4       1.1       0.2       0.5       0.2
13 O  pz              0.1       2.0       2.3       0.8       5.0       2.6
13 O  px              0.0       0.1       0.0       0.0       0.0       0.0
13 O  py              0.0       0.5       1.1       0.1       1.0       0.2
14 O  s               2.0       3.0       0.2       0.8       0.1       0.0
14 O  pz              1.0       1.3       0.5       3.6       0.4       6.6
14 O  px              0.0       0.2       0.1       1.5       0.0       0.2
14 O  py              0.7       0.8       0.5       4.2       1.0      12.7
14 O  dz2             0.0       0.0       0.0       0.1       0.0       0.1
15 O  s               3.7       0.2       0.4       0.9       0.0       0.0
15 O  pz              4.4       1.0       3.9       3.2       2.1      13.5
15 O  px              0.2       0.1       0.4       0.1       0.3       1.4
15 O  py              0.4       0.0       0.0       0.8       0.0       0.3
15 O  dxz             0.1       0.0       0.0       0.1       0.0       0.1
16 O  s               1.9       1.3       1.6       0.1       0.7       0.1
16 O  pz              0.6       0.5       3.1       1.3       5.4       1.5
16 O  px              0.0       0.0       0.3       0.3       1.4       0.3
16 O  py              0.2       0.2       1.5       1.3       3.0       1.6
16 O  dz2             0.0       0.0       0.1       0.0       0.1       0.0
17 H  s               1.1       0.7       3.4       0.3       3.9       0.2
18 H  s               0.8       0.9       3.6       1.3       3.6       0.8
19 H  s               0.3       1.5       1.8       1.9       0.5       1.3
20 H  s               0.2       1.7       1.3       0.1       1.9       0.6
21 H  s               1.1       1.2       0.3       2.4       0.3       5.7
22 H  s               2.4       0.4       1.4       1.1       0.7       4.1
23 H  s               0.7       0.4       1.8       1.2       2.9       0.9

                     24        25        26        27        28        29   
                  -0.51445  -0.50461  -0.49444  -0.47841  -0.45845  -0.43217
                   2.00000   2.00000   2.00000   2.00000   2.00000   2.00000
                  --------  --------  --------  --------  --------  --------
 0 C  s               0.0       0.1       0.0       0.1       0.8       0.6
 0 C  pz              0.1       0.8       0.3       6.9       7.2       4.2
 0 C  px              0.0       1.1       0.1       0.4       1.1       0.1
 0 C  py              1.4       1.4       0.2       0.6       0.1       0.8
 0 C  dz2             0.0       0.0       0.0       0.1       0.3       0.2
 1 C  s               0.8       0.1       0.0       0.8       0.4       0.4
 1 C  pz              3.4       5.4       4.9       4.1       3.4       2.1
 1 C  px              1.4       0.2       0.1       4.7       4.5       0.7
 1 C  py              2.9       4.2       2.4       0.1       2.6       0.0
 1 C  dyz             0.0       0.2       0.0       0.0       0.0       0.0
 1 C  dx2y2           0.0       0.0       0.0       0.0       0.1       0.1
 2 H  s               2.8       1.4       2.1       2.8       1.1       1.8
 3 C  s               2.4       0.0       0.1       0.5       0.2       0.3
 3 C  pz              2.8       0.1       4.0       2.6       4.2       0.9
 3 C  px             13.4       1.1       0.2       0.1       0.2       0.2
 3 C  py              1.6       3.6       3.2       0.1       5.3       0.1
 3 C  dz2             0.0       0.0       0.0       0.0       0.0       0.1
 3 C  dxz             0.0       0.0       0.1       0.0       0.0       0.2
 3 C  dyz             0.0       0.0       0.0       0.0       0.0       0.1
 3 C  dx2y2           0.0       0.0       0.0       0.0       0.1       0.0
 4 H  s               9.3       0.0       0.2       0.8       0.8       0.2
 5 C  s               0.2       0.0       0.2       0.3       0.5       1.4
 5 C  pz              0.5       0.0       1.5       0.0       5.9       5.4
 5 C  px              1.2       1.1       0.1       5.1       0.0       2.7
 5 C  py              0.1       1.5       7.2       0.3       0.8       2.0
 5 C  dz2             0.0       0.0       0.1       0.0       0.2       0.3
 6 H  s               0.1       0.2       1.0       0.9       1.0       3.7
 7 C  s               0.4       0.4       0.2       0.0       0.0       0.2
 7 C  pz              0.9       0.0       0.5       4.9       2.4       0.1
 7 C  px              5.9       1.4       9.4       0.4       1.2       0.2
 7 C  py              0.1       1.1       1.2       1.7       0.1       8.6
 7 C  dxy             0.1       0.0       0.0       0.1       0.0       0.1
 8 H  s               1.6       0.1       0.7       0.6       1.1       0.2
 9 C  s               0.7       0.0       0.1       0.6       0.7       0.0
 9 C  pz              6.3       1.6       4.4      12.0       5.0       0.1
 9 C  px              0.1      11.9       0.1       0.6       0.1       0.1
 9 C  py              0.3       0.4       2.4       1.6       0.1       7.8
 9 C  dxz             0.0       0.3       0.0       0.0       0.0       0.0
 9 C  dxy             0.0       0.2       0.1       0.0       0.0       0.1
10 H  s               3.5       0.3       1.7       5.1       3.1       0.1
11 O  s               2.1       0.7       0.2       0.2       0.0       0.1
11 O  pz              4.6       0.6       3.1       1.6       0.0       0.7
11 O  px              0.9      15.0       0.0       3.0       0.7       0.0
11 O  py              0.5       0.0       4.4       2.2       0.6       1.0
12 O  s               0.0       0.4       0.3       0.0       0.2       0.1
12 O  pz              0.4       1.1       0.6       0.3       0.9       2.3
12 O  px              0.2       0.6       0.1       1.3       0.0       0.9
12 O  py              0.5      23.8       0.7       4.9       1.3       3.3
12 O  dxy             0.0       0.1       0.0       0.1       0.0       0.0
13 O  s               0.7       0.0       0.0       0.0       0.7       0.0
13 O  pz              4.8       0.3      13.5       1.5       0.1       1.0
13 O  px              1.3       0.1       0.8       0.0       1.1       0.1
13 O  py              0.5       0.0       2.5       3.1       0.2       1.3
13 O  dxz             0.0       0.0       0.1       0.0       0.0       0.0
14 O  s               0.1       0.0       1.5       0.1       0.1       0.2
14 O  pz              0.2       0.0       0.3       0.3       2.4       5.9
14 O  px              0.2       0.1       0.0       0.5       2.6       0.0
14 O  py              0.1       0.3       4.2       0.2       4.4       9.1
15 O  s               0.8       0.4       0.0       0.1       0.2       1.2
15 O  pz              2.5       4.0       9.4       1.6       1.1       3.8
15 O  px              7.5       1.3       0.1       0.9       0.5       2.7
15 O  py              1.2       0.3       0.2       0.3       3.9       0.1
16 O  s               0.4       0.0       0.2       0.0       1.1       0.4
16 O  pz              0.0       0.0       0.5       4.6       3.5       1.2
16 O  px              0.1       0.1       0.0       1.0       3.6       0.7
16 O  py              0.3       0.4       0.1       5.7       7.2       5.4
17 H  s               0.2       1.1       0.0       0.8       1.2       2.5
18 H  s               0.2       0.1       0.1       0.0       0.3       0.0
19 H  s               0.1       7.0       0.1       1.3       0.3       1.2
20 H  s               2.1       0.1       4.8       1.1       0.0       0.2
21 H  s               0.1       0.0       0.6       0.2       2.0       3.8
22 H  s               2.2       1.2       2.0       0.8       0.3       2.0
23 H  s               0.1       0.0       0.1       2.8       4.5       1.8

                     30        31        32        33        34        35   
                  -0.41696  -0.40630  -0.39793  -0.38211  -0.37120  -0.35826
                   2.00000   2.00000   2.00000   2.00000   2.00000   2.00000
                  --------  --------  --------  --------  --------  --------
 0 C  s               0.2       0.1       0.0       0.1       0.1       0.4
 0 C  pz              0.2       1.8       0.9       1.3       0.7       0.6
 0 C  px              0.2       6.7      19.7       3.9       0.5       0.1
 0 C  py              1.2      15.1      14.3       0.3       1.5       8.1
 0 C  dz2             0.0       0.0       0.0       0.1       0.1       0.2
 0 C  dx2y2           0.0       0.1       0.0       0.0       0.0       0.1
 0 C  dxy             0.0       0.0       0.3       0.0       0.0       0.1
 1 C  s               0.1       0.1       0.3       0.6       0.3       0.0
 1 C  pz              0.4       7.9       0.3       0.4       1.2       4.8
 1 C  px              0.1       1.7       6.6       1.0       0.1       1.2
 1 C  py              2.8       3.1       0.2       0.0       0.7       5.0
 1 C  dz2             0.0       0.0       0.0       0.1       0.0       0.2
 1 C  dxz             0.0       0.1       0.2       0.0       0.0       0.0
 1 C  dyz             0.0       0.1       0.0       0.0       0.2       0.0
 1 C  dxy             0.1       0.0       0.4       0.0       0.0       0.1
 2 H  s               0.2       4.1       0.1       0.8       2.1       5.3
 3 C  s               0.2       0.3       0.0       0.3       0.1       0.2
 3 C  pz              1.2       2.3       0.0       0.0       6.6       0.1
 3 C  px             10.1       1.0       0.0       0.1       0.5       0.1
 3 C  py              9.2       1.3       0.1       0.2       1.1       4.2
 3 C  dxz             0.0       0.2       0.0       0.0       0.0       0.0
 3 C  dxy             0.2       0.1       0.0       0.1       0.0       0.0
 4 H  s               8.6       0.3       0.3       0.0       0.4       0.7
 5 C  s               0.1       0.1       0.0       0.2       0.1       0.2
 5 C  pz              1.1       1.5       0.2       0.6       0.3       0.3
 5 C  px              3.9       6.0       0.6       0.1       3.6       0.5
 5 C  py              0.0       0.2       2.4      13.6       0.0       5.7
 5 C  dxz             0.0       0.0       0.0       0.0       0.2       0.1
 5 C  dyz             0.0       0.0       0.0       0.1       0.0       0.0
 5 C  dx2y2           0.0       0.0       0.0       0.1       0.1       0.0
 5 C  dxy             0.2       0.0       0.0       0.0       0.0       0.1
 6 H  s               0.1       0.4       1.6       5.9       0.2       3.9
 7 C  s               1.0       0.0       0.1       0.0       0.2       0.3
 7 C  pz              5.7       0.6       0.1       4.8       9.2       5.4
 7 C  px              1.8       0.0       0.1       0.2       6.1       2.9
 7 C  py              2.0       1.4       0.0       3.2       0.9       0.1
 7 C  dxz             0.2       0.0       0.0       0.0       0.3       0.2
 7 C  dyz             0.1       0.0       0.0       0.0       0.0       0.0
 7 C  dx2y2           0.1       0.0       0.0       0.2       0.1       0.0
 8 H  s               2.1       0.1       0.1       1.2       9.9       4.2
 9 C  s               0.3       0.3       0.2       0.1       0.0       0.2
 9 C  pz              0.9       3.0       0.1       3.3       0.0       0.7
 9 C  px              0.1       0.1       0.4       0.6       0.6       0.5
 9 C  py              2.7       1.8       0.2       8.1       0.2       0.1
 9 C  dxz             0.0       0.0       0.1       0.0       0.0       0.0
 9 C  dyz             0.2       0.0       0.0       0.0       0.1       0.0
 9 C  dx2y2           0.0       0.0       0.1       0.0       0.0       0.1
10 H  s               0.8       2.5       0.0       2.0       0.1       0.7
11 O  s               0.0       0.1       0.2       0.1       0.5       0.6
11 O  pz              0.8       0.8       3.8       0.4       3.6       0.1
11 O  px              1.2       0.2       1.4       2.1       0.9       1.0
11 O  py              0.2       0.1       3.3       1.1       0.3       7.3
12 O  s               0.0       0.6       1.4       0.5       0.2       0.0
12 O  pz              0.3       2.7       0.1       7.7       0.2       0.1
12 O  px              0.9       0.6       4.3       0.4       0.1       0.1
12 O  py              2.1       0.4       1.1       0.0       0.5       0.3
13 O  s               0.1       0.2       0.0       0.6       0.1       0.4
13 O  pz             13.4       0.0       0.1       0.0       0.5       0.5
13 O  px              0.2       0.3       0.0       2.2       4.5       5.4
13 O  py              2.1       0.4       0.3       1.4       0.7       2.2
13 O  dxz             0.1       0.0       0.0       0.0       0.0       0.0
14 O  s               0.0       0.0       0.2       2.4       0.1       0.3
14 O  pz              0.5       0.3       3.1      10.9       0.1       6.3
14 O  px              2.5       2.6       0.0       2.3       1.1       0.4
14 O  py              0.1       0.2       0.0       5.0       0.9       1.3
15 O  s               1.3       0.4       0.1       0.0       3.2       0.0
15 O  pz              1.9       1.1       0.1       0.2       1.6       0.3
15 O  px              6.1       1.0       0.0       0.7      19.9       0.0
15 O  py              1.2       0.3       0.1       0.3       5.7       1.6
16 O  s               0.2       1.2       0.0       0.0       0.0       0.0
16 O  pz              0.2       8.7       0.8       2.1       2.5       3.8
16 O  px              0.0       1.5       6.2       0.4       0.0       1.1
16 O  py              0.5       0.3       4.3       1.0       0.1       0.1
17 H  s               0.8       0.1      14.9       1.9       0.3       0.1
18 H  s               0.1       9.2       2.6       1.1       1.4       7.0
19 H  s               0.7       0.1       0.5       0.0       0.2       0.0
20 H  s               3.3       0.2       0.1       0.0       1.1       0.2
21 H  s               0.1       0.0       0.1       0.1       0.1       0.1
[...]
 5 C  py              0.0       0.0       0.0       0.0       0.2       0.0
 5 C  dz2             1.5       3.2       0.6       0.1       2.9       0.0
 5 C  dxz             0.0       0.8       0.8       1.2       1.6       0.0
 5 C  dyz             0.1       0.2       0.1       0.0       1.0       0.0
 5 C  dx2y2           0.0       0.0       0.2       0.1       0.0       0.0
 6 H  s               0.0       0.0       0.0       0.0       0.1       0.0
 7 C  s               0.0       0.2       0.2       1.6       1.0       0.1
 7 C  pz              0.0       0.1       0.1       1.0       0.9       0.0
 7 C  px              0.0       0.0       0.1       0.6       0.5       0.0
 7 C  py              0.0       0.1       0.3       0.2       0.3       0.0
 7 C  dz2             0.1       0.1       0.3       0.7       0.4       0.0
 7 C  dxz             0.1       0.8       0.7       2.7       1.4       0.2
 7 C  dyz             0.0       0.0       0.4       0.8       2.2       0.0
 7 C  dx2y2           0.0       0.1       0.7       0.0       0.0       0.0
 7 C  dxy             0.0       0.1       0.1       1.0       0.9       0.0
 9 C  s               0.1       0.0       1.4       0.8       0.1       0.4
 9 C  pz              0.1       0.0       0.4       0.1       0.0       0.0
 9 C  px              0.0       0.0       0.2       0.2       0.1       3.2
 9 C  py              0.1       0.0       0.8       0.2       0.1       0.2
 9 C  dz2             0.0       0.0       0.1       0.5       0.0       0.7
 9 C  dxz             0.0       0.0       1.5       1.2       0.3       2.1
 9 C  dyz             0.4       0.0       0.4       0.3       0.0       1.2
 9 C  dx2y2           0.0       0.0       0.6       0.2       0.0       4.6
 9 C  dxy             0.0       0.0       4.7       1.1       0.9       1.2
11 O  s               0.2       0.0       0.6       0.3       0.0       0.0
11 O  pz              0.0       0.0       0.0       0.0       0.0       0.1
11 O  px              0.0       0.1       0.6       0.3       0.0       5.8
11 O  py              0.0       0.0       0.0       0.0       0.0       0.4
11 O  dz2             0.3       0.0       0.8       0.5       0.1       1.9
11 O  dxz             0.3       0.1       4.4       4.2       0.0      17.4
11 O  dyz             0.0       0.0       0.1       0.3       0.0       3.9
11 O  dx2y2           1.8       0.0       0.8       0.4       1.1      11.7
11 O  dxy             0.2       0.3      10.6       2.9       0.9      16.7
12 O  s               0.2       0.0       1.8       0.9       0.1       1.3
12 O  pz              0.0       0.0       0.4       0.2       0.0       0.2
12 O  px              0.0       0.0       0.2       0.1       0.0       0.4
12 O  py              0.1       0.0       1.5       0.6       0.1       0.5
12 O  dz2             0.1       0.0       0.1       0.0       0.0       0.9
12 O  dxz             0.4       0.1       5.2       2.7       0.2       4.2
12 O  dyz             0.4       0.0      11.4       6.1       0.6       2.7
12 O  dx2y2           0.1       0.0       1.6       0.6       0.2       0.5
12 O  dxy             1.5       0.2      10.4       3.2       1.0       6.3
13 O  s               0.0       0.1       0.4       1.8       2.2       0.0
13 O  pz              0.0       0.2       0.3       1.7       1.3       0.0
13 O  px              0.0       0.0       0.1       0.1       0.3       0.0
13 O  py              0.0       0.1       0.1       0.6       0.2       0.0
13 O  dz2             0.1       0.3       0.7       1.8       2.1       0.0
13 O  dxz             0.0       1.5       2.3      18.0      13.4       0.4
13 O  dyz             0.0       1.4       2.2       7.2       4.4       0.1
13 O  dx2y2           0.0       0.2       0.0       0.0       1.4       0.0
13 O  dxy             0.0       1.0       1.6       6.2       2.5       0.0
14 O  s               0.1       1.3       0.6       0.1       3.0       0.0
14 O  pz              0.3       1.0       0.4       0.2       1.7       0.0
14 O  px              0.1       0.1       0.0       0.0       0.3       0.0
14 O  py              0.1       0.3       0.1       0.1       0.3       0.0
14 O  dz2             2.1      11.8       6.3       3.3      18.7       0.1
14 O  dxz             3.2       6.2       0.8       0.0       7.9       0.0
14 O  dyz             0.5       2.3       0.7       0.8       0.8       0.0
14 O  dx2y2           0.3       0.5       0.0       0.0       0.4       0.0
14 O  dxy             0.3       0.5       0.1       0.1       0.1       0.0
15 O  s               1.8       0.9       0.7       0.7       1.1       0.0
15 O  pz              1.7       0.9       0.4       0.7       0.8       0.0
15 O  py              0.2       0.1       0.0       0.1       0.1       0.0
15 O  dz2             9.0       4.5       3.1       3.5       5.6       0.0
15 O  dxz             9.6       5.6       1.2       2.6       1.4       0.0
15 O  dyz             6.2       3.6       1.7       1.8       2.1       0.0
15 O  dxy             0.9       0.6       0.4       0.2       0.1       0.0
16 O  s               1.5       1.7       0.2       0.1       0.0       0.0
16 O  pz              1.7       1.7       0.2       0.2       0.1       0.1
16 O  py              0.4       0.3       0.0       0.0       0.0       0.0
16 O  dz2            29.0      26.1       2.2       2.1       0.5       0.7
16 O  dxz             0.4       0.6       0.1       0.0       0.1       0.0
16 O  dyz             3.0       2.8       0.4       0.2       0.0       0.1
16 O  dxy             0.6       0.2       0.0       0.0       0.0       0.0
19 H  s               0.0       0.0       0.2       0.1       0.0       0.1
20 H  s               0.0       0.1       0.0       0.6       0.2       0.0
21 H  s               0.1       0.2       0.1       0.1       0.3       0.0
22 H  s               0.3       0.2       0.0       0.2       0.0       0.0
23 H  s               0.5       0.3       0.0       0.0       0.1       0.0



                      *****************************
                      * MAYER POPULATION ANALYSIS *
                      *****************************

  NA   - Mulliken gross atomic population
  ZA   - Total nuclear charge
  QA   - Mulliken gross atomic charge
  VA   - Mayer's total valence
  BVA  - Mayer's bonded valence
  FA   - Mayer's free valence

  ATOM       NA         ZA         QA         VA         BVA        FA
  0 C      5.8997     6.0000     0.1003     4.0071     4.0071     0.0000
  1 C      6.0137     6.0000    -0.0137     4.0148     4.0148     0.0000
  2 H      0.9464     1.0000     0.0536     0.9826     0.9826     0.0000
  3 C      6.0182     6.0000    -0.0182     3.9248     3.9248    -0.0000
  4 H      0.9131     1.0000     0.0869     0.9679     0.9679    -0.0000
  5 C      5.9642     6.0000     0.0358     4.0359     4.0359     0.0000
  6 H      0.9082     1.0000     0.0918     0.9720     0.9720     0.0000
  7 C      5.9405     6.0000     0.0595     3.9622     3.9622    -0.0000
  8 H      0.9102     1.0000     0.0898     0.9871     0.9871    -0.0000
  9 C      5.8138     6.0000     0.1862     4.1085     4.1085    -0.0000
 10 H      0.9612     1.0000     0.0388     0.9897     0.9897    -0.0000
 11 O      8.3095     8.0000    -0.3095     2.1430     2.1430    -0.0000
 12 O      8.3752     8.0000    -0.3752     2.0623     2.0623    -0.0000
 13 O      8.4201     8.0000    -0.4201     2.0188     2.0188    -0.0000
 14 O      8.4196     8.0000    -0.4196     2.0500     2.0500     0.0000
 15 O      8.4250     8.0000    -0.4250     2.0209     2.0209     0.0000
 16 O      8.4426     8.0000    -0.4426     2.0318     2.0318     0.0000
 17 H      0.9347     1.0000     0.0653     0.9431     0.9431    -0.0000
 18 H      0.9106     1.0000     0.0894     0.9599     0.9599     0.0000
 19 H      0.6965     1.0000     0.3035     0.8927     0.8927    -0.0000
 20 H      0.6966     1.0000     0.3034     0.9271     0.9271     0.0000
 21 H      0.6834     1.0000     0.3166     0.9173     0.9173    -0.0000
 22 H      0.6856     1.0000     0.3144     0.8771     0.8771    -0.0000
 23 H      0.7112     1.0000     0.2888     0.9515     0.9515    -0.0000

  Mayer bond orders larger than 0.100000
B(  0-C ,  1-C ) :   1.0319 B(  0-C , 16-O ) :   1.1087 B(  0-C , 17-H ) :   0.9099 
B(  0-C , 18-H ) :   0.9137 B(  1-C ,  2-H ) :   0.8780 B(  1-C ,  3-C ) :   0.9411 
B(  1-C , 11-O ) :   1.0039 B(  3-C ,  4-H ) :   0.9043 B(  3-C ,  5-C ) :   0.9862 
B(  3-C , 15-O ) :   1.0229 B(  5-C ,  6-H ) :   0.8942 B(  5-C ,  7-C ) :   1.0037 
B(  5-C , 14-O ) :   1.0324 B(  7-C ,  8-H ) :   0.8882 B(  7-C ,  9-C ) :   0.9547 
B(  7-C , 13-O ) :   1.0715 B(  9-C , 10-H ) :   0.8791 B(  9-C , 11-O ) :   1.0044 
B(  9-C , 12-O ) :   1.1660 B( 12-O , 19-H ) :   0.8408 B( 13-O , 20-H ) :   0.8179 
B( 14-O , 21-H ) :   0.8042 B( 14-O , 23-H ) :   0.1162 B( 15-O , 22-H ) :   0.8399 
B( 16-O , 23-H ) :   0.7978 

-------
TIMINGS
-------

Total SCF time: 0 days 0 hours 0 min 6 sec 

Total time                  ....       6.881 sec
Sum of individual times     ....       6.849 sec  ( 99.5%)

SCF preparation             ....       0.588 sec  (  8.5%)
Fock matrix formation       ....       6.055 sec  ( 88.0%)
  Startup                   ....       0.008 sec  (  0.1% of F)
  Split-RI-J                ....       3.094 sec  ( 51.1% of F)
  XC integration            ....       2.735 sec  ( 45.2% of F)
    Basis function eval.    ....       1.126 sec  ( 41.2% of XC)
    Density eval.           ....       0.624 sec  ( 22.8% of XC)
    XC-Functional eval.     ....       0.162 sec  (  5.9% of XC)
    XC-Potential eval.      ....       0.642 sec  ( 23.5% of XC)
Diagonalization             ....       0.000 sec  (  0.0%)
Density matrix formation    ....       0.028 sec  (  0.4%)
Total Energy calculation    ....       0.002 sec  (  0.0%)
Population analysis         ....       0.062 sec  (  0.9%)
Orbital Transformation      ....       0.016 sec  (  0.2%)
Orbital Orthonormalization  ....       0.000 sec  (  0.0%)
DIIS solution               ....       0.078 sec  (  1.1%)
  MO trafo                  ....       0.000 sec  (  0.0 % of DIIS)
  Orb grad                  ....       0.000 sec  (  0.0 % of DIIS)
  Energy W gradient         ....       0.000 sec  (  0.0 % of DIIS)
  DIIS error                ....       0.006 sec  (  7.7 % of DIIS)
  DIIS work                 ....       0.062 sec  ( 80.0 % of DIIS)
  Form Q                    ....       0.000 sec  (  0.0 % of DIIS)
  Form QpQm                 ....       0.000 sec  (  0.0 % of DIIS)
  Exp/Cayley                ....       0.000 sec  (  0.0 % of DIIS)
  Orb update                ....       0.000 sec  (  0.0 % of DIIS)
  Wake-sleep                ....       0.001 sec  (  1.4 % of DIIS)
SOSCF solution              ....       0.020 sec  (  0.3%)
  MO trafo                  ....       0.012 sec  ( 61.3 % of SOSCF)
  Orb grad                  ....       0.000 sec  (  0.9 % of SOSCF)
  Rot update                ....       0.002 sec  (  8.0 % of SOSCF)
  Step                      ....       0.006 sec  ( 29.5 % of SOSCF)
Finished LeanSCF after   6.9 sec

Maximum memory used throughout the entire LEANSCF-calculation: 19.1 MB


-------------------------------------------------------------------------------
                          DFT DISPERSION CORRECTION                            
                                                                               
                                DFTD4 V3.4.0                                   
-------------------------------------------------------------------------------
The PBE functional is recognized
Active option DFTDOPT                   ...         5   

-------------------------   ----------------
Dispersion correction           -0.025645641
-------------------------   ----------------

------------------   -----------------
gCP correction             0.160139389
------------------   -----------------

-------------------------   --------------------
FINAL SINGLE POINT ENERGY      -685.692352921050
-------------------------   --------------------


------------------------------------------------------------------------------
                              ORCA PROPERTY CALCULATIONS
------------------------------------------------------------------------------

GBWName                                 ... sp.gbw
Number of atoms                         ...     24
Number of basis functions               ...    192
Max core memory                         ...   1024 MB

Electric properties:
Dipole moment                           ... YES
Quadrupole moment                       ...  NO
Static polarizability (Dipole/Dipole)   ...  NO
Static polarizability (Dipole/Quad.)    ...  NO
Static polarizability (Quad./Quad.)     ...  NO
Static polarizability (Velocity)        ...  NO

Atomic electric properties:
Dipole moment                           ...  NO
Quadrupole moment                       ...  NO
Static polarizability                   ...  NO

Choice of electric origin               ... Center of mass
Position of electric origin             ...    -0.000009     0.000002     0.000007

General magnetic properties:
Magnetizability                         ...  NO

EPR properties:
g-Tensor (aka g-matrix)                 ...  NO
Zero-Field splitting spin-orbit         ...  NO
Zero-field splitting spin-spin          ...  NO
Hyperfine couplings                     ...  NO (   0 nuclei)
Quadrupole couplings                    ...  NO (   0 nuclei)
Contact density                         ...  NO (   0 nuclei)

NMR properties:
Chemical shifts                         ...  NO (   0 nuclei)
Spin-rotation constants                 ...  NO (   0 nuclei)
Spin-spin couplings                     ...  NO (   0 nuclei,    0 pairs)

Choice of magnetic origin               ... GIAO
Position of magnetic origin             ...     0.000000     0.000000     0.000000

Properties with geometric perturbations:
SCF Hessian                             ...  NO
IR spectrum                             ...  NO
VCD spectrum                            ...  NO
X-ray spectroscopy properties:
SCF XES/XAS/RIXS spectra                ...  NO


-------------
DIPOLE MOMENT
-------------

Method             : SCF
Type of density    : Electron Density
Multiplicity       :   1
Irrep              :   0
Energy             :  -685.8268466683914539 Eh
Relativity type    : 
Basis              : AO
                                X                 Y                 Z
Electronic contribution:      3.141543920      -0.603984433      -1.387356527
Nuclear contribution   :     -4.047245883       0.459735965       2.696628473
                        -----------------------------------------
Total Dipole Moment    :     -0.905701963      -0.144248468       1.309271946
                        -----------------------------------------
Magnitude (a.u.)       :      1.598529542
Magnitude (Debye)      :      4.063139192



--------------------
Rotational spectrum 
--------------------
 
Rotational constants in cm-1:             0.041896             0.027967             0.023507 
Rotational constants in MHz :          1256.005703           838.417723           704.731149 

Dipole components along the rotational axes: 
x,y,z [a.u.] :     0.589332    -0.647659    -1.337356 
x,y,z [Debye]:     1.497964    -1.646219    -3.399289 

 

Dipole moment calculation done in   0.0 sec 

Maximum memory used throughout the entire PROP-calculation: 12.7 MB

--------------------------------
SUGGESTED CITATIONS FOR THIS RUN
--------------------------------

Below you find a list of papers that are relevant to this ORCA run
We neither can nor want to force you to cite these papers, but we appreciate if you do
You receive ORCA, which is the product of decades of hard work by many enthusiastic individuals, for free
The only thing we kindly ask in return is that you cite our papers,
We deeply appreciate it, if you show your appreciation for ORCA by not just citing the generic ORCA reference.

Please note that relegating all ORCA citations to the supporting information does *not* help us.
SI sections are not indexed - citations you put there will not count into any citation statistics
But we need these citations in order to attract the funding resources that allow us to do what we are doing

Therefore, if you are a happy ORCA user, please consider citing a few of the papers listed below in the main body of your paper

In addition to the list printed below, the program has created the file sp.bibtex that contains the list in bibtex format
You can import this file easily into all common literature databanks and citation aid programs


List of essential papers. We consider these as the minimum necessary citations

  1. Neese,F.
     Software update: the ORCA program system, version 5.0
     WIRES Comput. Molec. Sci., 2022 12(1)e1606
     doi.org/10.1002/wcms.1606

List of papers to cite with high priority. The work reported in these papers was absolutely
necessary for this run to complete.
Our perspective: the developers of density functionals and basis sets usually get cited in chemistry papers
Good! But without the algorithms to do something with them, the functionals or basis sets would not do anything.
Hence, in our opinion, the algorithm design and method developments papers are equally worthy of getting cited

  1. Neese,F.
     An improvement of the resolution of the identity approximation for the formation of the Coulomb matrix
     J. Comp. Chem., 2003 24(14)1740-1747
     doi.org/10.1002/jcc.10318
  2. Neese,F.
     The SHARK Integral Generation and Digestion System
     J. Comp. Chem., 2022  1-16
     doi.org/10.1002/jcc.26942
  3. Caldeweyher,E.; Bannwarth,C.; Grimme,S.
     Extension of the D3 dispersion coefficient model
     J. Chem. Phys., 2017 147 034112
     doi.org/10.1063/1.4993215
  4. Caldeweyher,E.; Ehlert,S.; Hansen,A.; Neugebauer,H.; Spicher,S.; Bannwarth,C.; Grimme,S.
     A generally applicable atomic-charge dependent London dispersion correction
     J. Chem. Phys., 2019 150 154122
     doi.org/10.1063/1.5090222
  5. Caldeweyher,E.; Mewes,J.; Ehlert,S.; Grimme,S.
     Extension and evaluation of the D4 London-dispersion model for periodic systems
     Phys. Chem. Chem. Phys., 2020 22(16)8499-8512
     doi.org/10.1039/D0CP00502A
  6. Wittmann,L.; Gordiy,I.; Friede,M.; Helmich-Paris,B.; Grimme,S.; Hansen,A.; Bursch,M.
     Extension of the D3 and D4 London Dispersion Corrections to the full Actinides Series
     Phys. Chem. Chem. Phys., 2024 26(32)21379-21394
     doi.org/https://doi.org/10.1039/D4CP01514B 

List of suggested additional citations. These are papers that are important in the 'surrounding' of 
of this run, or papers that preceded the highly important papers. If you like your results we are grateful for a citation.

  1. Neese,F.
     The ORCA program system
     WIRES Comput. Molec. Sci., 2012 2(1)73-78
     doi.org/10.1002/wcms.81
  2. Neese,F.
     Software update: the ORCA program system, version 4.0
     WIRES Comput. Molec. Sci., 2018 8(1)1-6
     doi.org/10.1002/wcms.1327
  3. Neese,F.; Wennmohs,F.; Becker,U.; Riplinger,C.
     The ORCA quantum chemistry program package
     J. Chem. Phys., 2020 152 Art. No. L224108
     doi.org/10.1063/5.0004608

List of optional additional citations

  1. Neese,F.
     Approximate second-order SCF convergence for spin unrestricted wavefunctions
     Chem. Phys. Lett., 2000 325(1-3)93-98
     doi.org/10.1016/s0009-2614(00)00662-x

Timings for individual modules:

Sum of individual times          ...        8.336 sec (=   0.139 min)
Startup calculation              ...        0.609 sec (=   0.010 min)   7.3 %
SCF iterations                   ...        7.657 sec (=   0.128 min)  91.8 %
Property calculations            ...        0.070 sec (=   0.001 min)   0.8 %
                             ****ORCA TERMINATED NORMALLY****
TOTAL RUN TIME: 0 days 0 hours 0 minutes 8 seconds 585 msec
