      -----------------------------------------------------------      
     |                   =====================                   |     
     |                           x T B                           |     
     |                   =====================                   |     
     |                         S. Grimme                         |     
     |          Mulliken Center for Theoretical Chemistry        |     
     |                    University of Bonn                     |     
      -----------------------------------------------------------      

   * xtb version 6.7.1 (edcfbbe) compiled by 'albert@albert-system' on 2024-07-22

   xtb is free software: you can redistribute it and/or modify it under
   the terms of the GNU Lesser General Public License as published by
   the Free Software Foundation, either version 3 of the License, or
   (at your option) any later version.
   
   xtb is distributed in the hope that it will be useful,
   but WITHOUT ANY WARRANTY; without even the implied warranty of
   MERCHANTABILITY or FITNESS FOR A PARTICULAR PURPOSE.  See the
   GNU Lesser General Public License for more details.
   
   Cite this work as:
   * C. Bannwarth, E. Caldeweyher, S. Ehlert, A. Hansen, P. Pracht,
     J. Seibert, S. Spicher, S. Grimme, WIREs Comput. Mol. Sci., 2020, 11,
     e01493. DOI: 10.1002/wcms.1493
   
   for GFN2-xTB:
   * C. Bannwarth, S. Ehlert and S. Grimme., J. Chem. Theory Comput., 2019,
     15, 1652-1671. DOI: 10.1021/acs.jctc.8b01176
   for GFN1-xTB:
   * S. Grimme, C. Bannwarth, P. Shushkov, J. Chem. Theory Comput., 2017,
     13, 1989-2009. DOI: 10.1021/acs.jctc.7b00118
   for GFN0-xTB:
   * P. Pracht, E. Caldeweyher, S. Ehlert, S. Grimme, ChemRxiv, 2019, preprint.
     DOI: 10.26434/chemrxiv.8326202.v1
   for GFN-FF:
   * S. Spicher and S. Grimme, Angew. Chem. Int. Ed., 2020, 59, 15665-15673.
     DOI: 10.1002/anie.202004239
   
   for ALPB and GBSA implicit solvation:
   * S. Ehlert, M. Stahn, S. Spicher, S. Grimme, J. Chem. Theory Comput.,
     2021, 17, 4250-4261. DOI: 10.1021/acs.jctc.1c00471
   
   for ddCOSMO and CPCM-X implicit solvation:
   * M. Stahn, S. Ehlert, S. Grimme, J. Phys. Chem. A,
     2023, XX, XXXX-XXXX. DOI: 10.1021/acs.jpca.3c04382
   
   for DFT-D4:
   * E. Caldeweyher, C. Bannwarth and S. Grimme, J. Chem. Phys., 2017,
     147, 034112. DOI: 10.1063/1.4993215
   * E. Caldeweyher, S. Ehlert, A. Hansen, H. Neugebauer, S. Spicher,
     C. Bannwarth and S. Grimme, J. Chem. Phys., 2019, 150, 154122.
     DOI: 10.1063/1.5090222
   * E. Caldeweyher, J.-M. Mewes, S. Ehlert and S. Grimme, Phys. Chem. Chem. Phys.
     2020, 22, 8499-8512. DOI: 10.1039/D0CP00502A
   
   for sTDA-xTB:
   * S. Grimme and C. Bannwarth, J. Chem. Phys., 2016, 145, 054103.
     DOI: 10.1063/1.4959605
   
   in the mass-spec context:
   * V. Asgeirsson, C. Bauer and S. Grimme, Chem. Sci., 2017, 8, 4879.
     DOI: 10.1039/c7sc00601b
   * J. Koopman and S. Grimme, ACS Omega 2019, 4, 12, 15120-15133.
     DOI: 10.1021/acsomega.9b02011
   
   for metadynamics refer to:
   * S. Grimme, J. Chem. Theory Comput., 2019, 155, 2847-2862
     DOI: 10.1021/acs.jctc.9b00143
   
   for SPH calculations refer to:
   * S. Spicher and S. Grimme, J. Chem. Theory Comput., 2021, 17, 1701-1714
     DOI: 10.1021/acs.jctc.0c01306
   
   for ONIOM refer to:
   * C. Plett, A. Katbashev, S. Ehlert, S. Grimme, M. Bursch,
     Phys. Chem. Chem. Phys., 2023, 25, 17860-17868. DOI: 10.1039/D3CP02178E
   
   for DIPRO refer to:
   * J. Kohn, N. Gildemeister, S. Grimme, D. Fazzi, A. Hansen,
     J. Chem. Phys., 2023, just accepted.
   
   for PTB refer to:
   * S. Grimme, M. Mueller, A. Hansen, J. Chem. Phys., 2023, 158, 124111.
     DOI: 10.1063/5.0137838
   
   with help from (in alphabetical order)
   P. Atkinson, C. Bannwarth, F. Bohle, G. Brandenburg, E. Caldeweyher
   M. Checinski, S. Dohm, S. Ehlert, S. Ehrlich, I. Gerasimov, C. Hölzer
   A. Katbashev, J. Kohn, J. Koopman, C. Lavigne, S. Lehtola, F. März, M. Müller,
   F. Musil, H. Neugebauer, J. Pisarek, C. Plett, P. Pracht, F. Pultar,
   J. Seibert, P. Shushkov, S. Spicher, M. Stahn, M. Steiner, T. Strunk,
   J. Stückrath, T. Rose, and J. Unsleber
   
 * started run on 2025/04/15 at 19:05:44.881     
   ID    Z sym.   atoms
    1    6 C      1-7
    2    8 O      8
    3    1 H      9-16

           -------------------------------------------------
          |                Calculation Setup                |
           -------------------------------------------------

          program call               : /software/projects/pawsey0265/mwang1/xtb/bin/xtb xtb_rrho.coord --gfn2 --ohess vtight --chrg 0 --enso --norestart -I rrho-xcontrol-inp --parallel 1
          hostname                   : nid002793
          coordinate file            : xtb_rrho.coord
          omp threads                :                     1


           -------------------------------------------------
          |                 G F N 2 - x T B                 |
           -------------------------------------------------

        Reference                      10.1021/acs.jctc.8b01176
      * Hamiltonian:
        H0-scaling (s, p, d)           1.850000    2.230000    2.230000
        zeta-weighting                 0.500000
      * Dispersion:
        s8                             2.700000
        a1                             0.520000
        a2                             5.000000
        s9                             5.000000
      * Repulsion:
        kExp                           1.500000    1.000000
        rExp                           1.000000
      * Coulomb:
        alpha                          2.000000
        third order                    shell-resolved
        anisotropic                    true
        a3                             3.000000
        a5                             4.000000
        cn-shift                       1.200000
        cn-exp                         4.000000
        max-rad                        5.000000


          ...................................................
          :                      SETUP                      :
          :.................................................:
          :  # basis functions                  40          :
          :  # atomic orbitals                  40          :
          :  # shells                           24          :
          :  # electrons                        42          :
          :  max. iterations                   250          :
          :  Hamiltonian                  GFN2-xTB          :
          :  restarted?                      false          :
          :  GBSA solvation                  false          :
          :  PC potential                    false          :
          :  electronic temp.          300.0000000     K    :
          :  accuracy                    1.0000000          :
          :  -> integral cutoff          0.2500000E+02      :
          :  -> integral neglect         0.1000000E-07      :
          :  -> SCF convergence          0.1000000E-05 Eh   :
          :  -> wf. convergence          0.1000000E-03 e    :
          :  Broyden damping             0.4000000          :
          :  net charge                          0          :
          :  unpaired electrons                  0          :
          ...................................................

 iter      E             dE          RMSdq      gap      omega  full diag
   1    -23.4599525 -0.234600E+02  0.427E+00    4.23       0.0  T
   2    -23.4772688 -0.173162E-01  0.261E+00    4.25       1.0  T
   3    -23.4717804  0.548838E-02  0.126E+00    4.27       1.0  T
   4    -23.4816906 -0.991024E-02  0.243E-01    4.28       1.0  T
   5    -23.4819074 -0.216794E-03  0.762E-02    4.31       1.0  T
   6    -23.4819266 -0.191738E-04  0.401E-02    4.28       1.0  T
   7    -23.4819337 -0.707232E-05  0.123E-02    4.29       2.0  T
   8    -23.4819340 -0.340499E-06  0.562E-03    4.29       4.4  T
   9    -23.4819343 -0.311290E-06  0.184E-03    4.29      13.6  T
  10    -23.4819343 -0.850337E-08  0.752E-04    4.29      33.2  T
  11    -23.4819343 -0.926597E-09  0.184E-04    4.29     135.5  T

   *** convergence criteria satisfied after 11 iterations ***

         #    Occupation            Energy/Eh            Energy/eV
      -------------------------------------------------------------
         1        2.0000           -0.7054824             -19.1972
       ...           ...                  ...                  ...
        15        2.0000           -0.4720859             -12.8461
        16        2.0000           -0.4552062             -12.3868
        17        2.0000           -0.4462230             -12.1423
        18        2.0000           -0.4315613             -11.7434
        19        2.0000           -0.4213040             -11.4643
        20        2.0000           -0.3942734             -10.7287
        21        2.0000           -0.3781458             -10.2899 (HOMO)
        22                         -0.2206066              -6.0030 (LUMO)
        23                         -0.2101998              -5.7198
        24                         -0.0896754              -2.4402
        25                          0.0660793               1.7981
        26                          0.1048818               2.8540
       ...                                ...                  ...
        40                          0.6459330              17.5767
      -------------------------------------------------------------
                  HL-Gap            0.1575392 Eh            4.2869 eV
             Fermi-level           -0.2993762 Eh           -8.1464 eV

 SCC (total)                   0 d,  0 h,  0 min,  0.034 sec
 SCC setup                      ...        0 min,  0.000 sec (  0.580%)
 Dispersion                     ...        0 min,  0.000 sec (  0.291%)
 classical contributions        ...        0 min,  0.000 sec (  0.098%)
 integral evaluation            ...        0 min,  0.001 sec (  3.987%)
 iterations                     ...        0 min,  0.030 sec ( 85.755%)
 molecular gradient             ...        0 min,  0.003 sec (  8.961%)
 printout                       ...        0 min,  0.000 sec (  0.276%)

         :::::::::::::::::::::::::::::::::::::::::::::::::::::
         ::                     SUMMARY                     ::
         :::::::::::::::::::::::::::::::::::::::::::::::::::::
         :: total energy             -23.124177448946 Eh    ::
         :: gradient norm              0.015832495799 Eh/a0 ::
         :: HOMO-LUMO gap              4.286859838700 eV    ::
         ::.................................................::
         :: SCC energy               -23.481906763294 Eh    ::
         :: -> isotropic ES            0.022473983040 Eh    ::
         :: -> anisotropic ES          0.004530887718 Eh    ::
         :: -> anisotropic XC          0.010365282684 Eh    ::
         :: -> dispersion             -0.011619990942 Eh    ::
         :: repulsion energy           0.357729314348 Eh    ::
         :: add. restraining           0.000000000000 Eh    ::
         :: total charge               0.000000000000 e     ::
         :::::::::::::::::::::::::::::::::::::::::::::::::::::

      ----------------------------------------------------------- 
     |                   =====================                   |
     |                        A N C O P T                        |
     |                   =====================                   |
     |               Approximate Normal Coordinate               |
     |                Rational Function Optimizer                |
      ----------------------------------------------------------- 
      ----------------------------------------------------------- 
     |                   =====================                   |
     |                        A N C O P T                        |
     |                   =====================                   |
     |               Approximate Normal Coordinate               |
     |                Rational Function Optimizer                |
      ----------------------------------------------------------- 

          ...................................................
          :                      SETUP                      :
          :.................................................:
          :   optimization level         verytight          :
          :   max. optcycles                   320          :
          :   ANC micro-cycles                  20          :
          :   degrees of freedom                42          :
          :.................................................:
          :   RF solver                   davidson          :
          :   write xtbopt.log                true          :
          :   linear?                        false          :
          :   energy convergence         0.1000000E-06 Eh   :
          :   grad. convergence          0.2000000E-03 Eh/α :
          :   maxmium RF displ.          1.0000000          :
          :   Hlow (freq-cutoff)         0.1000000E-01      :
          :   Hmax (freq-cutoff)         5.0000000          :
          :   S6 in model hess.         20.0000000          :
          ...................................................

generating ANC from exact Hessian ...
Using Lindh-Hessian (1995)
 Shifting diagonal of input Hessian by   4.598787691691927E-003
 Lowest  eigenvalues of input Hessian
    0.000000    0.000000    0.000000    0.000000    0.000000    0.000000
    0.010000    0.011422    0.014901    0.018703    0.021001    0.029385
    0.040139    0.041782    0.051703    0.058678    0.072950    0.077194
 Highest eigenvalues
    1.459519    1.595774    1.689665    1.868427    1.982435    2.052715
 

........................................................................
.............................. CYCLE    1 ..............................
........................................................................

 iter      E             dE          RMSdq      gap      omega  full diag
   1    -23.4819343 -0.234819E+02  0.106E-04    4.29       0.0  T
   2    -23.4819343 -0.414637E-10  0.656E-05    4.29     381.0  T
   3    -23.4819343 -0.280735E-10  0.393E-05    4.29     636.6  T
     SCC iter.                  ...        0 min,  0.001 sec
     gradient                   ...        0 min,  0.003 sec
 * total energy  :   -23.1241774 Eh     change       -0.1739302E-09 Eh
   gradient norm :     0.0158330 Eh/α   predicted     0.0000000E+00 (-100.00%)
   displ. norm   :     0.0954969 α      lambda       -0.9895188E-03
   maximum displ.:     0.0616344 α      in ANC's #8, #24, #9, ...

........................................................................
.............................. CYCLE    2 ..............................
........................................................................

 iter      E             dE          RMSdq      gap      omega  full diag
   1    -23.4950636 -0.234951E+02  0.985E-02    4.34       0.0  T
   2    -23.4950669 -0.334855E-05  0.583E-02    4.34       1.0  T
   3    -23.4950624  0.451961E-05  0.286E-02    4.34       1.0  T
   4    -23.4950687 -0.629556E-05  0.226E-03    4.34      11.1  T
   5    -23.4950687 -0.214809E-07  0.123E-03    4.34      20.3  T
   6    -23.4950687 -0.107735E-08  0.646E-04    4.34      38.7  T
   7    -23.4950687 -0.194392E-08  0.106E-04    4.34     234.9  T
     SCC iter.                  ...        0 min,  0.002 sec
     gradient                   ...        0 min,  0.003 sec
 * total energy  :   -23.1247650 Eh     change       -0.5875465E-03 Eh
   gradient norm :     0.0052956 Eh/α   predicted    -0.4992712E-03 ( -15.02%)
   displ. norm   :     0.0246153 α      lambda       -0.5804516E-04
   maximum displ.:     0.0154396 α      in ANC's #8, #24, #4, ...

........................................................................
.............................. CYCLE    3 ..............................
........................................................................

 iter      E             dE          RMSdq      gap      omega  full diag
   1    -23.4978395 -0.234978E+02  0.269E-02    4.35       0.0  T
   2    -23.4978402 -0.774204E-06  0.155E-02    4.35       1.6  T
   3    -23.4978402  0.791116E-07  0.921E-03    4.35       2.7  T
   4    -23.4978406 -0.416159E-06  0.893E-04    4.35      28.0  T
   5    -23.4978406 -0.500435E-08  0.380E-04    4.35      65.8  T
     SCC iter.                  ...        0 min,  0.001 sec
     gradient                   ...        0 min,  0.003 sec
 * total energy  :   -23.1247972 Eh     change       -0.3218494E-04 Eh
   gradient norm :     0.0021111 Eh/α   predicted    -0.2903986E-04 (  -9.77%)
   displ. norm   :     0.0059121 α      lambda       -0.4316847E-05
   maximum displ.:     0.0040284 α      in ANC's #4, #1, #17, ...

........................................................................
.............................. CYCLE    4 ..............................
........................................................................

 iter      E             dE          RMSdq      gap      omega  full diag
   1    -23.4978139 -0.234978E+02  0.649E-03    4.35       0.0  T
   2    -23.4978140 -0.143121E-06  0.402E-03    4.35       6.2  T
   3    -23.4978141 -0.448911E-07  0.232E-03    4.35      10.8  T
   4    -23.4978141 -0.110837E-07  0.421E-04    4.35      59.4  T
   5    -23.4978141 -0.104035E-08  0.145E-04    4.35     172.4  T
     SCC iter.                  ...        0 min,  0.001 sec
     gradient                   ...        0 min,  0.003 sec
 * total energy  :   -23.1248001 Eh     change       -0.2881595E-05 Eh
   gradient norm :     0.0008521 Eh/α   predicted    -0.2158267E-05 ( -25.10%)
   displ. norm   :     0.0049736 α      lambda       -0.1127258E-05
   maximum displ.:     0.0031664 α      in ANC's #4, #1, #17, ...

........................................................................
.............................. CYCLE    5 ..............................
........................................................................

 iter      E             dE          RMSdq      gap      omega  full diag
   1    -23.4974919 -0.234975E+02  0.527E-03    4.35       0.0  T
   2    -23.4974921 -0.114026E-06  0.345E-03    4.35       7.2  T
   3    -23.4974921 -0.367432E-07  0.192E-03    4.35      13.0  T
   4    -23.4974921 -0.524180E-08  0.439E-04    4.35      56.9  T
   5    -23.4974921 -0.101400E-08  0.140E-04    4.35     179.1  T
     SCC iter.                  ...        0 min,  0.001 sec
     gradient                   ...        0 min,  0.003 sec
 * total energy  :   -23.1248006 Eh     change       -0.5115809E-06 Eh
   gradient norm :     0.0003857 Eh/α   predicted    -0.5653231E-06 (  10.51%)
   displ. norm   :     0.0015450 α      lambda       -0.1646092E-06
   maximum displ.:     0.0010347 α      in ANC's #4, #17, #1, ...

........................................................................
.............................. CYCLE    6 ..............................
........................................................................

 iter      E             dE          RMSdq      gap      omega  full diag
   1    -23.4975589 -0.234976E+02  0.175E-03    4.35       0.0  T
   2    -23.4975589 -0.916941E-08  0.112E-03    4.35      22.3  T
   3    -23.4975589 -0.253052E-08  0.634E-04    4.35      39.4  T
   4    -23.4975589 -0.105793E-08  0.112E-04    4.35     223.7  T
     SCC iter.                  ...        0 min,  0.001 sec
     gradient                   ...        0 min,  0.003 sec
 * total energy  :   -23.1248007 Eh     change       -0.1228045E-06 Eh
   gradient norm :     0.0000449 Eh/α   predicted    -0.8232742E-07 ( -32.96%)
   displ. norm   :     0.0003709 α      lambda       -0.9055803E-08
   maximum displ.:     0.0001712 α      in ANC's #12, #10, #14, ...

........................................................................
.............................. CYCLE    7 ..............................
........................................................................

 iter      E             dE          RMSdq      gap      omega  full diag
   1    -23.4975795 -0.234976E+02  0.476E-04    4.35       0.0  T
   2    -23.4975795 -0.566942E-10  0.285E-04    4.35      87.7  T
   3    -23.4975795  0.162622E-09  0.112E-04    4.35     223.0  T
     SCC iter.                  ...        0 min,  0.001 sec
     gradient                   ...        0 min,  0.003 sec
 * total energy  :   -23.1248007 Eh     change       -0.2486892E-08 Eh
   gradient norm :     0.0000233 Eh/α   predicted    -0.3087564E-08 (  24.15%)
   displ. norm   :     0.0001792 α      lambda       -0.2965859E-08
   maximum displ.:     0.0000855 α      in ANC's #12, #3, #10, ...

   *** GEOMETRY OPTIMIZATION CONVERGED AFTER 7 ITERATIONS ***

------------------------------------------------------------------------
 total energy gain   :        -0.0006233 Eh       -0.3911 kcal/mol
 total RMSD          :         0.0301496 a0        0.0160 Å
 total power (kW/mol):        -0.2337633 (step)  -37.9003 (real)
------------------------------------------------------------------------

 ANCopt (total)                0 d,  0 h,  0 min,  0.043 sec
 optimizer setup                ...        0 min,  0.000 sec (  0.889%)
 model hessian                  ...        0 min,  0.002 sec (  4.138%)
 ANC generation                 ...        0 min,  0.000 sec (  0.665%)
 coordinate transformation      ...        0 min,  0.000 sec (  0.087%)
 single point calculation       ...        0 min,  0.039 sec ( 89.860%)
 optimization log               ...        0 min,  0.001 sec (  2.029%)
 hessian update                 ...        0 min,  0.000 sec (  0.095%)
 rational function              ...        0 min,  0.001 sec (  1.600%)

================
 final structure:
================
$coord
       -4.81169297259125        1.87717909365268        0.01096224420937      C
       -2.34001968352458        0.49330753736704       -0.01121414390138      C
       -2.24861939028471       -2.12678138811514       -0.00606588410436      C
        0.05357270256174       -3.37225719499783        0.00128814636961      C
        2.29105344772352       -2.03175655631608        0.00391913602414      C
        2.22164169440905        0.59657716616136       -0.00020437198279      C
       -0.08692099071434        1.83998236652570       -0.00768544602587      C
        4.45604782661728        1.87516527078287        0.00124209007742      O
       -4.80053449679795        3.41126330793634       -1.35934969252087      H
       -6.36651367710466        0.60849720121566       -0.42630267392012      H
       -5.14806653714625        2.69557394611486        1.87158077238614      H
       -3.98515824170168       -3.19893626208077       -0.00930379519219      H
        0.10308732514762       -5.41234834083228        0.00291640275671      H
        4.09948815133098       -2.96958988987369        0.00726132761492      H
       -0.13227215231460        3.88681545461124       -0.01187623744109      H
        4.13662482668095        3.67000189885340       -0.00217368016313      H
$end
 
 Bond Distances (Angstroems)
 ---------------------------
C1-C2=1.4991         C1-H9=1.0885         C1-H10=1.0868        C1-H11=1.0903        C2-C1=1.4991         C2-C3=1.3873         
C2-C7=1.3890         C3-C2=1.3873         C3-C4=1.3851         C3-H12=1.0800        C4-C3=1.3851         C4-C5=1.3803         
C4-H13=1.0799        C5-C4=1.3803         C5-C6=1.3913         C5-H14=1.0780        C6-C5=1.3913         C6-C7=1.3876         
C6-O8=1.3623         C7-C2=1.3890         C7-C6=1.3876         C7-H15=1.0834        O8-C6=1.3623         O8-H16=0.9647        
H9-C1=1.0885         H10-C1=1.0868        H11-C1=1.0903        H12-C3=1.0800        H13-C4=1.0799        H14-C5=1.0780        
H15-C7=1.0834        H16-O8=0.9647        
 C  H  Rav=1.0838 sigma=0.0044  Rmin=1.0780  Rmax=1.0903     7
 C  C  Rav=1.4028 sigma=0.0394  Rmin=1.3803  Rmax=1.4991     7
 O  H  Rav=0.9647 sigma=0.0000  Rmin=0.9647  Rmax=0.9647     1
 O  C  Rav=1.3623 sigma=0.0000  Rmin=1.3623  Rmax=1.3623     1
 
 selected bond angles (degree)
 --------------------
H9-C1-C2=110.76                H10-C1-C2=110.92               H10-C1-H9=108.84               H11-C1-C2=110.09               
H11-C1-H9=107.83               H11-C1-H10=108.30              C3-C2-C1=121.24                C7-C2-C1=119.89                
C7-C2-C3=118.87                C4-C3-C2=120.41                H12-C3-C2=119.69               H12-C3-C4=119.90               
C5-C4-C3=120.66                H13-C4-C3=119.80               H13-C4-C5=119.54               C6-C5-C4=119.41                
H14-C5-C4=121.66               H14-C5-C6=118.92               C7-C6-C5=119.82                O8-C6-C5=118.27                
O8-C6-C7=121.91                C6-C7-C2=120.83                H15-C7-C2=119.60               H15-C7-C6=119.58               
H16-O8-C6=109.69               
 
 selected dihedral angles (degree)
 ---------------------------------
C3-C2-C1-H9=225.27            C3-C2-C1-H10=346.24           C3-C2-C1-H11=106.10           C7-C2-C1-H9= 46.02            
C7-C2-C1-H10=166.99           C7-C2-C1-H11=286.85           C4-C3-C2-C1=180.71            C4-C3-C2-C7=359.97            
H12-C3-C2-C1=  0.76           H12-C3-C2-C7=180.02           C5-C4-C3-C2=  0.00            C5-C4-C3-H12=179.96           
H13-C4-C3-C2=180.08           H13-C4-C3-H12=  0.03          C6-C5-C4-C3=  0.00            C6-C5-C4-H13=179.95           
H14-C5-C4-C3=180.08           H14-C5-C4-H13=  0.00          C7-C6-C5-C4=  0.00            C7-C6-C5-H14=179.92           
O8-C6-C5-C4=180.03            O8-C6-C5-H14=359.97           C6-C7-C2-C1=179.29            C6-C7-C2-C3=  0.03            
H15-C7-C2-C1=359.26           H15-C7-C2-C3=179.99           C2-C7-C6-C5=  0.00            C2-C7-C6-O8=179.94            
H15-C7-C6-C5=180.03           H15-C7-C6-O8=  0.00           H16-O8-C6-C5=179.99           H16-O8-C6-C7=  0.05           
           -------------------------------------------------
          |                Final Singlepoint                |
           -------------------------------------------------

          ...................................................
          :                      SETUP                      :
          :.................................................:
          :  # basis functions                  40          :
          :  # atomic orbitals                  40          :
          :  # shells                           24          :
          :  # electrons                        42          :
          :  max. iterations                   250          :
          :  Hamiltonian                  GFN2-xTB          :
          :  restarted?                      false          :
          :  GBSA solvation                  false          :
          :  PC potential                    false          :
          :  electronic temp.          300.0000000     K    :
          :  accuracy                    1.0000000          :
          :  -> integral cutoff          0.2500000E+02      :
          :  -> integral neglect         0.1000000E-07      :
          :  -> SCF convergence          0.1000000E-05 Eh   :
          :  -> wf. convergence          0.1000000E-03 e    :
          :  Broyden damping             0.4000000          :
          :  net charge                          0          :
          :  unpaired electrons                  0          :
          ...................................................

 iter      E             dE          RMSdq      gap      omega  full diag
   1    -23.4975795 -0.234976E+02  0.888E-06    4.35       0.0  T
   2    -23.4975795 -0.376588E-12  0.519E-06    4.35    4815.3  T
   3    -23.4975795 -0.227374E-12  0.287E-06    4.35    8721.3  T

   *** convergence criteria satisfied after 3 iterations ***

         #    Occupation            Energy/Eh            Energy/eV
      -------------------------------------------------------------
         1        2.0000           -0.7064697             -19.2240
       ...           ...                  ...                  ...
        15        2.0000           -0.4717644             -12.8374
        16        2.0000           -0.4552059             -12.3868
        17        2.0000           -0.4473110             -12.1720
        18        2.0000           -0.4310015             -11.7281
        19        2.0000           -0.4203909             -11.4394
        20        2.0000           -0.3947769             -10.7424
        21        2.0000           -0.3781129             -10.2890 (HOMO)
        22                         -0.2183043              -5.9404 (LUMO)
        23                         -0.2079862              -5.6596
        24                         -0.0850098              -2.3132
        25                          0.0707380               1.9249
        26                          0.1105957               3.0095
       ...                                ...                  ...
        40                          0.6676562              18.1679
      -------------------------------------------------------------
                  HL-Gap            0.1598086 Eh            4.3486 eV
             Fermi-level           -0.2982086 Eh           -8.1147 eV

 SCC (total)                   0 d,  0 h,  0 min,  0.005 sec
 SCC setup                      ...        0 min,  0.000 sec (  1.773%)
 Dispersion                     ...        0 min,  0.000 sec (  0.733%)
 classical contributions        ...        0 min,  0.000 sec (  0.261%)
 integral evaluation            ...        0 min,  0.001 sec ( 23.420%)
 iterations                     ...        0 min,  0.001 sec ( 14.925%)
 molecular gradient             ...        0 min,  0.003 sec ( 56.594%)
 printout                       ...        0 min,  0.000 sec (  1.926%)

         :::::::::::::::::::::::::::::::::::::::::::::::::::::
         ::                     SUMMARY                     ::
         :::::::::::::::::::::::::::::::::::::::::::::::::::::
         :: total energy             -23.124800699260 Eh    ::
         :: gradient norm              0.000022956258 Eh/a0 ::
         :: HOMO-LUMO gap              4.348613289995 eV    ::
         ::.................................................::
         :: SCC energy               -23.497551851830 Eh    ::
         :: -> isotropic ES            0.022466282038 Eh    ::
         :: -> anisotropic ES          0.004355458803 Eh    ::
         :: -> anisotropic XC          0.009785176063 Eh    ::
         :: -> dispersion             -0.011668153587 Eh    ::
         :: repulsion energy           0.372751152570 Eh    ::
         :: add. restraining           0.000000000000 Eh    ::
         :: total charge              -0.000000000000 e     ::
         :::::::::::::::::::::::::::::::::::::::::::::::::::::

           ------------------------------------------------- 
          |                Numerical Hessian                |
           ------------------------------------------------- 
step length          :   0.00500
SCC accuracy         :   0.30000
Hessian scale factor :   1.00000
frozen atoms in %    :   0.00000    0
RMS gradient         :   0.00002
estimated CPU  time      0.01 min
estimated wall time      0.01 min

writing file <hessian>.

 projected vibrational frequencies (cm⁻¹)
eigval :       -0.00    -0.00    -0.00     0.00     0.00     0.00
eigval :        4.08   196.30   218.66   287.06   402.69   425.64
eigval :      437.27   492.62   522.65   541.36   652.69   737.63
eigval :      785.51   866.90   882.87   923.87   962.28   990.78
eigval :     1023.63  1031.65  1116.75  1148.58  1182.10  1192.81
eigval :     1280.90  1297.41  1338.98  1403.91  1452.01  1483.05
eigval :     1484.10  1492.05  1598.60  1609.34  2999.62  3024.29
eigval :     3045.44  3047.56  3078.13  3089.48  3112.74  3519.92
           -------------------------------------------------
          |                Property Printout                |
           -------------------------------------------------

    * Orbital Energies and Occupations

         #    Occupation            Energy/Eh            Energy/eV
      -------------------------------------------------------------
         1        2.0000           -0.7064697             -19.2240
       ...           ...                  ...                  ...
         9        2.0000           -0.5263119             -14.3217
        10        2.0000           -0.5190676             -14.1245
        11        2.0000           -0.5091882             -13.8557
        12        2.0000           -0.4905463             -13.3484
        13        2.0000           -0.4884384             -13.2911
        14        2.0000           -0.4824886             -13.1292
        15        2.0000           -0.4717644             -12.8374
        16        2.0000           -0.4552058             -12.3868
        17        2.0000           -0.4473110             -12.1720
        18        2.0000           -0.4310015             -11.7281
        19        2.0000           -0.4203909             -11.4394
        20        2.0000           -0.3947769             -10.7424
        21        2.0000           -0.3781129             -10.2890 (HOMO)
        22                         -0.2183043              -5.9404 (LUMO)
        23                         -0.2079862              -5.6596
        24                         -0.0850098              -2.3132
        25                          0.0707380               1.9249
        26                          0.1105957               3.0095
        27                          0.1282841               3.4908
        28                          0.1499241               4.0796
        29                          0.1800411               4.8992
        30                          0.1926298               5.2417
        31                          0.2004757               5.4552
        32                          0.2092997               5.6953
       ...                                ...                  ...
        40                          0.6676562              18.1679
      -------------------------------------------------------------
                  HL-Gap            0.1598086 Eh            4.3486 eV
             Fermi-level           -0.2982086 Eh           -8.1147 eV

     #   Z          covCN         q      C6AA      α(0)
     1   6 C        3.758    -0.109    22.631     6.782
     2   6 C        2.967     0.018    27.610     8.619
     3   6 C        2.924    -0.052    29.294     8.876
     4   6 C        2.920    -0.032    28.789     8.799
     5   6 C        2.919    -0.058    29.447     8.899
     6   6 C        2.846     0.144    24.864     8.172
     7   6 C        2.925    -0.081    30.019     8.985
     8   8 O        1.660    -0.396    20.761     6.151
     9   1 H        0.925     0.044     2.398     2.422
    10   1 H        0.925     0.042     2.417     2.431
    11   1 H        0.924     0.047     2.360     2.402
    12   1 H        0.926     0.031     2.579     2.511
    13   1 H        0.926     0.035     2.522     2.483
    14   1 H        0.926     0.047     2.360     2.402
    15   1 H        0.925     0.023     2.681     2.561
    16   1 H        0.805     0.297     0.730     1.342

 Mol. C6AA /au·bohr⁶  :       2809.993494
 Mol. C8AA /au·bohr⁸  :      66857.049840
 Mol. α(0) /au        :         83.838159


Wiberg/Mayer (AO) data.
largest (>0.10) Wiberg bond orders for each atom

 ---------------------------------------------------------------------------
     #   Z sym  total        # sym  WBO       # sym  WBO       # sym  WBO
 ---------------------------------------------------------------------------
     1   6 C    3.997 --     2 C    1.025    10 H    0.985     9 H    0.978
                            11 H    0.970
     2   6 C    3.989 --     3 C    1.415     7 C    1.411     1 C    1.025
                             5 C    0.106
     3   6 C    3.990 --     4 C    1.430     2 C    1.415    12 H    0.970
     4   6 C    3.992 --     5 C    1.459     3 C    1.430    13 H    0.971
                             7 C    0.105
     5   6 C    3.988 --     4 C    1.459     6 C    1.359    14 H    0.969
                             2 C    0.106
     6   6 C    3.937 --     7 C    1.386     5 C    1.359     8 O    1.067
     7   6 C    3.985 --     2 C    1.411     6 C    1.386    15 H    0.965
                             4 C    0.105
     8   8 O    2.116 --     6 C    1.067    16 H    0.890
     9   1 H    0.998 --     1 C    0.978
    10   1 H    0.998 --     1 C    0.985
    11   1 H    0.998 --     1 C    0.970
    12   1 H    0.999 --     3 C    0.970
    13   1 H    0.999 --     4 C    0.971
    14   1 H    0.997 --     5 C    0.969
    15   1 H    0.999 --     7 C    0.965
    16   1 H    0.912 --     8 O    0.890
 ---------------------------------------------------------------------------

Topologies differ in total number of bonds
Writing topology from bond orders to xtbtopo.mol

molecular dipole:
                 x           y           z       tot (Debye)
 q only:       -0.394       0.394       0.008
   full:       -0.495       0.613       0.014       2.004
molecular quadrupole (traceless):
                xx          xy          yy          xz          yz          zz
 q only:       -2.005       0.979       3.911      -0.071       0.023      -1.906
  q+dip:       -2.650       1.312       7.438      -0.114       0.033      -4.787
   full:       -3.489       1.463       6.234      -0.118       0.035      -2.744

           -------------------------------------------------
          |                Geometry Summary                 |
           -------------------------------------------------

      molecular mass/u    :      108.1380822
   center of mass at/Å    :        0.0000004      -0.0000003      -0.0000729
  moments of inertia/u·Å² :        0.1370528E+03   0.2776105E+03   0.4115377E+03
rotational constants/cm⁻¹ :        0.1230010E+00   0.6072404E-01   0.4096255E-01

 * 15 selected distances

     #   Z          #   Z                                           value/Å
     2   6 C        3   6 C                                       1.3873375
     3   6 C        4   6 C                                       1.3851262
     4   6 C        5   6 C                                       1.3802571
     5   6 C        6   6 C                                       1.3913411 (max)
     2   6 C        7   6 C                                       1.3890272
     6   6 C        7   6 C                                       1.3875724
     6   6 C        8   8 O                                       1.3622960
     1   6 C        9   1 H                                       1.0885234
     1   6 C       10   1 H                                       1.0868407
     1   6 C       11   1 H                                       1.0902617
     3   6 C       12   1 H                                       1.0799747
     4   6 C       13   1 H                                       1.0798881
     5   6 C       14   1 H                                       1.0780133
     7   6 C       15   1 H                                       1.0834056
     8   8 O       16   1 H                                       0.9647122 (min)

 * 4 distinct bonds (by element types)

   Z      Z             #   av. dist./Å        max./Å        min./Å
   1 H    6 C           7     1.0838439     1.0902617     1.0780133
   6 C    6 C           6     1.3867769     1.3913411     1.3802571
   1 H    8 O           1     0.9647122     0.9647122     0.9647122
   6 C    8 O           1     1.3622960     1.3622960     1.3622960

           -------------------------------------------------
          |               Frequency Printout                |
           -------------------------------------------------
 projected vibrational frequencies (cm⁻¹)
eigval :       -0.00    -0.00    -0.00     0.00     0.00     0.00
eigval :        4.08   196.30   218.66   287.06   402.69   425.64
eigval :      437.27   492.62   522.65   541.36   652.69   737.63
eigval :      785.51   866.90   882.87   923.87   962.28   990.78
eigval :     1023.63  1031.65  1116.75  1148.58  1182.10  1192.81
eigval :     1280.90  1297.41  1338.98  1403.91  1452.01  1483.05
eigval :     1484.10  1492.05  1598.60  1609.34  2999.62  3024.29
eigval :     3045.44  3047.56  3078.13  3089.48  3112.74  3519.92
 reduced masses (amu)
   1: 12.58   2: 10.93   3: 10.64   4: 11.27   5: 10.56   6: 12.42   7:  1.28   8:  9.49
   9: 10.87  10: 10.11  11:  6.47  12: 10.11  13:  4.79  14: 11.80  15: 11.63  16: 10.44
  17: 10.05  18: 11.69  19:  3.60  20:  3.39  21:  3.80  22:  3.30  23:  8.37  24: 11.06
  25:  5.05  26:  4.65  27:  4.09  28:  3.23  29:  2.41  30:  5.21  31:  3.75  32: 10.53
  33: 11.26  34:  3.21  35:  9.72  36:  2.38  37:  4.34  38:  6.64  39: 11.43  40: 11.54
  41:  1.83  42:  1.65  43:  1.73  44:  1.75  45:  1.77  46:  1.87  47:  1.86  48:  1.86
 IR intensities (km·mol⁻¹)
   1:  0.13   2:  0.01   3:  0.52   4:  0.34   5:  0.29   6:  0.09   7:  0.33   8:  0.07
   9:  0.00  10:  1.41  11: 58.45  12: 10.30  13:104.97  14:  1.07  15:  1.10  16:  3.99
  17:  1.11  18:  9.20  19: 36.26  20:  0.53  21:  1.34  22:  0.26  23: 17.49  24:  1.02
  25:  5.40  26: 10.51  27:  7.30  28:166.34  29: 22.64  30: 76.93  31: 12.44  32: 70.19
  33: 18.15  34:  4.64  35: 81.10  36:  6.68  37:  3.04  38: 25.29  39: 23.98  40:108.93
  41: 26.96  42: 19.27  43: 24.77  44: 47.40  45: 15.08  46: 52.63  47: 22.99  48: 17.09
 Raman intensities (Ä⁴*amu⁻¹)
   1:  0.00   2:  0.00   3:  0.00   4:  0.00   5:  0.00   6:  0.00   7:  0.00   8:  0.00
   9:  0.00  10:  0.00  11:  0.00  12:  0.00  13:  0.00  14:  0.00  15:  0.00  16:  0.00
  17:  0.00  18:  0.00  19:  0.00  20:  0.00  21:  0.00  22:  0.00  23:  0.00  24:  0.00
  25:  0.00  26:  0.00  27:  0.00  28:  0.00  29:  0.00  30:  0.00  31:  0.00  32:  0.00
  33:  0.00  34:  0.00  35:  0.00  36:  0.00  37:  0.00  38:  0.00  39:  0.00  40:  0.00
  41:  0.00  42:  0.00  43:  0.00  44:  0.00  45:  0.00  46:  0.00  47:  0.00  48:  0.00
 output can be read by thermo (or use thermo option).
 writing <g98.out> molden fake output.
 recommended (thermochemical) frequency scaling factor: 1.0
           -------------------------------------------------
          |             Thermodynamic Functions             |
           -------------------------------------------------

Molecule has no symmetry elements
It seems to be the C1 point group
c1  symmetry found (for desy threshold:  0.10E+00) used in thermo

          ...................................................
          :                      SETUP                      :
          :.................................................:
          :  # frequencies                          42      :
          :  # imaginary freq.                       0      :
          :  linear?                             false      :
          :  only rotor calc.                    false      :
          :  symmetry                               c1      :
          :  rotational number                       1      :
          :  scaling factor                  1.0000000      :
          :  rotor cutoff                    0.0000000 cm⁻¹ :
          :  imag. cutoff                 -100.0000000 cm⁻¹ :
          :.................................................:

    mode    ω/cm⁻¹     T·S(HO)/kcal·mol⁻¹    T·S(FR)/kcal·mol⁻¹   T·S(vib)
   ------------------------------------------------------------------------
       1      4.08    -2.91905 (100.00%)    -1.79423 (  0.00%)    -2.91905
       2    196.30    -0.64623 (100.00%)    -0.65131 (  0.00%)    -0.64623
       3    218.66    -0.58739 (100.00%)    -0.61936 (  0.00%)    -0.58739
       4    287.06    -0.44462 (100.00%)    -0.53876 (  0.00%)    -0.44462
   ------------------------------------------------------------------------

   temp. (K)  partition function   enthalpy   heat capacity  entropy
                                   cal/mol     cal/K/mol   cal/K/mol   J/K/mol
 298.15  VIB   410.                 2978.542     22.539     21.946
         ROT  0.302E+06              888.752      2.981     28.058
         INT  0.124E+09             3867.295     25.519     50.004
         TR   0.109E+28             1481.254      4.968     39.933
         TOT                        5348.5484    30.4876    89.9373   376.2978

       T/K    H(0)-H(T)+PV         H(T)/Eh          T*S/Eh         G(T)/Eh
   ------------------------------------------------------------------------
    298.15    0.852345E-02    0.136975E+00    0.427321E-01    0.942433E-01
   ------------------------------------------------------------------------

         :::::::::::::::::::::::::::::::::::::::::::::::::::::
         ::                  THERMODYNAMIC                  ::
         :::::::::::::::::::::::::::::::::::::::::::::::::::::
         :: total free energy         -23.030557419155 Eh   ::
         ::.................................................::
         :: total energy              -23.124800699258 Eh   ::
         :: zero point energy           0.128451958449 Eh   ::
         :: G(RRHO) w/o ZPVE           -0.034208678345 Eh   ::
         :: G(RRHO) contrib.            0.094243280104 Eh   ::
         :::::::::::::::::::::::::::::::::::::::::::::::::::::

optimized geometry written to: xtbopt.coord


           -------------------------------------------------
          | TOTAL ENERGY              -23.124800699258 Eh   |
          | TOTAL ENTHALPY            -22.987825286339 Eh   |
          | TOTAL FREE ENERGY         -23.030557419155 Eh   |
          | GRADIENT NORM               0.000022971207 Eh/α |
          | HOMO-LUMO GAP               4.348613414234 eV   |
           -------------------------------------------------

------------------------------------------------------------------------
 * finished run on 2025/04/15 at 19:05:45.534     
------------------------------------------------------------------------
 total:
 * wall-time:     0 d,  0 h,  0 min,  0.652 sec
 *  cpu-time:     0 d,  0 h,  0 min,  0.623 sec
 * ratio c/w:     0.956 speedup
 SCF:
 * wall-time:     0 d,  0 h,  0 min,  0.035 sec
 *  cpu-time:     0 d,  0 h,  0 min,  0.015 sec
 * ratio c/w:     0.428 speedup
 ANC optimizer:
 * wall-time:     0 d,  0 h,  0 min,  0.051 sec
 *  cpu-time:     0 d,  0 h,  0 min,  0.049 sec
 * ratio c/w:     0.965 speedup
 analytical hessian:
 * wall-time:     0 d,  0 h,  0 min,  0.548 sec
 *  cpu-time:     0 d,  0 h,  0 min,  0.547 sec
 * ratio c/w:     0.999 speedup

