17
 energy: -326.817104314798 gnorm: 0.024629765699 xtb: 6.7.1 (edcfbbe)
C            2.75944735782278       -0.00010210090005       -0.73235975622453
C            1.98930306518151        0.00013576190006        0.59006854976147
C            0.51240114062706        0.00004690940002        0.32892825654576
C           -0.19469532898627        1.18797006592642        0.17984042117969
C           -1.54959256188667        1.13126426920129       -0.10216544524527
N           -2.21928014938342       -0.00005651720003       -0.24156499470704
C           -1.54952609898664       -1.13131830580132       -0.10202199654521
C           -0.19460753078624       -1.18793223512640        0.17992451647973
H            2.50834218671151       -0.88228018369096       -1.31722662768370
H            3.83091176659758        0.00049839560022       -0.54676450614229
H            2.50749386721114        0.88135327619055       -1.31797306448403
H            2.26277811430270        0.88598933159261        1.16688407311708
H            2.26285330020273       -0.88552264159240        1.16713550871719
H            0.30375025623460        2.14018530684837        0.28579866522664
H           -2.13221785414484        2.03571498920208       -0.22235694169853
H           -2.13204442264477       -2.03580157380212       -0.22240507589855
H            0.30390887643467       -2.14011850984834        0.28579426682664
17
 energy: -326.818008059381 gnorm: 0.007526902178 xtb: 6.7.1 (edcfbbe)
C            2.77079793998894       -0.00007846258979       -0.73526297980484
C            1.99062040179530        0.00012361203649        0.58635809309196
C            0.50905902700746        0.00004401855648        0.33884915612440
C           -0.19999811627952        1.19018669708303        0.18475110715987
C           -1.55815434555236        1.13773115831660       -0.10422956774819
N           -2.23676949535803       -0.00006128497956       -0.24667492625241
C           -1.55805384158861       -1.13779714703998       -0.10427097884749
C           -0.19990292916877       -1.19015383706055        0.18477086117695
H            2.51986035451766       -0.88362856332642       -1.32723105374383
H            3.84818224804790        0.00045300534830       -0.55405167569962
H            2.51911179938201        0.88278191321681       -1.32794874546072
H            2.26389978153488        0.88290525043388        1.17270254274774
H            2.26396302780056       -0.88243961624487        1.17300232269642
H            0.30165834637700        2.14656960128467        0.29165919815331
H           -2.13349975564286        2.05344262085149       -0.22233869712277
H           -2.13335439680625       -2.05354882870437       -0.22226822156515
H            0.30180612297213       -2.14650399492650        0.29171947586254
17
 energy: -326.818101507028 gnorm: 0.001583114087 xtb: 6.7.1 (edcfbbe)
C            2.77583952265671       -0.00008084169751       -0.73632279390551
C            1.99238146215015        0.00013014459538        0.58447854056850
C            0.50961605458014        0.00004776069824        0.33532734091456
C           -0.20316814278811        1.18981060192158        0.18538701649714
C           -1.56304524552658        1.13877021883195       -0.10212522058857
N           -2.24731655415910       -0.00006865122304       -0.24788187354947
C           -1.56296419017634       -1.13884751931752       -0.10204350058867
C           -0.20307260052137       -1.18977600814086        0.18542954206316
H            2.52794632793299       -0.88418378837540       -1.33203588985742
H            3.85429323169613        0.00037794600227       -0.55215255777435
H            2.52730530105687        0.88340670294067       -1.33268176789398
H            2.26555057853216        0.88203166479301        1.17457525480808
H            2.26561409443624       -0.88154076788401        1.17489368499803
H            0.29791225385305        2.14829445233115        0.29373402179925
H           -2.13295677753135        2.05965027896768       -0.22142848524846
H           -2.13278617372953       -2.05977459894352       -0.22141312275810
H            0.29807710250887       -2.14822157979729        0.29379568855372
17
 energy: -326.818112185113 gnorm: 0.000912598509 xtb: 6.7.1 (edcfbbe)
C            2.77973256376498       -0.00007926572482       -0.73614808231245
C            1.99272586782062        0.00013463038805        0.58220073233392
C            0.50942555426756        0.00005102473371        0.33437190528060
C           -0.20487538704979        1.18906745274735        0.18422399614759
C           -1.56475917072590        1.13792120327860       -0.10237611796809
N           -2.25198253086015       -0.00007621220562       -0.24727707145152
C           -1.56464490708556       -1.13800943601726       -0.10241304381899
C           -0.20477003138205       -1.18903249123885        0.18425794959732
H            2.53396636644941       -0.88421830479562       -1.33263038172358
H            3.85762445928552        0.00029961653788       -0.54874527375736
H            2.53344466547105        0.88352129486274       -1.33321362816616
H            2.26547350959176        0.88210710717841        1.17257062115583
H            2.26553813344536       -0.88159930584658        1.17289924109357
H            0.29414619952675        2.14850025573474        0.29301348482226
H           -2.13315663730969        2.06004624646947       -0.21719845518017
H           -2.13298742965586       -2.06018669099462       -0.21710025011391
H            0.29432504417735       -2.14842124048899        0.29310016310941
17
 energy: -326.818115412344 gnorm: 0.000580035028 xtb: 6.7.1 (edcfbbe)
C            2.78186828344718       -0.00007868436954       -0.73590192559838
C            1.99242894249228        0.00014107168630        0.58069839817496
C            0.50960269892898        0.00005536706653        0.33119579845933
C           -0.20546500097846        1.18855231444098        0.18291707581876
C           -1.56570109974289        1.13725956548441       -0.10029405891391
N           -2.25367692621729       -0.00008474669573       -0.24458844991247
C           -1.56560395993078       -1.13735917394382       -0.10019704264245
C           -0.20535466800750       -1.18851573436349        0.18297571818236
H            2.53830788613598       -0.88412793211479       -1.33289630105899
H            3.85895357316552        0.00021981745216       -0.54483143879995
H            2.53790955334908        0.88351023819129       -1.33341702002633
H            2.26414290312006        0.88212489709433        1.17123358930066
H            2.26420291810793       -0.88160140179528        1.17156807480355
H            0.29210881347411        2.14854435356474        0.29074633234132
H           -2.13350258990656        2.05951987756267       -0.21527695555671
H           -2.13330293477615       -2.05967577077158       -0.21523007546034
H            0.29230788818508       -2.14845828625626        0.29083398179639
17
 energy: -326.818115412344 gnorm: 0.000580035028 xtb: 6.7.1 (edcfbbe)
C            2.78186828344718       -0.00007868436954       -0.73590192559838
C            1.99242894249228        0.00014107168630        0.58069839817496
C            0.50960269892898        0.00005536706653        0.33119579845933
C           -0.20546500097846        1.18855231444098        0.18291707581876
C           -1.56570109974289        1.13725956548441       -0.10029405891391
N           -2.25367692621729       -0.00008474669573       -0.24458844991247
C           -1.56560395993078       -1.13735917394382       -0.10019704264245
C           -0.20535466800750       -1.18851573436349        0.18297571818236
H            2.53830788613598       -0.88412793211479       -1.33289630105899
H            3.85895357316552        0.00021981745216       -0.54483143879995
H            2.53790955334908        0.88351023819129       -1.33341702002633
H            2.26414290312006        0.88212489709433        1.17123358930066
H            2.26420291810793       -0.88160140179528        1.17156807480355
H            0.29210881347411        2.14854435356474        0.29074633234132
H           -2.13350258990656        2.05951987756267       -0.21527695555671
H           -2.13330293477615       -2.05967577077158       -0.21523007546034
H            0.29230788818508       -2.14845828625626        0.29083398179639
