
                                 *****************
                                 * O   R   C   A *
                                 *****************

                                            #,                                       
                                            ###                                      
                                            ####                                     
                                            #####                                    
                                            ######                                   
                                           ########,                                 
                                     ,,################,,,,,                         
                               ,,#################################,,                 
                          ,,##########################################,,             
                       ,#########################################, ''#####,          
                    ,#############################################,,   '####,        
                  ,##################################################,,,,####,       
                ,###########''''           ''''###############################       
              ,#####''   ,,,,##########,,,,          '''####'''          '####       
            ,##' ,,,,###########################,,,                        '##       
           ' ,,###''''                  '''############,,,                           
         ,,##''                                '''############,,,,        ,,,,,,###''
      ,#''                                            '''#######################'''  
     '                                                          ''''####''''         
             ,#######,   #######,   ,#######,      ##                                
            ,#'     '#,  ##    ##  ,#'     '#,    #''#        ,####,   ,####,        
            ##       ##  ##   ,#'  ##            #'  '#       #'       #'  '#        
            ##       ##  #######   ##           ,######,      #####,   #    #        
            '#,     ,#'  ##    ##  '#,     ,#' ,#      #,     #,   #   #,  ,#        
             '#######'   ##     ##  '#######'  #'      '#     '####' # '####'        



                #########################################################
                #                        -***-                          #
                #          Department of theory and spectroscopy        #
                #                                                       #
                #                      Frank Neese                      #
                #                                                       #
                #     Directorship, Architecture, Infrastructure        #
                #                    SHARK, DRIVERS                     #
                #        Core code/Algorithms in most modules           #
                #                                                       #
                #        Max Planck Institute fuer Kohlenforschung      #
                #                Kaiser Wilhelm Platz 1                 #
                #                 D-45470 Muelheim/Ruhr                 #
                #                      Germany                          #
                #                                                       #
                #                  All rights reserved                  #
                #                        -***-                          #
                #########################################################


                         Program Version 6.0.1  -  RELEASE   -


 With contributions from (in alphabetic order):
[Max-Planck-Institut fuer Kohlenforschung]                               
  Daniel Aravena         : Magnetic Suceptibility                        
  Michael Atanasov       : Ab Initio Ligand Field Theory (pilot matlab implementation)
  Alexander A. Auer      : GIAO ZORA, VPT2 properties, NMR spectrum      
  Ute Becker             : All parallelization in ORCA, NUMFREQ, NUMCALC 
  Giovanni Bistoni       : ED, misc. LED, open-shell LED, HFLD           
  Martin Brehm           : Molecular dynamics                            
  Dmytro Bykov           : pre 5.0 version of the SCF Hessian            
  Marcos Casanova-Páez   : Triplet and SCS-CIS(D). UHF-(DLPNO)-IP/EA/STEOM-CCSD. UHF-CVS-IP/STEOM-CCSD   
  Vijay G. Chilkuri      : MRCI spin determinant printing, contributions to CSF-ICE 
  Pauline Colinet        : FMM embedding                                 
  Dipayan Datta          : RHF DLPNO-CCSD density                        
  Achintya Kumar Dutta   : EOM-CC, STEOM-CC                              
  Nicolas Foglia         : Exact transition moments, OPA infrastructure, MCD improvements    
  Dmitry Ganyushin       : Spin-Orbit,Spin-Spin,Magnetic field MRCI      
  Miquel Garcia-Rates    : C-PCM and meta-GGA Hessian, CCSD/C-PCM, Gaussian charge scheme 
  Tiago L. C. Gouveia    : GS-ROHF, GS-ROCIS                             
  Yang Guo               : DLPNO-NEVPT2, F12-NEVPT2, CIM, IAO-localization        
  Andreas Hansen         : Spin unrestricted coupled pair/coupled cluster methods 
  Ingolf Harden          : AUTO-CI MPn and infrastructure                
  Benjamin Helmich-Paris : MC-RPA, TRAH-(SCF,CASSCF), AVAS, COSX integrals, SCF dyn. polar. 
  Lee Huntington         : MR-EOM, pCC                                   
  Robert Izsak           : Overlap fitted RIJCOSX, COSX-SCS-MP3, EOM     
  Riya Kayal             : Wick's Theorem for AUTO-CI, AUTO-CI UHF-CCSDT 
  Emily Kempfer          : AUTO-CI, RHF CISDT and CCSDT                  
  Christian Kollmar      : KDIIS, OOCD, Brueckner-CCSD(T), CCSD density, CASPT2, CASPT2-K, improved NEVPT2 
  Axel Koslowski         : Symmetry handling                             
  Simone Kossmann        : meta-GGA functionals, TD-DFT gradient, OOMP2, (MP2 Hessian; deprecated post 5.0) 
  Lucas Lang             : DCDCAS                                        
  Marvin Lechner         : AUTO-CI (C++ implementation), FIC-MRCC        
  Spencer Leger          : CASSCF response                               
  Dagmar Lenk            : GEPOL surface, SMD, ORCA-2-JSON               
  Dimitrios Liakos       : Extrapolation schemes; Compound Job, initial MDCI parallelization 
  Dimitrios Manganas     : Further ROCIS development; embedding schemes. LFT, Crystal Embedding 
  Dimitrios Pantazis     : SARC Basis sets                               
  Anastasios Papadopoulos: AUTO-CI, single reference methods and gradients 
  Taras Petrenko         : pre 6.0 DFT Hessian and TD-DFT gradient, (ASA, deprecated), ECA, 1-Electron XAS/XES, NRVS 
  Peter Pinski           : DLPNO-MP2, DLPNO-MP2 Gradient                 
  Christoph Reimann      : Effective Core Potentials                     
  Marius Retegan         : Local ZFS, SOC                                
  Christoph Riplinger    : Optimizer, TS searches, QM/MM, DLPNO-CCSD(T), (RO)-DLPNO pert. Triples 
  Michael Roemelt        : Original ROCIS implementation                 
  Masaaki Saitow         : Open-shell DLPNO-CCSD energy and density      
  Barbara Sandhoefer     : DKH picture change effects                    
  Kantharuban Sivalingam : CASSCF convergence/infrastructure, NEVPT2 and variants, FIC-MRCI 
  Bernardo de Souza      : ESD, SOC TD-DFT                               
  Georgi L. Stoychev     : AutoAux, RI-MP2 NMR, DLPNO-MP2 response, X2C  
  Van Anh Tran           : RI-MP2 g-tensors                              
  Willem Van den Heuvel  : Paramagnetic NMR                              
  Zikuan Wang            : NOTCH, Electric field optimization            
  Frank Wennmohs         : Technical directorship and infrastructure     
  Hang Xu                : AUTO-CI-Response properties                   
                                                                         
[FACCTs GmbH]                                                            
  Markus Bursch, Miquel Garcia-Rates, Christoph Riplinger, Bernardo de Souza, Georgi L. Stoychev 
                                                                 
  APM, Basis sets (HGBS, AHGBS, def-TZVP (Ac-Lr), def2-XVPD (La-Lu)), CI-OPT, improved COSX, DLPNO-Multilevel,           
  DOCKER, DRACO, updates on ESD, GOAT, IRC, LR-CPCM, MBIS, meta-GGA TD-DFT gradient, ML-optimized integration grids, 
  MM, NACMEs, nearIR, NEB, NEB-TS, NL-DFT gradient (VV10), 2- and 3-layer-ONIOM, interface openCOSMO-RS, QMMM,   
  Crystal-QMMM, SF, symmetry and pop. for TD-DFT, r2SCAN hybrids, SOLVATOR                                   
                                                                         
[Other institutions]                                                     
  V. Asgeirsson          : NEB                                           
  Christoph Bannwarth    : sTDA-DFT, sTD-DFT, PBEh-3c, B97-3c, D3        
  Sebastian Ehlert       : rSCAN, r2SCAN, r2SCAN-3c, D4, dhf basis sets  
  Marvin Friede          : D4 for Fr, Ra, Ac-Lr                          
  Lars Goerigk           : TD-DFT with DH, B97 family of functionals     
  Stefan Grimme          : VdW corrections, initial TS optimization, DFT functionals, gCP, sTDA/sTD-DF 
  Waldemar Hujo          : DFT-NL                                        
  H. Jonsson             : NEB                                           
  Holger Kruse           : gCP                                           
  Marcel Mueller         : wB97X-3c, vDZP basis set                      
  Hagen Neugebauer       : wr2SCAN                                       
  Tobias Risthaus        : range-separated hybrid DFT                    
  Lukas Wittmann         : regularized MP2, r2SCAN double-hybrids, wr2SCAN        
                                                                         
We gratefully acknowledge several colleagues who have allowed us to      
interface, adapt or use parts of their codes:                            
  Ed Valeev, F. Pavosevic, A. Kumar             : LibInt (2-el integral package), F12 methods 
  Garnet Chan, S. Sharma, J. Yang, R. Olivares  : DMRG                   
  Ulf Ekstrom                                   : XCFun DFT Library      
  Mihaly Kallay                                 : mrcc  (arbitrary order and MRCC methods)
  Frank Weinhold                                : gennbo (NPA and NBO analysis)           
  Simon Mueller                                 : openCOSMO-RS                            
  Christopher J. Cramer and Donald G. Truhlar   : smd solvation model                     
  S Lehtola, MJT Oliveira, MAL Marques          : LibXC Library                           
  Liviu Ungur et al                             : ANISO software                          


 Your calculation uses the libint2 library for the computation of 2-el integrals
 For citations please refer to: http://libint.valeyev.net

 Your ORCA version has been built with support for libXC version: 6.2.2
 For citations please refer to: https://libxc.gitlab.io

 This ORCA versions uses:
   CBLAS   interface :  Fast vector & matrix operations
   LAPACKE interface :  Fast linear algebra routines
   SCALAPACK package :  Parallel linear algebra routines
   Shared memory     :  Shared parallel matrices
   BLAS/LAPACK       :  OpenBLAS 0.3.27  USE64BITINT DYNAMIC_ARCH NO_AFFINITY Zen SINGLE_THREADED
        Core in use  :  Zen
   Copyright (c) 2011-2014, The OpenBLAS Project


Your calculation utilizes the geometrical counterpoise correction gCP
Please cite in your paper:
H.Kruse, S. Grimme J.Chem.Phys., 136, (2012), 154101 
   

Your calculation utilizes the atom-pairwise dispersion correction
based on EEQ partial charges (D4)


================================================================================

----- Orbital basis set information -----
Your calculation utilizes the basis: def2-SV(P)
   F. Weigend and R. Ahlrichs, Phys. Chem. Chem. Phys. 7, 3297 (2005).

----- AuxJ basis set information -----
Your calculation utilizes the auxiliary basis: def2/J
   F. Weigend, Phys. Chem. Chem. Phys. 8, 1057 (2006).

================================================================================
                                        WARNINGS
                       Please study these warnings very carefully!
================================================================================


================================================================================
                                       INPUT FILE
================================================================================
NAME = sp.inp
|  1> ! pbe def2-sv(p) def2/J RI DEFGRID1 loosescf d4 GCP(DFT/SV(P)) printgap
|  2> %output
|  3>     printlevel normal
|  4> end
|  5> * xyz 0 1
|  6> C -3.1731434983 0.1767467231 -0.0080832762
|  7> O -1.9622029083 0.8894971362 0.0056952672
|  8> C -0.7923979871 0.1830051925 0.0022972989
|  9> C -0.7006792374 -1.2040484365 -0.0027992504
| 10> C 0.5521378739 -1.7976040531 -0.0006024819
| 11> C 1.7041651066 -1.0418139837 0.0071396867
| 12> C 1.6208027777 0.3528306579 0.0106193532
| 13> C 0.3670197719 0.9515047306 0.0116221995
| 14> N 2.7641738873 1.1245244827 -0.0565666036
| 15> H -3.9596183541 0.9302500513 -0.0080987862
| 16> H -3.2796699589 -0.455406418 0.8799312758
| 17> H -3.2667028004 -0.4422572329 -0.9065950154
| 18> H -1.5808718824 -1.826069562 -0.0070923513
| 19> H 0.6223144234 -2.8756970913 -0.002109414
| 20> H 2.6734854925 -1.5182278226 0.0081995816
| 21> H 0.2721702612 2.026529343 0.0156984788
| 22> H 2.6670252748 2.0857787377 0.2275956758
| 23> H 3.6164277015 0.6825269712 0.2475217515
| 24> *
| 25> 
| 26>                          ****END OF INPUT****
================================================================================

                       ****************************
                       * Single Point Calculation *
                       ****************************

---------------------------------
CARTESIAN COORDINATES (ANGSTROEM)
---------------------------------
  C     -3.173143    0.176747   -0.008083
  O     -1.962203    0.889497    0.005695
  C     -0.792398    0.183005    0.002297
  C     -0.700679   -1.204048   -0.002799
  C      0.552138   -1.797604   -0.000602
  C      1.704165   -1.041814    0.007140
  C      1.620803    0.352831    0.010619
  C      0.367020    0.951505    0.011622
  N      2.764174    1.124524   -0.056567
  H     -3.959618    0.930250   -0.008099
  H     -3.279670   -0.455406    0.879931
  H     -3.266703   -0.442257   -0.906595
  H     -1.580872   -1.826070   -0.007092
  H      0.622314   -2.875697   -0.002109
  H      2.673485   -1.518228    0.008200
  H      0.272170    2.026529    0.015698
  H      2.667025    2.085779    0.227596
  H      3.616428    0.682527    0.247522

----------------------------
CARTESIAN COORDINATES (A.U.)
----------------------------
  NO LB      ZA    FRAG     MASS         X           Y           Z
   0 C     6.0000    0    12.011   -5.996372    0.334003   -0.015275
   1 O     8.0000    0    15.999   -3.708026    1.680906    0.010762
   2 C     6.0000    0    12.011   -1.497415    0.345830    0.004341
   3 C     6.0000    0    12.011   -1.324092   -2.275322   -0.005290
   4 C     6.0000    0    12.011    1.043389   -3.396979   -0.001139
   5 C     6.0000    0    12.011    3.220405   -1.968743    0.013492
   6 C     6.0000    0    12.011    3.062873    0.666753    0.020068
   7 C     6.0000    0    12.011    0.693567    1.798083    0.021963
   8 N     7.0000    0    14.007    5.223532    2.125043   -0.106895
   9 H     1.0000    0     1.008   -7.482594    1.757918   -0.015304
  10 H     1.0000    0     1.008   -6.197678   -0.860593    1.662829
  11 H     1.0000    0     1.008   -6.173174   -0.835745   -1.713216
  12 H     1.0000    0     1.008   -2.987415   -3.450771   -0.013403
  13 H     1.0000    0     1.008    1.176004   -5.434280   -0.003986
  14 H     1.0000    0     1.008    5.052155   -2.869035    0.015495
  15 H     1.0000    0     1.008    0.514327    3.829585    0.029666
  16 H     1.0000    0     1.008    5.039947    3.941551    0.430093
  17 H     1.0000    0     1.008    6.834058    1.289789    0.467748

--------------------------------
INTERNAL COORDINATES (ANGSTROEM)
--------------------------------
 C      0   0   0     0.000000000000     0.00000000     0.00000000
 O      1   0   0     1.405197534919     0.00000000     0.00000000
 C      2   1   0     1.366596489958   118.38662905     0.00000000
 C      3   2   1     1.390092109748   124.91286919   359.44113925
 C      4   3   2     1.386313027478   119.13303912   180.24813921
 C      5   4   3     1.377840816299   121.38252771     0.03064370
 C      6   5   4     1.397138168651   119.84659127   359.88975581
 C      7   6   5     1.389382408359   118.94489471     0.25764385
 N      7   6   5     1.381058581775   120.54758656   183.61193563
 H      1   2   3     1.089178573355   105.74502620   180.30800695
 H      1   2   3     1.095233000404   111.63117515    61.64761496
 H      1   2   3     1.095099349846   111.61557153   298.97900730
 H      4   3   2     1.077806941709   121.46566892     0.16612600
 H      5   4   3     1.080375683713   119.07460296   179.85082768
 H      6   5   4     1.080070960536   120.55907118   180.03476163
 H      8   7   6     1.079208489125   120.56628924   179.91328368
 H      9   7   6     1.007072885495   116.08835880   197.96608781
 H      9   7   6     1.007059130190   116.14837980   337.04403109

---------------------------
INTERNAL COORDINATES (A.U.)
---------------------------
 C      0   0   0     0.000000000000     0.00000000     0.00000000
 O      1   0   0     2.655438505058     0.00000000     0.00000000
 C      2   1   0     2.582493101599   118.38662905     0.00000000
 C      3   2   1     2.626893388348   124.91286919   359.44113925
 C      4   3   2     2.619751957821   119.13303912   180.24813921
 C      5   4   3     2.603741798944   121.38252771     0.03064370
 C      6   5   4     2.640208509999   119.84659127   359.88975581
 C      7   6   5     2.625552247086   118.94489471     0.25764385
 N      7   6   5     2.609822494456   120.54758656   183.61193563
 H      1   2   3     2.058249214575   105.74502620   180.30800695
 H      1   2   3     2.069690423597   111.63117515    61.64761496
 H      1   2   3     2.069437860644   111.61557153   298.97900730
 H      4   3   2     2.036759945069   121.46566892     0.16612600
 H      5   4   3     2.041614163966   119.07460296   179.85082768
 H      6   5   4     2.041038320615   120.55907118   180.03476163
 H      8   7   6     2.039408485849   120.56628924   179.91328368
 H      9   7   6     1.903091950484   116.08835880   197.96608781
 H      9   7   6     1.903065956723   116.14837980   337.04403109

---------------------
BASIS SET INFORMATION
---------------------
There are 4 groups of distinct atoms

 Group   1 Type C   : 7s4p1d contracted to 3s2p1d pattern {511/31/1}
 Group   2 Type O   : 7s4p1d contracted to 3s2p1d pattern {511/31/1}
 Group   3 Type N   : 7s4p1d contracted to 3s2p1d pattern {511/31/1}
 Group   4 Type H   : 4s contracted to 2s pattern {31}

Atom   0C    basis set group =>   1
Atom   1O    basis set group =>   2
Atom   2C    basis set group =>   1
Atom   3C    basis set group =>   1
Atom   4C    basis set group =>   1
Atom   5C    basis set group =>   1
Atom   6C    basis set group =>   1
Atom   7C    basis set group =>   1
Atom   8N    basis set group =>   3
Atom   9H    basis set group =>   4
Atom  10H    basis set group =>   4
Atom  11H    basis set group =>   4
Atom  12H    basis set group =>   4
Atom  13H    basis set group =>   4
Atom  14H    basis set group =>   4
Atom  15H    basis set group =>   4
Atom  16H    basis set group =>   4
Atom  17H    basis set group =>   4
---------------------------------
AUXILIARY/J BASIS SET INFORMATION
---------------------------------
There are 4 groups of distinct atoms

 Group   1 Type C   : 12s5p4d2f1g contracted to 6s4p3d1f1g pattern {711111/2111/211/2/1}
 Group   2 Type O   : 12s5p4d2f1g contracted to 6s4p3d1f1g pattern {711111/2111/211/2/1}
 Group   3 Type N   : 12s5p4d2f1g contracted to 6s4p3d1f1g pattern {711111/2111/211/2/1}
 Group   4 Type H   : 5s2p1d contracted to 3s1p1d pattern {311/2/1}

Atom   0C    basis set group =>   1
Atom   1O    basis set group =>   2
Atom   2C    basis set group =>   1
Atom   3C    basis set group =>   1
Atom   4C    basis set group =>   1
Atom   5C    basis set group =>   1
Atom   6C    basis set group =>   1
Atom   7C    basis set group =>   1
Atom   8N    basis set group =>   3
Atom   9H    basis set group =>   4
Atom  10H    basis set group =>   4
Atom  11H    basis set group =>   4
Atom  12H    basis set group =>   4
Atom  13H    basis set group =>   4
Atom  14H    basis set group =>   4
Atom  15H    basis set group =>   4
Atom  16H    basis set group =>   4
Atom  17H    basis set group =>   4
------------------------------------------------------------------------------
                             ORCA STARTUP CALCULATIONS
                           -- RI-GTO INTEGRALS CHOSEN --
------------------------------------------------------------------------------
------------------------------------------------------------------------------
                   ___                                                        
                  /   \      - P O W E R E D   B Y -                         
                 /     \                                                     
                 |  |  |   _    _      __       _____    __    __             
                 |  |  |  | |  | |    /  \     |  _  \  |  |  /  |          
                  \  \/   | |  | |   /    \    | | | |  |  | /  /          
                 / \  \   | |__| |  /  /\  \   | |_| |  |  |/  /          
                |  |  |   |  __  | /  /__\  \  |    /   |      \           
                |  |  |   | |  | | |   __   |  |    \   |  |\   \          
                \     /   | |  | | |  |  |  |  | |\  \  |  | \   \       
                 \___/    |_|  |_| |__|  |__|  |_| \__\ |__|  \__/        
                                                                              
                      - O R C A' S   B I G   F R I E N D -                    
                                      &                                       
                       - I N T E G R A L  F E E D E R -                       
                                                                              
 v1 FN, 2020, v2 2021, v3 2022-2024                                           
------------------------------------------------------------------------------


----------------------
SHARK INTEGRAL PACKAGE
----------------------

Number of atoms                             ...     18
Number of basis functions                   ...    144
Number of shells                            ...     72
Maximum angular momentum                    ...      2
Integral batch strategy                     ... SHARK/LIBINT Hybrid
RI-J (if used) integral strategy            ... SPLIT-RIJ (Revised 2003 algorithm where possible)
Printlevel                                  ...      1
Contraction scheme used                     ... SEGMENTED contraction
Prescreening option                         ... SCHWARTZ
   Thresh                                   ... 1.000e-09
   Tcut                                     ... 1.000e-10
   Tpresel                                  ... 1.000e-10 
Coulomb Range Separation                    ... NOT USED
Exchange Range Separation                   ... NOT USED
Multipole approximations                    ... NOT USED
Finite Nucleus Model                        ... NOT USED
CABS basis                                  ... NOT available
Auxiliary Coulomb fitting basis             ... AVAILABLE
   # of basis functions in Aux-J            ...    540
   # of shells in Aux-J                     ...    180
   Maximum angular momentum in Aux-J        ...      4
Auxiliary J/K fitting basis                 ... NOT available
Auxiliary Correlation fitting basis         ... NOT available
Auxiliary 'external' fitting basis          ... NOT available

Checking pre-screening integrals            ... done (  0.0 sec) Dimension = 72
Check shell pair data                       ... done (  0.0 sec)
Shell pair information
Shell pair cut-off parameter TPreSel        ...   1.0e-10
Total number of shell pairs                 ...      2628
Shell pairs after pre-screening             ...      2426
Total number of primitive shell pairs       ...     10584
Primitive shell pairs kept                  ...      6840
          la=0 lb=0:    931 shell pairs
          la=1 lb=0:    771 shell pairs
          la=1 lb=1:    169 shell pairs
          la=2 lb=0:    360 shell pairs
          la=2 lb=1:    155 shell pairs
          la=2 lb=2:     40 shell pairs

Calculating one electron integrals          ... done (  0.0 sec)
Calculating RI/J V-Matrix + Cholesky decomp.... done (  0.0 sec)
Calculating Nuclear repulsion               ... done (  0.0 sec) ENN=    427.760372713662 Eh

Diagonalization of the overlap matrix:
Smallest eigenvalue                        ... 2.407e-04
Time for diagonalization                   ...    0.003 sec
Threshold for overlap eigenvalues          ... 1.000e-07
Number of eigenvalues below threshold      ... 0
Time for construction of square roots      ...    0.005 sec
Total time needed                          ...    0.011 sec

-------------------
DFT GRID GENERATION
-------------------

General Integration Accuracy     IntAcc      ... 4.159
Radial Grid Type                 RadialGrid  ... OptM3 with GC (2021)
Angular Grid (max. ang.)         AngularGrid ... 3 (Lebedev-194)
Angular grid pruning method      GridPruning ... 4 (adaptive)
Weight generation scheme         WeightScheme... mBecke (2022)
Basis function cutoff            BFCut       ... 1.0000e-10
Integration weight cutoff        WCut        ... 1.0000e-14
Partially contracted basis set               ... off
Rotationally invariant grid construction     ... off
Angular grids for H and He will be reduced by one unit

Total number of grid points                  ...    42114
Total number of batches                      ...      669
Average number of points per batch           ...       62
Average number of grid points per atom       ...     2340
Initializing property integral containers    ... done (  0.0 sec)

SHARK setup successfully completed in   0.6 seconds

Maximum memory used throughout the entire STARTUP-calculation: 21.2 MB
-------------------------------------------------------------------------------
                                 ORCA GUESS
                   Start orbitals & Density for SCF / CASSCF
-------------------------------------------------------------------------------

------------
SCF SETTINGS
------------
Hamiltonian:
 Density Functional     Method          .... DFT(GTOs)
 Exchange Functional    Exchange        .... PBE
   PBE kappa parameter   XKappa         ....  0.804000
   PBE mue parameter    XMuePBE         ....  0.219520
 Correlation Functional Correlation     .... PBE
   PBE beta parameter  CBetaPBE         ....  0.066725
 LDA part of GGA corr.  LDAOpt          .... PW91-LDA
 Gradients option       PostSCFGGA      .... off
   NL short-range parameter             ....  6.400000
 RI-approximation to the Coulomb term is turned on
   Number of AuxJ basis functions       .... 540


General Settings:
 Integral files         IntName         .... sp
 Hartree-Fock type      HFTyp           .... RHF
 Total Charge           Charge          ....    0
 Multiplicity           Mult            ....    1
 Number of Electrons    NEL             ....   66
 Basis Dimension        Dim             ....  144
 Nuclear Repulsion      ENuc            ....    427.7603727137 Eh

Convergence Acceleration:
 AO-DIIS                CNVDIIS         .... on
   Start iteration      DIISMaxIt       ....    12
   Startup error        DIISStart       ....  0.200000
   # of expansion vecs  DIISMaxEq       ....     5
   Bias factor          DIISBfac        ....   1.050
   Max. coefficient     DIISMaxC        ....  10.000
 MO-DIIS                CNVKDIIS        .... off
 Trust-Rad. Augm. Hess. CNVTRAH         .... auto
   Auto Start mean grad. ratio tolernc. ....  1.125000
   Auto Start start iteration           ....    50
   Auto Start num. interpolation iter.  ....    10
   Max. Number of Micro iterations      ....    24
   Max. Number of Macro iterations      .... Maxiter - #DIIS iter
   Number of Davidson start vectors     ....     2
   Converg. threshold    (grad. norm)   ....   1.000e-04
   Grad. Scal. Fac. for Micro threshold ....   0.100
   Minimum threshold for Micro iter.    ....   1.000e-02
   NR start threshold (gradient norm)   ....   1.000e-04
   Initial trust radius                 ....   0.400
   Minimum AH scaling param. (alpha)    ....   1.000
   Maximum AH scaling param. (alpha)    .... 1000.000
   Quad. conv. algorithm                .... NR
   White noise on init. David. guess    .... on
   Maximum white noise                  ....   0.010
   Pseudo random numbers                .... off
   Inactive MOs                         .... canonical
   Orbital update algorithm             .... Taylor
   Preconditioner                       .... Diag
   Full preconditioner red. dimension   ....   250
 SOSCF                  CNVSOSCF        .... on
   Start iteration      SOSCFMaxIt      ....   150
   Startup grad/error   SOSCFStart      ....  0.003300
   Hessian update       SOSCFHessUp     .... L-BFGS
 Level Shifting         CNVShift        .... on
   Level shift para.    LevelShift      ....    0.2500
   Turn off err/grad.   ShiftErr        ....    0.0010
 Zerner damping         CNVZerner       .... off
 Static damping         CNVDamp         .... on
   Fraction old density DampFac         ....    0.7000
   Max. Damping (<1)    DampMax         ....    0.9800
   Min. Damping (>=0)   DampMin         ....    0.0000
   Turn off err/grad.   DampErr         ....    0.1000

SCF Procedure:
 Maximum # iterations   MaxIter         ....   125
 SCF integral mode      SCFMode         .... Direct
   Integral package                     .... SHARK and LIBINT hybrid scheme
 Reset frequency        DirectResetFreq ....    20
 Integral Threshold     Thresh          ....  1.000e-09 Eh
 Primitive CutOff       TCut            ....  1.000e-10 Eh

Convergence Tolerance:
 Convergence Check Mode ConvCheckMode   .... Total+1el-Energy
 Convergence forced     ConvForced      .... 0
 Energy Change          TolE            ....  1.000e-05 Eh
 1-El. energy change                    ....  1.000e-02 Eh
 Orbital Gradient       TolG            ....  1.000e-04
 Orbital Rotation angle TolX            ....  1.000e-04
 DIIS Error             TolErr          ....  5.000e-04

------------------------------
INITIAL GUESS: MODEL POTENTIAL
------------------------------
Loading Hartree-Fock densities                     ... done
Calculating cut-offs                               ... done
Initializing the effective Hamiltonian             ... done
Setting up the integral package (SHARK)            ... done
Starting the Coulomb interaction                   ... done (   0.4 sec)
Making the grid                                    ... done (   0.5 sec)
Mapping shells                                     ... done
Starting the XC term evaluation                    ... done (   0.3 sec)
  promolecular density results
     # of electrons  =     65.992913261
     EX              =    -53.193931047
     EC              =     -2.194487134
     EX+EC           =    -55.388418181
Transforming the Hamiltonian                       ... done (   0.0 sec)
Diagonalizing the Hamiltonian                      ... done (   0.0 sec)
Back transforming the eigenvectors                 ... done (   0.0 sec)
Now organizing SCF variables                       ... done
                      ------------------
                      INITIAL GUESS DONE (   1.3 sec)
                      ------------------
             **** ENERGY FILE WAS UPDATED (sp.en.tmp) ****
Finished Guess after   2.3 sec
Maximum memory used throughout the entire GUESS-calculation: 16.5 MB

-------------------------------------------------------------------------------------------
                                      ORCA LEAN-SCF
                              memory conserving SCF solver
-------------------------------------------------------------------------------------------

----------------------------------------D-I-I-S--------------------------------------------
Iteration    Energy (Eh)           Delta-E    RMSDP     MaxDP     DIISErr   Damp  Time(sec)
-------------------------------------------------------------------------------------------
               ***  Starting incremental Fock matrix formation  ***
    1    -401.1104769848025740     0.00e+00  4.16e-03  8.03e-02  2.06e-01  0.700   2.0
    2    -401.2080290167281760    -9.76e-02  2.89e-03  4.54e-02  8.77e-02  0.700   1.6
                               ***Turning on AO-DIIS***
    3    -401.2442485976102375    -3.62e-02  1.16e-03  1.35e-02  2.29e-02  0.700   1.4
    4    -401.2652602164895939    -2.10e-02  1.97e-03  2.94e-02  1.07e-02  0.000   0.6
    5    -401.3118808518694891    -4.66e-02  4.80e-04  7.03e-03  6.12e-03  0.000   0.5
                              *** Initializing SOSCF ***
---------------------------------------S-O-S-C-F--------------------------------------
Iteration    Energy (Eh)           Delta-E    RMSDP     MaxDP     MaxGrad    Time(sec)
--------------------------------------------------------------------------------------
    6    -401.3122513132720428    -3.70e-04  1.74e-04  2.42e-03  1.55e-03     0.4
               *** Restarting incremental Fock matrix formation ***
    7    -401.3122788341131013    -2.75e-05  1.37e-04  2.30e-03  3.97e-04     0.5
    8    -401.3122715400990614     7.29e-06  5.96e-05  1.63e-03  8.20e-04     0.4
                 **** Energy Check signals convergence ****

               *****************************************************
               *                     SUCCESS                       *
               *           SCF CONVERGED AFTER   8 CYCLES          *
               *****************************************************

             **** ENERGY FILE WAS UPDATED (sp.en.tmp) ****

----------------
TOTAL SCF ENERGY
----------------

Total Energy       :       -401.31227154009906 Eh          -10920.26208 eV

Components:
Nuclear Repulsion  :        427.76037271366152 Eh           11639.95151 eV
Electronic Energy  :       -829.07264425376059 Eh          -22560.21359 eV
One Electron Energy:      -1391.71055937690790 Eh          -37870.36961 eV
Two Electron Energy:        562.63791512314731 Eh           15310.15602 eV

Virial components:
Potential Energy   :       -799.32528508659357 Eh          -21750.74679 eV
Kinetic Energy     :        398.01301354649456 Eh           10830.48471 eV
Virial Ratio       :          2.00828932190987

DFT components:
N(Alpha)           :       33.000007203253 electrons
N(Beta)            :       33.000007203253 electrons
N(Total)           :       66.000014406507 electrons
E(X)               :      -54.156653455726 Eh       
E(C)               :       -2.210168917442 Eh       
E(XC)              :      -56.366822373168 Eh       

---------------
SCF CONVERGENCE
---------------

  Last Energy change         ...   -7.2940e-06  Tolerance :   1.0000e-05
  Last MAX-Density change    ...    1.6278e-03  Tolerance :   1.0000e-03
  Last RMS-Density change    ...    5.9601e-05  Tolerance :   1.0000e-04
  Last DIIS Error            ...    1.5469e-03  Tolerance :   5.0000e-04
  Last Orbital Gradient      ...    8.2022e-04  Tolerance :   1.0000e-04
  Last Orbital Rotation      ...    1.3162e-03  Tolerance :   1.0000e-04


----------------
ORBITAL ENERGIES
----------------

  NO   OCC          E(Eh)            E(eV) 
   0   2.0000     -18.773483      -510.8524 
   1   2.0000     -13.990653      -380.7050 
   2   2.0000      -9.938215      -270.4326 
   3   2.0000      -9.932754      -270.2840 
   4   2.0000      -9.925045      -270.0742 
   5   2.0000      -9.883296      -268.9382 
   6   2.0000      -9.872536      -268.6454 
   7   2.0000      -9.870976      -268.6029 
   8   2.0000      -9.869548      -268.5641 
   9   2.0000      -0.958152       -26.0726 
  10   2.0000      -0.830889       -22.6096 
  11   2.0000      -0.748884       -20.3782 
  12   2.0000      -0.673963       -18.3395 
  13   2.0000      -0.644801       -17.5459 
  14   2.0000      -0.616063       -16.7639 
  15   2.0000      -0.542912       -14.7734 
  16   2.0000      -0.525869       -14.3096 
  17   2.0000      -0.482430       -13.1276 
  18   2.0000      -0.465246       -12.6600 
  19   2.0000      -0.428044       -11.6477 
  20   2.0000      -0.416207       -11.3256 
  21   2.0000      -0.411698       -11.2029 
  22   2.0000      -0.405844       -11.0436 
  23   2.0000      -0.367810       -10.0086 
  24   2.0000      -0.357984        -9.7413 
  25   2.0000      -0.340462        -9.2644 
  26   2.0000      -0.317526        -8.6403 
  27   2.0000      -0.312759        -8.5106 
  28   2.0000      -0.291833        -7.9412 
  29   2.0000      -0.271929        -7.3996 
  30   2.0000      -0.251478        -6.8431 
  31   2.0000      -0.186012        -5.0616 
  32   2.0000      -0.168332        -4.5806 
  33   0.0000      -0.016845        -0.4584 
  34   0.0000       0.002503         0.0681 
  35   0.0000       0.037672         1.0251 
  36   0.0000       0.052178         1.4198 
  37   0.0000       0.066702         1.8151 
  38   0.0000       0.072352         1.9688 
  39   0.0000       0.095808         2.6071 
  40   0.0000       0.109314         2.9746 
  41   0.0000       0.117128         3.1872 
  42   0.0000       0.118959         3.2370 
  43   0.0000       0.132316         3.6005 
*Only the first 10 virtual orbitals were printed.

                    ********************************
                    * MULLIKEN POPULATION ANALYSIS *
                    ********************************

-----------------------
MULLIKEN ATOMIC CHARGES
-----------------------
   0 C :   -0.114603
   1 O :   -0.269853
   2 C :    0.268184
   3 C :   -0.199192
   4 C :   -0.063456
   5 C :   -0.122501
   6 C :    0.171454
   7 C :   -0.208354
   8 N :   -0.341148
   9 H :    0.120539
  10 H :    0.106895
  11 H :    0.107718
  12 H :    0.029735
  13 H :    0.045849
  14 H :    0.014970
  15 H :    0.011670
  16 H :    0.221142
  17 H :    0.220951
Sum of atomic charges:    0.0000000

--------------------------------
MULLIKEN REDUCED ORBITAL CHARGES
--------------------------------
  0 C s       :     3.125521  s :     3.125521
      pz      :     1.083409  p :     2.933484
      px      :     0.837960
      py      :     1.012115
      dz2     :     0.008474  d :     0.055598
      dxz     :     0.008088
      dyz     :     0.012190
      dx2y2   :     0.009757
      dxy     :     0.017089

  1 O s       :     3.735151  s :     3.735151
      pz      :     1.773607  p :     4.518034
      px      :     1.155055
      py      :     1.589372
      dz2     :     0.002251  d :     0.016667
      dxz     :     0.002625
      dyz     :     0.001968
      dx2y2   :     0.002970
      dxy     :     0.006853

  2 C s       :     2.903352  s :     2.903352
      pz      :     0.979256  p :     2.755761
      px      :     0.847290
      py      :     0.929216
      dz2     :     0.004924  d :     0.072702
      dxz     :     0.014084
      dyz     :     0.010870
      dx2y2   :     0.019161
      dxy     :     0.023662

  3 C s       :     3.269869  s :     3.269869
      pz      :     1.122621  p :     2.897025
      px      :     0.828727
      py      :     0.945678
      dz2     :     0.003357  d :     0.032298
      dxz     :     0.003306
      dyz     :     0.004791
      dx2y2   :     0.009917
      dxy     :     0.010927

  4 C s       :     3.185004  s :     3.185004
      pz      :     0.986485  p :     2.841548
      px      :     0.988784
      py      :     0.866280
      dz2     :     0.003141  d :     0.036904
      dxz     :     0.009026
      dyz     :     0.001837
      dx2y2   :     0.013962
      dxy     :     0.008937

  5 C s       :     3.249458  s :     3.249458
      pz      :     1.101644  p :     2.840486
      px      :     0.772050
      py      :     0.966791
      dz2     :     0.003293  d :     0.032557
      dxz     :     0.002835
      dyz     :     0.005073
      dx2y2   :     0.011428
      dxy     :     0.009927

  6 C s       :     2.897012  s :     2.897012
      pz      :     0.954868  p :     2.871424
      px      :     0.948584
      py      :     0.967972
      dz2     :     0.003952  d :     0.060110
      dxz     :     0.013502
      dyz     :     0.009962
      dx2y2   :     0.014891
      dxy     :     0.017803

  7 C s       :     3.369088  s :     3.369088
      pz      :     1.124771  p :     2.809350
      px      :     0.962086
      py      :     0.722493
      dz2     :     0.003410  d :     0.029916
      dxz     :     0.005899
      dyz     :     0.001942
      dx2y2   :     0.010512
      dxy     :     0.008152

  8 N s       :     3.390007  s :     3.390007
      pz      :     1.718113  p :     3.930476
      px      :     1.118896
      py      :     1.093466
      dz2     :     0.002118  d :     0.020665
      dxz     :     0.004006
      dyz     :     0.003577
      dx2y2   :     0.006595
      dxy     :     0.004369

  9 H s       :     0.879461  s :     0.879461

 10 H s       :     0.893105  s :     0.893105

 11 H s       :     0.892282  s :     0.892282

 12 H s       :     0.970265  s :     0.970265

 13 H s       :     0.954151  s :     0.954151

 14 H s       :     0.985030  s :     0.985030

 15 H s       :     0.988330  s :     0.988330

 16 H s       :     0.778858  s :     0.778858

 17 H s       :     0.779049  s :     0.779049


------------------------
MULLIKEN OVERLAP CHARGES
------------------------
B(  0-C ,  1-O ) :   0.6390 B(  0-C ,  2-C ) :  -0.1311 B(  0-C ,  9-H ) :   0.7656 
B(  0-C , 10-H ) :   0.7509 B(  0-C , 11-H ) :   0.7517 B(  1-O ,  2-C ) :   0.8431 
B(  1-O ,  3-C ) :  -0.1836 B(  1-O ,  7-C ) :  -0.1809 B(  1-O ,  9-H ) :  -0.0530 
B(  1-O , 10-H ) :  -0.0639 B(  1-O , 11-H ) :  -0.0637 B(  2-C ,  3-C ) :  -0.0828 
B(  2-C ,  4-C ) :   0.5392 B(  2-C ,  5-C ) :  -0.4836 B(  2-C ,  6-C ) :   0.6066 
B(  2-C ,  7-C ) :   0.1924 B(  2-C , 12-H ) :  -0.2183 B(  2-C , 15-H ) :  -0.1497 
B(  3-C ,  4-C ) :   0.0955 B(  3-C ,  5-C ) :   0.4085 B(  3-C ,  6-C ) :  -0.5087 
B(  3-C ,  7-C ) :   0.2431 B(  3-C , 12-H ) :   0.8907 B(  3-C , 13-H ) :  -0.1774 
B(  3-C , 15-H ) :   0.0547 B(  4-C ,  5-C ) :   0.1895 B(  4-C ,  6-C ) :   0.5494 
B(  4-C ,  7-C ) :  -0.4224 B(  4-C , 12-H ) :  -0.1666 B(  4-C , 13-H ) :   0.8840 
B(  4-C , 14-H ) :  -0.1735 B(  5-C ,  7-C ) :   0.3191 B(  5-C ,  8-N ) :  -0.2176 
B(  5-C , 13-H ) :  -0.1847 B(  5-C , 14-H ) :   0.8736 B(  6-C ,  8-N ) :   0.9444 
B(  6-C , 14-H ) :  -0.1962 B(  6-C , 15-H ) :  -0.2013 B(  7-C ,  8-N ) :  -0.2451 
B(  7-C , 15-H ) :   0.8247 B(  8-N , 16-H ) :   0.6363 B(  8-N , 17-H ) :   0.6374 
B(  9-H , 10-H ) :  -0.0525 B(  9-H , 11-H ) :  -0.0520 B( 10-H , 11-H ) :  -0.1009 
B( 16-H , 17-H ) :  -0.0637 


                     *******************************
                     * LOEWDIN POPULATION ANALYSIS *
                     *******************************

----------------------
LOEWDIN ATOMIC CHARGES
----------------------
   0 C :   -0.204810
   1 O :   -0.093002
   2 C :    0.038510
   3 C :   -0.209328
   4 C :   -0.110091
   5 C :   -0.182455
   6 C :   -0.001491
   7 C :   -0.187092
   8 N :   -0.316466
   9 H :    0.119431
  10 H :    0.106859
  11 H :    0.107361
  12 H :    0.122498
  13 H :    0.121731
  14 H :    0.116262
  15 H :    0.123470
  16 H :    0.224414
  17 H :    0.224199

-------------------------------
LOEWDIN REDUCED ORBITAL CHARGES
-------------------------------
  0 C s       :     2.958314  s :     2.958314
      pz      :     1.140888  p :     3.123957
      px      :     0.904018
      py      :     1.079052
      dz2     :     0.019092  d :     0.122539
      dxz     :     0.015301
      dyz     :     0.030313
      dx2y2   :     0.018821
      dxy     :     0.039012

  1 O s       :     3.440860  s :     3.440860
      pz      :     1.764027  p :     4.620025
      px      :     1.232236
      py      :     1.623762
      dz2     :     0.004018  d :     0.032117
      dxz     :     0.004960
      dyz     :     0.002229
      dx2y2   :     0.006567
      dxy     :     0.014342

  2 C s       :     2.835820  s :     2.835820
      pz      :     0.968592  p :     2.952009
      px      :     0.919554
      py      :     1.063863
      dz2     :     0.011199  d :     0.173661
      dxz     :     0.028050
      dyz     :     0.022401
      dx2y2   :     0.050016
      dxy     :     0.061995

  3 C s       :     2.885797  s :     2.885797
      pz      :     1.107692  p :     3.235804
      px      :     1.069018
      py      :     1.059094
      dz2     :     0.007618  d :     0.087728
      dxz     :     0.006582
      dyz     :     0.009944
      dx2y2   :     0.030751
      dxy     :     0.032833

  4 C s       :     2.885438  s :     2.885438
      pz      :     0.977273  p :     3.127936
      px      :     1.089360
      py      :     1.061304
      dz2     :     0.007055  d :     0.096716
      dxz     :     0.020368
      dyz     :     0.003070
      dx2y2   :     0.038348
      dxy     :     0.027875

  5 C s       :     2.885239  s :     2.885239
      pz      :     1.090319  p :     3.209257
      px      :     1.063993
      py      :     1.054945
      dz2     :     0.007324  d :     0.087958
      dxz     :     0.005380
      dyz     :     0.010711
      dx2y2   :     0.033852
      dxy     :     0.030690

  6 C s       :     2.829395  s :     2.829395
      pz      :     0.947877  p :     3.021338
      px      :     1.010385
      py      :     1.063076
      dz2     :     0.009452  d :     0.150758
      dxz     :     0.028596
      dyz     :     0.020988
      dx2y2   :     0.041456
      dxy     :     0.050266

  7 C s       :     2.890472  s :     2.890472
      pz      :     1.109857  p :     3.213972
      px      :     1.052714
      py      :     1.051401
      dz2     :     0.007506  d :     0.082647
      dxz     :     0.012622
      dyz     :     0.003044
      dx2y2   :     0.032026
      dxy     :     0.027449

  8 N s       :     3.168068  s :     3.168068
      pz      :     1.711949  p :     4.102514
      px      :     1.197172
      py      :     1.193393
      dz2     :     0.003433  d :     0.045884
      dxz     :     0.006932
      dyz     :     0.006298
      dx2y2   :     0.016427
      dxy     :     0.012793

  9 H s       :     0.880569  s :     0.880569

 10 H s       :     0.893141  s :     0.893141

 11 H s       :     0.892639  s :     0.892639

 12 H s       :     0.877502  s :     0.877502

 13 H s       :     0.878269  s :     0.878269

 14 H s       :     0.883738  s :     0.883738

 15 H s       :     0.876530  s :     0.876530

 16 H s       :     0.775586  s :     0.775586

 17 H s       :     0.775801  s :     0.775801


---------------------------------
LOEWDIN BOND ORDERS (THRESH 0.050000)
---------------------------------
B(  0-C ,  1-O ) :   1.1690 B(  0-C ,  2-C ) :   0.0686 B(  0-C ,  9-H ) :   0.9494 
B(  0-C , 10-H ) :   0.9402 B(  0-C , 11-H ) :   0.9402 B(  1-O ,  2-C ) :   1.2692 
B(  1-O ,  3-C ) :   0.0999 B(  1-O ,  7-C ) :   0.1035 B(  2-C ,  3-C ) :   1.4037 
B(  2-C ,  4-C ) :   0.0923 B(  2-C ,  5-C ) :   0.0929 B(  2-C ,  6-C ) :   0.0898 
B(  2-C ,  7-C ) :   1.4138 B(  3-C ,  4-C ) :   1.4746 B(  3-C ,  5-C ) :   0.0988 
B(  3-C ,  6-C ) :   0.0872 B(  3-C ,  7-C ) :   0.0846 B(  3-C , 12-H ) :   0.8768 
B(  4-C ,  5-C ) :   1.5376 B(  4-C ,  6-C ) :   0.0891 B(  4-C ,  7-C ) :   0.1081 
B(  4-C , 13-H ) :   0.8865 B(  5-C ,  6-C ) :   1.3607 B(  5-C ,  7-C ) :   0.0813 
B(  5-C ,  8-N ) :   0.1046 B(  5-C , 14-H ) :   0.8846 B(  6-C ,  7-C ) :   1.4120 
B(  6-C ,  8-N ) :   1.3122 B(  7-C ,  8-N ) :   0.1200 B(  7-C , 15-H ) :   0.8774 
B(  8-N , 16-H ) :   0.8968 B(  8-N , 17-H ) :   0.8968 

------------------------------------------
LOEWDIN REDUCED ORBITAL POPULATIONS PER MO
-------------------------------------------
THRESHOLD FOR PRINTING IS 0.1%%
                      0         1         2         3         4         5   
                 -18.77348 -13.99065  -9.93821  -9.93275  -9.92505  -9.88330
                   2.00000   2.00000   2.00000   2.00000   2.00000   2.00000
                  --------  --------  --------  --------  --------  --------
 0 C  s               0.0       0.0       0.0      99.7       0.0       0.0
 1 O  s              99.9       0.0       0.0       0.0       0.0       0.0
 2 C  s               0.0       0.0      99.5       0.0       0.0       0.0
 3 C  px              0.0       0.0       0.0       0.0       0.0       0.1
 3 C  py              0.0       0.0       0.1       0.0       0.0       0.0
 4 C  s               0.0       0.0       0.0       0.0       0.0      99.5
 5 C  px              0.0       0.0       0.0       0.0       0.0       0.1
 5 C  py              0.0       0.0       0.0       0.0       0.1       0.0
 6 C  s               0.0       0.0       0.0       0.0      99.5       0.0
 7 C  px              0.0       0.0       0.1       0.0       0.1       0.0
 8 N  s               0.0      99.8       0.0       0.0       0.0       0.0
 8 N  px              0.0       0.0       0.0       0.0       0.1       0.0

                      6         7         8         9        10        11   
                  -9.87254  -9.87098  -9.86955  -0.95815  -0.83089  -0.74888
                   2.00000   2.00000   2.00000   2.00000   2.00000   2.00000
                  --------  --------  --------  --------  --------  --------
 0 C  s               0.0       0.0       0.0       7.9       0.0       1.4
 0 C  px              0.0       0.0       0.0       6.1       0.0       0.1
 0 C  py              0.0       0.0       0.0       1.5       0.0       0.2
 0 C  dz2             0.0       0.0       0.0       0.2       0.0       0.0
 0 C  dx2y2           0.0       0.0       0.0       0.2       0.0       0.0
 0 C  dxy             0.0       0.0       0.0       0.4       0.0       0.0
 1 O  s               0.0       0.0       0.0      54.7       0.1       1.0
 1 O  px              0.0       0.0       0.0       0.0       0.1       2.4
 1 O  py              0.0       0.0       0.0       2.9       0.0       0.0
 2 C  s               0.0       0.0       0.0       9.2       0.5       9.7
 2 C  px              0.0       0.0       0.1       6.6       0.7       3.6
 2 C  py              0.0       0.1       0.0       1.8       0.0       1.3
 2 C  dz2             0.0       0.0       0.0       0.3       0.0       0.1
 2 C  dx2y2           0.0       0.0       0.0       0.2       0.0       0.0
 2 C  dxy             0.0       0.0       0.0       0.5       0.0       0.0
 3 C  s               0.0      99.6       0.0       0.7       0.3      12.9
 3 C  px              0.0       0.0       0.0       0.1       0.2       2.1
 3 C  py              0.0       0.0       0.0       1.1       0.0       0.6
 3 C  dz2             0.0       0.0       0.0       0.0       0.0       0.2
 4 C  s               0.0       0.0       0.0       0.1       0.7      12.6
 4 C  px              0.1       0.1       0.0       0.0       0.1       0.1
 4 C  py              0.0       0.0       0.0       0.0       0.3       2.2
 4 C  dz2             0.0       0.0       0.0       0.0       0.0       0.2
 5 C  s              99.5       0.0       0.0       0.0       3.4       8.1
 5 C  px              0.0       0.0       0.0       0.0       0.0       2.9
 5 C  py              0.0       0.0       0.0       0.0       2.2       0.0
 5 C  dz2             0.0       0.0       0.0       0.0       0.0       0.1
 6 C  s               0.0       0.0       0.0       0.1      18.1       2.2
 6 C  px              0.0       0.0       0.1       0.1       3.5       6.1
 6 C  py              0.1       0.0       0.0       0.0       1.6       2.8
 6 C  dz2             0.0       0.0       0.0       0.0       0.4       0.0
 6 C  dxy             0.0       0.0       0.0       0.0       0.2       0.1
 7 C  s               0.0       0.0      99.6       0.7       3.4       7.7
 7 C  px              0.0       0.0       0.0       1.1       2.1       0.3
 7 C  py              0.0       0.0       0.0       0.1       0.3       2.4
 8 N  s               0.0       0.0       0.0       0.0      42.0       6.5
 8 N  pz              0.0       0.0       0.0       0.0       0.6       0.2
 8 N  px              0.0       0.0       0.0       0.0       0.9       0.3
 8 N  py              0.0       0.0       0.0       0.0       0.4       0.2
 8 N  dz2             0.0       0.0       0.0       0.0       0.1       0.0
 9 H  s               0.0       0.0       0.0       0.9       0.0       0.3
10 H  s               0.0       0.0       0.0       0.9       0.0       0.2
11 H  s               0.0       0.0       0.0       0.9       0.0       0.2
12 H  s               0.0       0.1       0.0       0.1       0.0       1.6
13 H  s               0.0       0.0       0.0       0.0       0.1       1.7
14 H  s               0.1       0.0       0.0       0.0       0.6       0.9
15 H  s               0.0       0.0       0.1       0.2       0.5       0.8
16 H  s               0.0       0.0       0.0       0.0       8.1       1.6
17 H  s               0.0       0.0       0.0       0.0       8.2       1.6

                     12        13        14        15        16        17   
                  -0.67396  -0.64480  -0.61606  -0.54291  -0.52587  -0.48243
                   2.00000   2.00000   2.00000   2.00000   2.00000   2.00000
                  --------  --------  --------  --------  --------  --------
 0 C  s              12.5       1.2      17.8       0.0       4.5       1.6
 0 C  px              0.1       0.1       1.4       0.0       4.5       3.8
 0 C  py              0.2       0.2       0.4       1.2       1.8       9.8
 0 C  dz2             0.0       0.0       0.0       0.0       0.1       0.2
 0 C  dxy             0.0       0.0       0.0       0.0       0.2       0.3
 1 O  s               0.0       0.2       4.0       0.9       2.1       1.2
 1 O  px             14.8       1.3       7.0       0.5       2.5      15.2
 1 O  py              0.1       0.3       0.5       2.0       0.1       1.1
 1 O  dxy             0.2       0.0       0.1       0.0       0.0       0.1
 2 C  s               9.0       1.9       0.9       1.7       3.7       0.0
 2 C  px              0.6       1.5       4.8       1.7       1.7       5.6
 2 C  py              3.3       7.1       3.0       7.6       2.5       2.6
 2 C  dx2y2           0.0       0.2       0.1       0.1       0.0       0.0
 2 C  dxy             0.0       0.1       0.4       0.0       0.1       0.0
 3 C  s               0.5      16.1       3.3       1.9       3.4       0.1
 3 C  px              1.5       0.0       0.6       5.7       0.1       2.5
 3 C  py              3.4       0.1       0.8       5.1       3.8       3.2
 3 C  dz2             0.0       0.1       0.0       0.0       0.0       0.0
 3 C  dx2y2           0.2       0.0       0.0       0.1       0.0       0.0
 4 C  s              10.4       4.1       2.0       9.9       0.1       1.0
 4 C  px              0.9       6.3       5.2       0.2       6.6       0.1
 4 C  py              0.2       0.1       0.0       2.4       0.3       6.1
 4 C  dxy             0.0       0.2       0.1       0.0       0.1       0.0
 5 C  s               9.6       3.8       9.1       0.8       3.0       0.1
 5 C  px              0.6       0.5       0.1       4.5       0.3       1.9
 5 C  py              0.7       4.0       0.6       8.1       1.9       1.5
 5 C  dx2y2           0.0       0.1       0.0       0.1       0.0       0.0
 6 C  s               0.1      10.9       0.0       2.1       4.9       0.3
 6 C  px              1.2       3.6       2.9       4.1       0.0       3.8
 6 C  py              4.7       0.7       5.2       6.1       4.3       2.6
 6 C  dx2y2           0.1       0.0       0.1       0.0       0.0       0.0
 6 C  dxy             0.0       0.2       0.0       0.0       0.0       0.0
 7 C  s               7.7       7.6       5.4       5.1       0.3       0.1
 7 C  px              2.2       3.5       0.2       0.0      11.7       0.0
 7 C  py              0.0       0.1       0.1       2.9       0.2       5.1
 7 C  dxy             0.1       0.2       0.0       0.0       0.2       0.0
 8 N  s               0.0       4.9       0.0       0.3       0.6       0.1
 8 N  pz              0.0       0.3       0.0       0.1       0.4       0.4
 8 N  px              0.0       3.9       0.3       0.1      14.8       9.2
 8 N  py              0.3       1.5       0.5       9.1       0.3       1.4
 8 N  dxy             0.0       0.1       0.0       0.0       0.2       0.1
 9 H  s               3.2       0.4       5.5       0.1       2.3       0.2
10 H  s               2.5       0.1       5.5       0.2       2.8       3.7
11 H  s               2.5       0.1       5.5       0.2       2.8       3.7
12 H  s               0.2       4.0       1.2       1.1       2.2       2.0
13 H  s               2.1       1.1       0.7       5.5       0.1       3.3
14 H  s               2.0       0.7       3.0       0.6       2.3       1.0
15 H  s               2.0       1.5       1.0       4.0       0.0       1.3
16 H  s               0.1       2.3       0.1       3.7       0.4       0.7
17 H  s               0.0       2.6       0.2       0.1       5.2       2.5

                     18        19        20        21        22        23   
                  -0.46525  -0.42804  -0.41621  -0.41170  -0.40584  -0.36781
                   2.00000   2.00000   2.00000   2.00000   2.00000   2.00000
                  --------  --------  --------  --------  --------  --------
 0 C  s               0.0       0.5       0.0       0.0       0.1       0.0
 0 C  pz              0.0       0.0       0.4      40.8       0.1       0.0
 0 C  px              0.5       4.9       1.1       0.1       7.6       0.2
 0 C  py              1.8       0.8       9.5       0.1       4.0       1.0
 0 C  dyz             0.0       0.0       0.0       0.2       0.0       0.0
 1 O  s               0.4       0.1       0.0       0.0       1.0       0.0
 1 O  pz              0.0       0.0       0.3      24.7       0.0       0.0
 1 O  px              0.3       8.0       2.3       0.0       1.5       0.0
 1 O  py              3.6       0.2       2.1       0.1      12.3       0.0
 2 C  s               0.2       0.2       3.1       0.0       0.4       1.0
 2 C  pz              0.0       0.0       0.2       7.1       0.0       0.0
 2 C  px              2.2       0.3       3.7       0.0       0.1       1.2
 2 C  py              3.8       1.5       1.2       0.0       3.0       0.2
 2 C  dxz             0.0       0.0       0.0       0.1       0.0       0.0
 2 C  dx2y2           0.0       0.1       0.2       0.0       0.1       0.2
 2 C  dxy             0.0       0.7       0.0       0.0       0.0       0.1
 3 C  s               0.2       1.7       0.0       0.0       2.2       0.5
 3 C  pz              0.0       0.0       0.0       1.4       0.0       0.0
 3 C  px              1.3      11.0       1.7       0.0       0.3       3.9
 3 C  py              5.5       0.1       7.4       0.1       7.4       0.3
 3 C  dx2y2           0.0       0.0       0.2       0.0       0.1       0.3
 3 C  dxy             0.0       0.2       0.0       0.0       0.1       0.0
 4 C  s               0.5       1.4       0.0       0.0       1.3       0.2
 4 C  pz              0.0       0.0       0.0       0.2       0.0       0.0
 4 C  px              6.6       1.0       0.7       0.0       5.6       0.0
 4 C  py              1.6       1.5       0.1       0.0       2.1      26.8
 4 C  dx2y2           0.0       0.1       0.0       0.0       0.2       0.3
 4 C  dxy             0.1       0.0       0.1       0.0       0.0       0.0
 5 C  s               2.1       2.4       0.0       0.0       1.4       0.4
 5 C  px              0.4      12.4       2.4       0.0       3.0       4.1
 5 C  py              1.6       3.9       5.2       0.0       4.7       0.4
 5 C  dx2y2           0.0       0.0       0.1       0.0       0.0       0.3
 5 C  dxy             0.0       0.1       0.1       0.0       0.2       0.1
 6 C  s               0.0       1.0       0.7       0.0       0.0       1.0
 6 C  pz              0.0       0.0       0.5       0.2       0.0       0.1
 6 C  px              1.9       0.2      11.3       0.2       0.2       2.7
 6 C  py              0.3       0.1       3.7       0.0       5.5       0.2
 6 C  dx2y2           0.4       0.0       0.0       0.0       0.5       0.2
 6 C  dxy             0.0       0.5       0.4       0.0       0.0       0.0
 7 C  s               1.2       4.3       0.4       0.0       0.3       0.1
 7 C  pz              0.0       0.0       0.1       1.0       0.0       0.0
 7 C  px              2.7       0.0       5.9       0.1       1.8       0.1
 7 C  py              0.4       7.4       0.0       0.0       0.3      21.7
 7 C  dx2y2           0.0       0.3       0.0       0.0       0.0       0.3
 7 C  dxy             0.0       0.0       0.6       0.0       0.0       0.0
 8 N  s               0.0       0.2       0.3       0.0       0.1       0.0
 8 N  pz              0.0       0.1       1.0       0.0       0.1       0.2
 8 N  px              5.7       2.2      15.3       0.3       0.5       0.2
 8 N  py             30.3       0.1       1.1       0.0       9.8       1.2
 8 N  dyz             0.1       0.0       0.0       0.0       0.0       0.0
 8 N  dx2y2           0.2       0.0       0.0       0.0       0.2       0.0
 8 N  dxy             0.0       0.0       0.1       0.0       0.0       0.0
 9 H  s               0.7       1.0       3.2       0.1       5.4       0.5
10 H  s               0.1       0.6       2.0      10.4       0.3       0.2
11 H  s               0.1       0.7       0.5      12.1       0.1       0.1
12 H  s               0.2       6.3       3.6       0.0       4.5       0.8
13 H  s               1.0       0.0       0.1       0.0       3.1      14.5
14 H  s               0.5      12.3       2.1       0.0       1.1       0.6
15 H  s               0.9       8.5       0.1       0.0       0.1      13.1
16 H  s              12.7       0.0       0.3       0.0       5.2       0.4
17 H  s               7.6       0.8       4.2       0.1       2.2       0.0

                     24        25        26        27        28        29   
                  -0.35798  -0.34046  -0.31753  -0.31276  -0.29183  -0.27193
                   2.00000   2.00000   2.00000   2.00000   2.00000   2.00000
                  --------  --------  --------  --------  --------  --------
 0 C  s               0.2       0.0       0.0       0.0       0.0       0.3
 0 C  pz              0.0       6.1       0.4       0.0       7.8       0.0
 0 C  px             13.2       0.0       1.2       0.0       0.0       0.4
 0 C  py              9.5       0.0       0.4       4.2       0.1       7.3
 0 C  dz2             0.1       0.0       0.0       0.1       0.0       0.1
 0 C  dxz             0.0       0.0       0.0       0.0       0.2       0.0
 0 C  dyz             0.0       0.1       0.0       0.0       0.5       0.0
 0 C  dx2y2           0.0       0.0       0.1       0.1       0.0       0.4
 0 C  dxy             0.4       0.0       0.1       0.1       0.0       0.3
 1 O  s               0.1       0.0       0.1       2.0       0.0       4.3
 1 O  pz              0.0       1.0       0.3       0.0      19.0       0.2
 1 O  px              3.6       0.0       1.4       0.5       0.0       0.0
 1 O  py              2.0       0.1       4.8       7.1       0.5      41.1
 1 O  dxz             0.0       0.1       0.0       0.0       0.1       0.0
 1 O  dxy             0.2       0.0       0.0       0.0       0.0       0.0
 2 C  s               0.0       0.0       0.0       0.5       0.0       0.2
 2 C  pz              0.0      11.3       0.9       0.0      16.9       0.0
 2 C  px              6.5       0.0       3.5       1.0       0.1       0.4
 2 C  py              3.1       0.1       2.2       0.6       0.0       8.1
 2 C  dxz             0.0       0.0       0.0       0.0       0.1       0.0
 2 C  dx2y2           0.1       0.0       0.0       0.0       0.0       1.1
 2 C  dxy             0.2       0.0       0.6       0.3       0.0       0.2
 3 C  s               0.2       0.0       0.2       0.3       0.0       0.1
 3 C  pz              0.0       6.7       0.4       0.0       4.3       0.0
 3 C  px              4.8       0.8      14.9       1.6       0.1       0.1
 3 C  py              1.8       0.1       1.3       1.7       0.0       9.0
 3 C  dyz             0.0       0.0       0.0       0.0       0.1       0.0
 3 C  dx2y2           0.0       0.0       0.1       0.1       0.0       0.2
 3 C  dxy             0.0       0.0       1.0       0.1       0.0       0.0
 4 C  s               0.0       0.0       0.0       0.2       0.0       0.1
 4 C  pz              0.0       7.1       0.3       0.0       0.0       0.1
 4 C  px              6.0       0.4      13.6       0.7       0.2       0.2
 4 C  py              0.1       0.0       0.8       5.4       0.0       3.0
 4 C  dx2y2           0.0       0.0       0.0       0.8       0.0       0.4
 4 C  dxy             0.1       0.0       0.5       0.1       0.0       0.1
 5 C  s               0.0       0.0       0.2       0.1       0.0       0.0
 5 C  pz              0.1      11.0       0.1       0.0       3.8       0.1
 5 C  px              3.1       0.3      13.2       3.3       0.1       0.1
 5 C  py              2.7       0.0       0.8      12.6       0.1       1.6
 5 C  dyz             0.0       0.1       0.0       0.0       0.1       0.0
 5 C  dx2y2           0.0       0.0       0.1       0.7       0.0       0.1
 5 C  dxy             0.0       0.0       0.4       0.3       0.0       0.0
 6 C  s               0.1       0.0       0.0       0.1       0.0       0.1
 6 C  pz              0.2      22.5       0.0       0.0      13.6       0.0
 6 C  px              3.6       0.3       1.5       2.7       0.3       0.0
 6 C  py              2.7       0.0       0.0      11.5       0.1       0.9
 6 C  dxz             0.0       0.0       0.0       0.0       0.2       0.0
 6 C  dx2y2           0.0       0.0       0.0       0.5       0.0       0.1
 6 C  dxy             0.1       0.0       0.8       0.0       0.0       0.1
 7 C  s               0.0       0.0       0.0       0.1       0.0       0.4
 7 C  pz              0.1      13.7       0.3       0.0       0.1       0.0
 7 C  px             10.6       0.0       6.0       3.2       0.1       0.9
 7 C  py              0.5       0.2       1.4       7.7       0.0       1.7
 7 C  dxz             0.0       0.0       0.0       0.0       0.4       0.0
 7 C  dyz             0.0       0.1       0.0       0.0       0.0       0.0
 7 C  dx2y2           0.0       0.0       0.0       0.5       0.0       0.3
 7 C  dxy             0.2       0.0       0.1       0.0       0.0       0.0
 8 N  s               0.0       0.4       0.6       0.0       0.5       0.1
 8 N  pz              0.2      10.6       0.1       0.0      19.7       0.0
 8 N  px              1.9       0.6       1.6       0.0       0.8       0.2
 8 N  py              1.3       0.1       0.7       0.6       0.3       0.1
 8 N  dx2y2           0.2       0.0       0.0       0.2       0.0       0.0
 9 H  s              13.1       0.0       1.0       1.9       0.1       4.0
10 H  s               1.5       2.3       0.1       0.9       5.3       1.8
11 H  s               1.0       2.5       0.5       1.3       4.1       2.6
12 H  s               0.7       0.7      13.0       0.2       0.1       1.3
13 H  s               0.1       0.0       0.5       6.3       0.0       3.6
14 H  s               0.4       0.1       6.4       9.3       0.1       0.3
15 H  s               0.0       0.1       0.8       6.8       0.0       1.9
16 H  s               1.3       0.0       0.2       1.0       0.0       0.1
17 H  s               2.1       0.0       0.4       0.6       0.0       0.0

                     30        31        32        33        34        35   
                  -0.25148  -0.18601  -0.16833  -0.01685   0.00250   0.03767
                   2.00000   2.00000   2.00000   0.00000   0.00000   0.00000
                  --------  --------  --------  --------  --------  --------
 0 C  s               0.0       0.0       0.0       0.0       0.0       0.6
 0 C  pz              1.0       0.4       0.0       0.4       0.0       0.0
 0 C  dxz             0.1       0.3       0.0       0.0       0.1       0.0
 0 C  dyz             0.2       0.4       0.0       0.1       0.1       0.0
 1 O  pz             14.4      25.7       2.5       1.5       3.8       0.1
 1 O  py              0.1       0.0       0.0       0.0       0.0       0.2
 1 O  dxz             0.0       0.0       0.0       0.1       0.2       0.0
 2 C  pz              0.2       9.3       2.5      10.1      18.9       0.8
 2 C  px              0.0       0.0       0.0       0.0       0.0       0.3
 2 C  dxz             0.1       1.0       0.0       0.2       0.1       0.0
 2 C  dyz             0.5       0.0       0.6       0.7       0.4       0.0
 2 C  dxy             0.0       0.0       0.0       0.0       0.0       0.1
 3 C  s               0.0       0.0       0.0       0.0       0.0       0.6
 3 C  pz             16.8       0.9      24.7       4.7      20.1       1.1
 3 C  px              0.0       0.0       0.0       0.0       0.0       0.2
 3 C  dxz             0.2       0.1       0.0       0.8       0.0       0.0
 3 C  dyz             0.1       0.2       0.0       0.7       0.5       0.0
 3 C  dxy             0.0       0.0       0.0       0.0       0.0       0.1
 4 C  s               0.0       0.0       0.0       0.0       0.0       0.1
 4 C  pz             31.7       9.0       0.5      32.9       0.5       0.3
 4 C  px              0.0       0.0       0.0       0.0       0.0       0.1
 4 C  py              0.0       0.0       0.0       0.0       0.0       0.5
 4 C  dxz             0.0       0.1       0.8       0.0       1.3       0.0
 4 C  dyz             0.1       0.0       0.0       0.4       0.0       0.0
 4 C  dx2y2           0.0       0.0       0.0       0.0       0.0       0.2
 5 C  s               0.0       0.0       0.0       0.0       0.0       1.6
 5 C  pz             10.4      10.5      18.3      13.9      13.2       0.1
 5 C  px              0.0       0.0       0.0       0.0       0.0       1.6
 5 C  py              0.0       0.0       0.0       0.0       0.0       0.3
 5 C  dxz             0.2       0.0       0.0       0.6       0.0       0.0
 5 C  dyz             0.2       0.1       0.1       0.6       0.9       0.0
 6 C  s               0.0       0.0       0.0       0.0       0.1       0.3
 6 C  pz              1.8       0.6       7.7       3.8      26.7       0.5
 6 C  px              0.1       0.0       0.1       0.0       0.1       0.1
 6 C  dxz             0.1       0.6       0.6       0.4       0.0       0.0
 6 C  dyz             0.4       0.2       0.5       1.0       0.1       0.0
 7 C  s               0.0       0.0       0.0       0.0       0.0       1.3
 7 C  pz              1.5      31.8       6.9      24.0       0.4       0.0
 7 C  px              0.0       0.0       0.0       0.0       0.0       0.3
 7 C  py              0.0       0.0       0.0       0.0       0.0       1.0
 7 C  dxz             0.0       0.0       0.1       0.0       1.8       0.1
 7 C  dyz             0.0       0.0       0.0       0.3       0.0       0.0
 7 C  dxy             0.0       0.0       0.0       0.0       0.0       0.1
 8 N  s               0.5       0.2       1.2       0.1       1.3      13.1
 8 N  pz             15.7       4.9      31.2       0.9       4.8       2.5
 8 N  px              0.4       0.1       0.6       0.0       0.7       3.1
 8 N  py              0.2       0.0       0.2       0.2       0.1       1.3
 8 N  dxz             0.0       0.0       0.1       0.0       0.4       0.0
 8 N  dyz             0.0       0.0       0.0       0.1       0.1       0.0
 9 H  s               0.0       0.0       0.0       0.0       0.0       0.3
10 H  s               1.5       1.7       0.2       0.5       0.3       0.5
11 H  s               1.3       1.7       0.2       0.6       0.3       0.5
12 H  s               0.0       0.0       0.0       0.0       0.0       2.1
13 H  s               0.0       0.0       0.0       0.0       0.0       0.9
14 H  s               0.0       0.0       0.0       0.0       0.1       6.3
15 H  s               0.0       0.0       0.0       0.0       0.0       4.6
16 H  s               0.0       0.0       0.2       0.4       0.8      24.9
17 H  s               0.0       0.0       0.2       0.0       1.6      26.1

                     36        37        38        39        40        41   
                   0.05218   0.06670   0.07235   0.09581   0.10931   0.11713
                   0.00000   0.00000   0.00000   0.00000   0.00000   0.00000
                  --------  --------  --------  --------  --------  --------
 0 C  s              14.8       7.0       0.1       0.3       3.1       0.0
 0 C  pz              0.0       0.0       0.0       0.0       0.0      27.5
 0 C  px              1.3       2.9       4.6      19.0       8.5       0.0
 0 C  py              1.1       1.4       1.6       5.3      20.4       0.0
 0 C  dz2             0.0       0.2       0.3       0.0       2.4       0.0
 0 C  dyz             0.0       0.0       0.0       0.0       0.0       1.1
 0 C  dx2y2           0.0       0.1       0.3       0.3       0.8       0.0
 0 C  dxy             0.0       0.1       0.3       2.3       0.5       0.0
 1 O  s               0.2       1.2       2.9       3.2       7.9       0.0
 1 O  pz              0.0       0.0       0.0       0.0       0.0       1.8
 1 O  px              0.1       0.2       0.0       1.7       1.3       0.0
 1 O  py              0.8       0.3       1.7       1.6       1.6       0.0
 1 O  dz2             0.1       0.0       0.1       0.1       0.1       0.0
 1 O  dxz             0.0       0.0       0.0       0.0       0.0       0.3
 1 O  dx2y2           0.0       0.0       0.1       0.0       0.6       0.0
 1 O  dxy             0.0       0.1       0.0       0.2       0.0       0.0
 2 C  s               0.2       0.7       0.6       0.6       1.0       0.0
 2 C  pz              0.0       0.0       0.0       0.0       0.0       0.7
 2 C  px              0.4       0.8       1.6       0.9       2.2       0.0
 2 C  py              0.1       0.1       1.0       0.3       1.2       0.0
 2 C  dz2             0.0       0.3       0.1       0.0       0.5       0.0
 2 C  dxz             0.0       0.0       0.0       0.0       0.0       0.1
 2 C  dyz             0.0       0.0       0.0       0.0       0.0       0.2
 2 C  dx2y2           0.2       0.0       0.9       0.0       0.4       0.0
 2 C  dxy             0.3       0.3       0.6       0.1       0.0       0.0
 3 C  s               2.8       0.5       0.2       0.3       0.3       0.0
 3 C  pz              0.1       0.0       0.0       0.0       0.0       1.6
 3 C  px              3.0       0.0       0.6       0.9       0.1       0.0
 3 C  py              1.1       0.4       0.4       1.0       0.1       0.0
 3 C  dx2y2           0.0       0.0       0.1       0.2       0.0       0.0
 3 C  dxy             0.2       0.7       0.4       0.1       0.1       0.0
 4 C  s               1.4       4.3       0.4       0.0       0.3       0.0
 4 C  pz              0.0       0.0       0.0       0.0       0.0       0.5
 4 C  px              0.2       0.1       0.2       0.2       0.1       0.0
 4 C  py              1.8       4.3       0.0       0.0       0.7       0.0
 4 C  dz2             0.0       0.1       0.0       0.0       0.0       0.0
 4 C  dx2y2           0.4       0.6       0.1       0.0       0.0       0.0
 5 C  s               0.3       1.6       0.1       1.2       0.1       0.0
 5 C  pz              0.0       0.0       0.1       0.0       0.0       0.2
 5 C  px              0.1       3.1       1.2       0.9       0.1       0.0
 5 C  py              0.2       1.0       1.5       0.2       0.0       0.0
 5 C  dx2y2           0.1       0.2       0.1       0.0       0.0       0.0
 5 C  dxy             0.2       0.5       0.0       0.2       0.1       0.0
 6 C  s               0.2       0.2       0.2       0.2       0.2       0.0
 6 C  px              0.1       0.6       0.1       0.7       0.3       0.0
 6 C  py              0.0       0.1       0.9       0.2       0.0       0.0
 6 C  dx2y2           0.0       0.0       1.5       0.3       0.0       0.0
 6 C  dxy             0.2       0.9       0.0       0.5       0.0       0.0
 7 C  s               0.1       0.3       0.7       1.2       1.1       0.0
 7 C  px              0.0       0.1       0.7       0.6       0.5       0.0
 7 C  py              0.1       0.0       4.6       2.9       0.1       0.1
 7 C  dx2y2           0.2       0.2       0.7       0.0       0.2       0.0
 7 C  dxy             0.0       0.0       0.1       0.4       0.1       0.0
 8 N  s               2.6       1.7       0.3       0.9       0.0       0.0
 8 N  pz              0.3       0.1       0.0       0.1       0.0       0.0
 8 N  px              0.1       0.6       2.7       0.1       0.9       0.0
 8 N  py              0.1       0.5       8.0       0.4       0.9       0.0
 8 N  dx2y2           0.0       0.0       0.3       0.0       0.0       0.0
 9 H  s               8.6       6.2       0.4      23.5      24.3       0.1
10 H  s              12.8       7.2       0.5       2.5       3.8      29.9
11 H  s              12.4       6.9       0.9       2.5       2.5      34.8
12 H  s              14.8       1.4       1.4       3.8       0.4       0.0
13 H  s               6.8      19.5       0.2       0.0       1.9       0.1
14 H  s               1.4      13.2       5.0       4.9       0.3       0.0
15 H  s               0.4       0.7      13.5      10.6       2.4       0.3
16 H  s               4.1       5.9      14.3       0.0       1.6       0.1
17 H  s               3.0       0.0      20.4       2.4       3.7       0.0

                     42        43        44        45        46        47   
                   0.11896   0.13232   0.13954   0.15551   0.21682   0.24407
                   0.00000   0.00000   0.00000   0.00000   0.00000   0.00000
                  --------  --------  --------  --------  --------  --------
 0 C  s               1.8       1.8       0.0       1.3       0.1       0.5
 0 C  pz              0.2       0.0       0.0       0.0       0.0       0.0
 0 C  px              7.1       1.7       0.0       1.4       3.6       1.0
 0 C  py              1.3       0.0       0.0       0.6       3.6       0.2
 0 C  dz2             0.0       0.0       0.0       0.1       1.0       0.0
 0 C  dx2y2           0.3       0.1       0.0       0.1       0.0       0.1
 0 C  dxy             1.1       0.4       0.0       0.4       0.8       0.0
 1 O  s               0.8       0.3       0.0       0.0       1.8       0.0
 1 O  pz              0.0       0.0       1.7       0.0       0.0       0.0
 1 O  px              1.1       1.1       0.0       0.5      16.1       0.2
 1 O  py              1.3       0.0       0.0       0.4       1.4       0.7
[...]
12 H  s               0.1       0.3       0.2       0.0       0.0       0.1
13 H  s               0.0       0.0       0.7       0.0       0.0       0.0
14 H  s               0.1       0.4       0.2       0.1       0.0       0.0
15 H  s               0.0       0.0       0.7       0.0       0.0       0.0
16 H  s               0.2       0.9       0.3       0.4       0.0       0.5
17 H  s               1.0       0.1       0.0       0.5       0.1       0.1

                    138       139       140       141       142       143   
                   2.89284   2.94210   3.02182   3.23816   3.33060   3.50993
                   0.00000   0.00000   0.00000   0.00000   0.00000   0.00000
                  --------  --------  --------  --------  --------  --------
 0 C  s               0.0       0.4       0.6       0.4       0.7       0.6
 0 C  px              0.0       0.4       0.6       0.5       0.8       0.7
 0 C  py              0.0       0.1       0.2       0.0       0.6       0.1
 0 C  dz2             0.0       0.5       0.7       0.2       0.9       0.2
 0 C  dxz             2.4       0.0       0.0       0.0       0.0       0.0
 0 C  dyz             3.1       0.0       0.0       0.0       0.0       0.0
 0 C  dx2y2           0.0       1.3       0.5       1.1       0.1       0.9
 0 C  dxy             0.0       0.0       0.7       0.2       4.4       0.6
 1 O  s               0.0       1.8       2.2       0.6       2.8       0.5
 1 O  pz              0.1       0.0       0.0       0.0       0.0       0.0
 1 O  px              0.0       0.1       0.2       2.5       0.1       3.7
 1 O  py              0.0       1.2       0.8       0.0       0.1       0.1
 1 O  dz2             0.1      24.2      19.6       1.6      10.5       0.9
 1 O  dxz            73.6       0.0       0.0       0.0       0.0       0.0
 1 O  dyz             2.5       0.0       0.0       0.0       0.0       0.0
 1 O  dx2y2           0.1       4.1       0.3       2.2      42.3       0.6
 1 O  dxy             0.0       0.0       0.5      25.1       4.5      38.4
 2 C  s               0.0       0.6       0.7       3.1       0.2       0.3
 2 C  pz              0.2       0.0       0.0       0.0       0.0       0.0
 2 C  px              0.0       0.2       0.1       0.9       0.5       1.8
 2 C  py              0.0       0.1       1.0       0.3       0.0       0.5
 2 C  dz2             0.0       1.7       0.9       1.7       0.6       0.1
 2 C  dxz             7.3       0.0       0.0       0.0       0.0       0.0
 2 C  dyz             6.6       0.0       0.0       0.0       0.0       0.0
 2 C  dx2y2           0.1       2.4       2.1       0.3       8.1       6.9
 2 C  dxy             0.0       2.2       0.8       0.0       9.6      10.3
 3 C  s               0.0       0.2       0.1       0.8       0.2       0.5
 3 C  px              0.0       0.0       0.3       0.2       0.0       0.0
 3 C  py              0.0       0.1       0.3       0.0       1.0       0.1
 3 C  dz2             0.0       0.3       0.1       0.7       0.0       0.1
 3 C  dyz             1.4       0.0       0.0       0.0       0.0       0.0
 3 C  dx2y2           0.0       0.0       2.2       0.6       1.4       0.8
 3 C  dxy             0.0       4.4       0.2       3.5       2.4       5.2
 4 C  s               0.0       1.2       0.1       1.0       0.1       0.3
 4 C  px              0.0       0.0       1.3       0.0       0.2       0.0
 4 C  py              0.0       0.2       0.1       0.1       0.0       0.0
 4 C  dz2             0.0       0.8       0.0       0.6       0.0       0.1
 4 C  dx2y2           0.0       2.9       0.0       8.2       0.6       4.0
 4 C  dxy             0.0       0.9       3.8       0.0       0.2       0.2
 5 C  s               0.0       0.0       0.1       0.8       0.0       0.4
 5 C  px              0.0       0.2       0.2       0.0       0.0       0.0
 5 C  py              0.0       1.1       2.0       0.0       0.1       0.0
 5 C  dz2             0.0       0.2       0.0       0.3       0.0       0.2
 5 C  dx2y2           0.0       0.5       4.3       3.7       0.4       1.2
 5 C  dxy             0.0       2.0       4.6       7.7       0.0       2.5
 6 C  s               0.0       1.3       0.0       0.1       0.1       0.1
 6 C  px              0.0       0.7       0.3       0.6       0.2       0.2
 6 C  py              0.0       0.9       0.8       0.3       0.1       0.0
 6 C  dz2             0.0       1.4       0.0       0.1       0.0       0.0
 6 C  dxz             0.3       0.1       0.0       0.0       0.0       0.0
 6 C  dx2y2           0.1      10.4      18.7       1.3       1.0       1.1
 6 C  dxy             0.1       0.7       2.8      13.6       0.1       5.1
 7 C  s               0.0       0.6       0.1       0.5       0.1       0.5
 7 C  px              0.0       0.0       1.9       0.2       1.0       0.0
 7 C  py              0.0       0.5       0.0       0.0       0.1       0.0
 7 C  dz2             0.0       0.6       0.0       0.3       0.0       0.2
 7 C  dxz             0.2       0.0       0.0       0.0       0.0       0.0
 7 C  dyz             0.5       0.0       0.0       0.0       0.0       0.0
 7 C  dx2y2           0.0       0.7       0.0       5.2       0.2       7.4
 7 C  dxy             0.0       0.3       8.8       0.2       3.3       0.0
 8 N  s               0.0       1.3       0.0       0.5       0.0       0.1
 8 N  px              0.0       1.1       0.0       0.7       0.0       0.2
 8 N  py              0.0       0.5       0.0       0.3       0.0       0.1
 8 N  dz2             0.1       3.5       0.0       0.5       0.0       0.0
 8 N  dxz             0.0       0.3       0.1       0.1       0.0       0.0
 8 N  dyz             0.0       0.0       0.2       0.0       0.0       0.0
 8 N  dx2y2           0.2       0.8      11.1       1.1       0.2       0.1
 8 N  dxy             0.1      16.5       2.0       3.8       0.0       0.8
10 H  s               0.1       0.0       0.0       0.0       0.0       0.0
11 H  s               0.1       0.0       0.0       0.0       0.0       0.0
12 H  s               0.0       0.2       0.0       0.1       0.0       0.3
13 H  s               0.0       0.1       0.0       0.3       0.0       0.2
14 H  s               0.0       0.0       0.0       0.5       0.0       0.1
15 H  s               0.0       0.1       0.0       0.2       0.0       0.3
16 H  s               0.0       0.1       0.4       0.1       0.0       0.0
17 H  s               0.0       0.4       0.4       0.0       0.0       0.0



                      *****************************
                      * MAYER POPULATION ANALYSIS *
                      *****************************

  NA   - Mulliken gross atomic population
  ZA   - Total nuclear charge
  QA   - Mulliken gross atomic charge
  VA   - Mayer's total valence
  BVA  - Mayer's bonded valence
  FA   - Mayer's free valence

  ATOM       NA         ZA         QA         VA         BVA        FA
  0 C      6.1146     6.0000    -0.1146     3.9025     3.9025     0.0000
  1 O      8.2699     8.0000    -0.2699     2.2610     2.2610    -0.0000
  2 C      5.7318     6.0000     0.2682     3.9493     3.9493     0.0000
  3 C      6.1992     6.0000    -0.1992     3.7585     3.7585     0.0000
  4 C      6.0635     6.0000    -0.0635     3.8618     3.8618    -0.0000
  5 C      6.1225     6.0000    -0.1225     3.7683     3.7683     0.0000
  6 C      5.8285     6.0000     0.1715     4.0361     4.0361    -0.0000
  7 C      6.2084     6.0000    -0.2084     3.7442     3.7442    -0.0000
  8 N      7.3411     7.0000    -0.3411     3.0973     3.0973     0.0000
  9 H      0.8795     1.0000     0.1205     0.9541     0.9541     0.0000
 10 H      0.8931     1.0000     0.1069     0.9516     0.9516     0.0000
 11 H      0.8923     1.0000     0.1077     0.9517     0.9517     0.0000
 12 H      0.9703     1.0000     0.0297     0.9695     0.9695     0.0000
 13 H      0.9542     1.0000     0.0458     0.9490     0.9490     0.0000
 14 H      0.9850     1.0000     0.0150     0.9613     0.9613     0.0000
 15 H      0.9883     1.0000     0.0117     0.9808     0.9808    -0.0000
 16 H      0.7789     1.0000     0.2211     0.9207     0.9207     0.0000
 17 H      0.7790     1.0000     0.2210     0.9204     0.9204     0.0000

  Mayer bond orders larger than 0.100000
B(  0-C ,  1-O ) :   0.9981 B(  0-C ,  9-H ) :   0.9592 B(  0-C , 10-H ) :   0.9413 
B(  0-C , 11-H ) :   0.9414 B(  1-O ,  2-C ) :   1.1296 B(  2-C ,  3-C ) :   1.2992 
B(  2-C ,  7-C ) :   1.3461 B(  3-C ,  4-C ) :   1.3348 B(  3-C , 12-H ) :   0.9648 
B(  4-C ,  5-C ) :   1.3987 B(  4-C , 13-H ) :   0.9575 B(  5-C ,  6-C ) :   1.3051 
B(  5-C , 14-H ) :   0.9646 B(  6-C ,  7-C ) :   1.3116 B(  6-C ,  8-N ) :   1.2292 
B(  7-C , 15-H ) :   0.9651 B(  8-N , 16-H ) :   0.8842 B(  8-N , 17-H ) :   0.8836 


-------
TIMINGS
-------

Total SCF time: 0 days 0 hours 0 min 13 sec 

Total time                  ....      13.645 sec
Sum of individual times     ....      13.614 sec  ( 99.8%)

SCF preparation             ....       1.560 sec  ( 11.4%)
Fock matrix formation       ....       6.870 sec  ( 50.3%)
  Startup                   ....       0.050 sec  (  0.7% of F)
  Split-RI-J                ....       2.551 sec  ( 37.1% of F)
  XC integration            ....       3.987 sec  ( 58.0% of F)
    XC Preparation          ....       0.000 sec  (  0.0% of XC)
    Basis function eval.    ....       1.038 sec  ( 26.0% of XC)
    Density eval.           ....       0.826 sec  ( 20.7% of XC)
    XC-Functional eval.     ....       0.837 sec  ( 21.0% of XC)
    XC-Potential eval.      ....       0.559 sec  ( 14.0% of XC)
Diagonalization             ....       0.000 sec  (  0.0%)
Density matrix formation    ....       0.035 sec  (  0.3%)
Total Energy calculation    ....       0.030 sec  (  0.2%)
Population analysis         ....       4.581 sec  ( 33.6%)
Orbital Transformation      ....       0.169 sec  (  1.2%)
Orbital Orthonormalization  ....       0.000 sec  (  0.0%)
DIIS solution               ....       0.336 sec  (  2.5%)
  MO trafo                  ....       0.000 sec  (  0.1 % of DIIS)
  Orb grad                  ....       0.000 sec  (  0.0 % of DIIS)
  Energy W gradient         ....       0.000 sec  (  0.0 % of DIIS)
  DIIS error                ....       0.006 sec  (  1.8 % of DIIS)
  DIIS work                 ....       0.163 sec  ( 48.7 % of DIIS)
  Form Q                    ....       0.000 sec  (  0.0 % of DIIS)
  Form QpQm                 ....       0.000 sec  (  0.0 % of DIIS)
  Exp/Cayley                ....       0.000 sec  (  0.0 % of DIIS)
  Orb update                ....       0.000 sec  (  0.0 % of DIIS)
  Wake-sleep                ....       0.004 sec  (  1.2 % of DIIS)
SOSCF solution              ....       0.032 sec  (  0.2%)
  MO trafo                  ....       0.012 sec  ( 35.7 % of SOSCF)
  Orb grad                  ....       0.000 sec  (  1.4 % of SOSCF)
  Rot update                ....       0.010 sec  ( 31.8 % of SOSCF)
  Step                      ....       0.009 sec  ( 28.3 % of SOSCF)
Finished LeanSCF after  17.2 sec

Maximum memory used throughout the entire LEANSCF-calculation: 13.6 MB


-------------------------------------------------------------------------------
                          DFT DISPERSION CORRECTION                            
                                                                               
                                DFTD4 V3.4.0                                   
-------------------------------------------------------------------------------
The PBE functional is recognized
Active option DFTDOPT                   ...         5   

-------------------------   ----------------
Dispersion correction           -0.017613542
-------------------------   ----------------

------------------   -----------------
gCP correction             0.077973972
------------------   -----------------

-------------------------   --------------------
FINAL SINGLE POINT ENERGY      -401.251911111047
-------------------------   --------------------


------------------------------------------------------------------------------
                              ORCA PROPERTY CALCULATIONS
------------------------------------------------------------------------------

GBWName                                 ... sp.gbw
Number of atoms                         ...     18
Number of basis functions               ...    144
Max core memory                         ...   1024 MB

Electric properties:
Dipole moment                           ... YES
Quadrupole moment                       ...  NO
Static polarizability (Dipole/Dipole)   ...  NO
Static polarizability (Dipole/Quad.)    ...  NO
Static polarizability (Quad./Quad.)     ...  NO
Static polarizability (Velocity)        ...  NO

Atomic electric properties:
Dipole moment                           ...  NO
Quadrupole moment                       ...  NO
Static polarizability                   ...  NO

Choice of electric origin               ... Center of mass
Position of electric origin             ...     0.000021    -0.000002     0.000000

General magnetic properties:
Magnetizability                         ...  NO

EPR properties:
g-Tensor (aka g-matrix)                 ...  NO
Zero-Field splitting spin-orbit         ...  NO
Zero-field splitting spin-spin          ...  NO
Hyperfine couplings                     ...  NO (   0 nuclei)
Quadrupole couplings                    ...  NO (   0 nuclei)
Contact density                         ...  NO (   0 nuclei)

NMR properties:
Chemical shifts                         ...  NO (   0 nuclei)
Spin-rotation constants                 ...  NO (   0 nuclei)
Spin-spin couplings                     ...  NO (   0 nuclei,    0 pairs)

Choice of magnetic origin               ... GIAO
Position of magnetic origin             ...     0.000000     0.000000     0.000000

Properties with geometric perturbations:
SCF Hessian                             ...  NO
IR spectrum                             ...  NO
VCD spectrum                            ...  NO
X-ray spectroscopy properties:
SCF XES/XAS/RIXS spectra                ...  NO


-------------
DIPOLE MOMENT
-------------

Method             : SCF
Type of density    : Electron Density
Multiplicity       :   1
Irrep              :   0
Energy             :  -401.3122715400990614 Eh
Relativity type    : 
Basis              : AO
                                X                 Y                 Z
Electronic contribution:      2.292063318       1.373329148      -0.096445752
Nuclear contribution   :     -2.111130765      -1.287120926       0.426689233
                        -----------------------------------------
Total Dipole Moment    :      0.180932553       0.086208221       0.330243480
                        -----------------------------------------
Magnitude (a.u.)       :      0.386301958
Magnitude (Debye)      :      0.981901544



--------------------
Rotational spectrum 
--------------------
 
Rotational constants in cm-1:             0.121412             0.037931             0.029078 
Rotational constants in MHz :          3639.852217          1137.138767           871.749067 

Dipole components along the rotational axes: 
x,y,z [a.u.] :     0.180933    -0.086207     0.330243 
x,y,z [Debye]:     0.459896    -0.219121     0.839412 

 

Dipole moment calculation done in   2.1 sec 

Maximum memory used throughout the entire PROP-calculation: 8.8 MB

--------------------------------
SUGGESTED CITATIONS FOR THIS RUN
--------------------------------

Below you find a list of papers that are relevant to this ORCA run
We neither can nor want to force you to cite these papers, but we appreciate if you do
You receive ORCA, which is the product of decades of hard work by many enthusiastic individuals, for free
The only thing we kindly ask in return is that you cite our papers,
We deeply appreciate it, if you show your appreciation for ORCA by not just citing the generic ORCA reference.

Please note that relegating all ORCA citations to the supporting information does *not* help us.
SI sections are not indexed - citations you put there will not count into any citation statistics
But we need these citations in order to attract the funding resources that allow us to do what we are doing

Therefore, if you are a happy ORCA user, please consider citing a few of the papers listed below in the main body of your paper

In addition to the list printed below, the program has created the file sp.bibtex that contains the list in bibtex format
You can import this file easily into all common literature databanks and citation aid programs


List of essential papers. We consider these as the minimum necessary citations

  1. Neese,F.
     Software update: the ORCA program system, version 5.0
     WIRES Comput. Molec. Sci., 2022 12(1)e1606
     doi.org/10.1002/wcms.1606

List of papers to cite with high priority. The work reported in these papers was absolutely
necessary for this run to complete.
Our perspective: the developers of density functionals and basis sets usually get cited in chemistry papers
Good! But without the algorithms to do something with them, the functionals or basis sets would not do anything.
Hence, in our opinion, the algorithm design and method developments papers are equally worthy of getting cited

  1. Neese,F.
     An improvement of the resolution of the identity approximation for the formation of the Coulomb matrix
     J. Comp. Chem., 2003 24(14)1740-1747
     doi.org/10.1002/jcc.10318
  2. Neese,F.
     The SHARK Integral Generation and Digestion System
     J. Comp. Chem., 2022  1-16
     doi.org/10.1002/jcc.26942
  3. Caldeweyher,E.; Bannwarth,C.; Grimme,S.
     Extension of the D3 dispersion coefficient model
     J. Chem. Phys., 2017 147 034112
     doi.org/10.1063/1.4993215
  4. Caldeweyher,E.; Ehlert,S.; Hansen,A.; Neugebauer,H.; Spicher,S.; Bannwarth,C.; Grimme,S.
     A generally applicable atomic-charge dependent London dispersion correction
     J. Chem. Phys., 2019 150 154122
     doi.org/10.1063/1.5090222
  5. Caldeweyher,E.; Mewes,J.; Ehlert,S.; Grimme,S.
     Extension and evaluation of the D4 London-dispersion model for periodic systems
     Phys. Chem. Chem. Phys., 2020 22(16)8499-8512
     doi.org/10.1039/D0CP00502A
  6. Wittmann,L.; Gordiy,I.; Friede,M.; Helmich-Paris,B.; Grimme,S.; Hansen,A.; Bursch,M.
     Extension of the D3 and D4 London Dispersion Corrections to the full Actinides Series
     Phys. Chem. Chem. Phys., 2024 26(32)21379-21394
     doi.org/https://doi.org/10.1039/D4CP01514B 

List of suggested additional citations. These are papers that are important in the 'surrounding' of 
of this run, or papers that preceded the highly important papers. If you like your results we are grateful for a citation.

  1. Neese,F.
     The ORCA program system
     WIRES Comput. Molec. Sci., 2012 2(1)73-78
     doi.org/10.1002/wcms.81
  2. Neese,F.
     Software update: the ORCA program system, version 4.0
     WIRES Comput. Molec. Sci., 2018 8(1)1-6
     doi.org/10.1002/wcms.1327
  3. Neese,F.; Wennmohs,F.; Becker,U.; Riplinger,C.
     The ORCA quantum chemistry program package
     J. Chem. Phys., 2020 152 Art. No. L224108
     doi.org/10.1063/5.0004608

List of optional additional citations

  1. Neese,F.
     Approximate second-order SCF convergence for spin unrestricted wavefunctions
     Chem. Phys. Lett., 2000 325(1-3)93-98
     doi.org/10.1016/s0009-2614(00)00662-x

Timings for individual modules:

Sum of individual times          ...       24.360 sec (=   0.406 min)
Startup calculation              ...        0.978 sec (=   0.016 min)   4.0 %
SCF iterations                   ...       20.726 sec (=   0.345 min)  85.1 %
Property calculations            ...        2.656 sec (=   0.044 min)  10.9 %
                             ****ORCA TERMINATED NORMALLY****
TOTAL RUN TIME: 0 days 0 hours 0 minutes 30 seconds 536 msec
