
                                 *****************
                                 * O   R   C   A *
                                 *****************

                                            #,                                       
                                            ###                                      
                                            ####                                     
                                            #####                                    
                                            ######                                   
                                           ########,                                 
                                     ,,################,,,,,                         
                               ,,#################################,,                 
                          ,,##########################################,,             
                       ,#########################################, ''#####,          
                    ,#############################################,,   '####,        
                  ,##################################################,,,,####,       
                ,###########''''           ''''###############################       
              ,#####''   ,,,,##########,,,,          '''####'''          '####       
            ,##' ,,,,###########################,,,                        '##       
           ' ,,###''''                  '''############,,,                           
         ,,##''                                '''############,,,,        ,,,,,,###''
      ,#''                                            '''#######################'''  
     '                                                          ''''####''''         
             ,#######,   #######,   ,#######,      ##                                
            ,#'     '#,  ##    ##  ,#'     '#,    #''#        ,####,   ,####,        
            ##       ##  ##   ,#'  ##            #'  '#       #'       #'  '#        
            ##       ##  #######   ##           ,######,      #####,   #    #        
            '#,     ,#'  ##    ##  '#,     ,#' ,#      #,     #,   #   #,  ,#        
             '#######'   ##     ##  '#######'  #'      '#     '####' # '####'        



                #########################################################
                #                        -***-                          #
                #          Department of theory and spectroscopy        #
                #                                                       #
                #                      Frank Neese                      #
                #                                                       #
                #     Directorship, Architecture, Infrastructure        #
                #                    SHARK, DRIVERS                     #
                #        Core code/Algorithms in most modules           #
                #                                                       #
                #        Max Planck Institute fuer Kohlenforschung      #
                #                Kaiser Wilhelm Platz 1                 #
                #                 D-45470 Muelheim/Ruhr                 #
                #                      Germany                          #
                #                                                       #
                #                  All rights reserved                  #
                #                        -***-                          #
                #########################################################


                         Program Version 6.0.1  -  RELEASE   -


 With contributions from (in alphabetic order):
[Max-Planck-Institut fuer Kohlenforschung]                               
  Daniel Aravena         : Magnetic Suceptibility                        
  Michael Atanasov       : Ab Initio Ligand Field Theory (pilot matlab implementation)
  Alexander A. Auer      : GIAO ZORA, VPT2 properties, NMR spectrum      
  Ute Becker             : All parallelization in ORCA, NUMFREQ, NUMCALC 
  Giovanni Bistoni       : ED, misc. LED, open-shell LED, HFLD           
  Martin Brehm           : Molecular dynamics                            
  Dmytro Bykov           : pre 5.0 version of the SCF Hessian            
  Marcos Casanova-Páez   : Triplet and SCS-CIS(D). UHF-(DLPNO)-IP/EA/STEOM-CCSD. UHF-CVS-IP/STEOM-CCSD   
  Vijay G. Chilkuri      : MRCI spin determinant printing, contributions to CSF-ICE 
  Pauline Colinet        : FMM embedding                                 
  Dipayan Datta          : RHF DLPNO-CCSD density                        
  Achintya Kumar Dutta   : EOM-CC, STEOM-CC                              
  Nicolas Foglia         : Exact transition moments, OPA infrastructure, MCD improvements    
  Dmitry Ganyushin       : Spin-Orbit,Spin-Spin,Magnetic field MRCI      
  Miquel Garcia-Rates    : C-PCM and meta-GGA Hessian, CCSD/C-PCM, Gaussian charge scheme 
  Tiago L. C. Gouveia    : GS-ROHF, GS-ROCIS                             
  Yang Guo               : DLPNO-NEVPT2, F12-NEVPT2, CIM, IAO-localization        
  Andreas Hansen         : Spin unrestricted coupled pair/coupled cluster methods 
  Ingolf Harden          : AUTO-CI MPn and infrastructure                
  Benjamin Helmich-Paris : MC-RPA, TRAH-(SCF,CASSCF), AVAS, COSX integrals, SCF dyn. polar. 
  Lee Huntington         : MR-EOM, pCC                                   
  Robert Izsak           : Overlap fitted RIJCOSX, COSX-SCS-MP3, EOM     
  Riya Kayal             : Wick's Theorem for AUTO-CI, AUTO-CI UHF-CCSDT 
  Emily Kempfer          : AUTO-CI, RHF CISDT and CCSDT                  
  Christian Kollmar      : KDIIS, OOCD, Brueckner-CCSD(T), CCSD density, CASPT2, CASPT2-K, improved NEVPT2 
  Axel Koslowski         : Symmetry handling                             
  Simone Kossmann        : meta-GGA functionals, TD-DFT gradient, OOMP2, (MP2 Hessian; deprecated post 5.0) 
  Lucas Lang             : DCDCAS                                        
  Marvin Lechner         : AUTO-CI (C++ implementation), FIC-MRCC        
  Spencer Leger          : CASSCF response                               
  Dagmar Lenk            : GEPOL surface, SMD, ORCA-2-JSON               
  Dimitrios Liakos       : Extrapolation schemes; Compound Job, initial MDCI parallelization 
  Dimitrios Manganas     : Further ROCIS development; embedding schemes. LFT, Crystal Embedding 
  Dimitrios Pantazis     : SARC Basis sets                               
  Anastasios Papadopoulos: AUTO-CI, single reference methods and gradients 
  Taras Petrenko         : pre 6.0 DFT Hessian and TD-DFT gradient, (ASA, deprecated), ECA, 1-Electron XAS/XES, NRVS 
  Peter Pinski           : DLPNO-MP2, DLPNO-MP2 Gradient                 
  Christoph Reimann      : Effective Core Potentials                     
  Marius Retegan         : Local ZFS, SOC                                
  Christoph Riplinger    : Optimizer, TS searches, QM/MM, DLPNO-CCSD(T), (RO)-DLPNO pert. Triples 
  Michael Roemelt        : Original ROCIS implementation                 
  Masaaki Saitow         : Open-shell DLPNO-CCSD energy and density      
  Barbara Sandhoefer     : DKH picture change effects                    
  Kantharuban Sivalingam : CASSCF convergence/infrastructure, NEVPT2 and variants, FIC-MRCI 
  Bernardo de Souza      : ESD, SOC TD-DFT                               
  Georgi L. Stoychev     : AutoAux, RI-MP2 NMR, DLPNO-MP2 response, X2C  
  Van Anh Tran           : RI-MP2 g-tensors                              
  Willem Van den Heuvel  : Paramagnetic NMR                              
  Zikuan Wang            : NOTCH, Electric field optimization            
  Frank Wennmohs         : Technical directorship and infrastructure     
  Hang Xu                : AUTO-CI-Response properties                   
                                                                         
[FACCTs GmbH]                                                            
  Markus Bursch, Miquel Garcia-Rates, Christoph Riplinger, Bernardo de Souza, Georgi L. Stoychev 
                                                                 
  APM, Basis sets (HGBS, AHGBS, def-TZVP (Ac-Lr), def2-XVPD (La-Lu)), CI-OPT, improved COSX, DLPNO-Multilevel,           
  DOCKER, DRACO, updates on ESD, GOAT, IRC, LR-CPCM, MBIS, meta-GGA TD-DFT gradient, ML-optimized integration grids, 
  MM, NACMEs, nearIR, NEB, NEB-TS, NL-DFT gradient (VV10), 2- and 3-layer-ONIOM, interface openCOSMO-RS, QMMM,   
  Crystal-QMMM, SF, symmetry and pop. for TD-DFT, r2SCAN hybrids, SOLVATOR                                   
                                                                         
[Other institutions]                                                     
  V. Asgeirsson          : NEB                                           
  Christoph Bannwarth    : sTDA-DFT, sTD-DFT, PBEh-3c, B97-3c, D3        
  Sebastian Ehlert       : rSCAN, r2SCAN, r2SCAN-3c, D4, dhf basis sets  
  Marvin Friede          : D4 for Fr, Ra, Ac-Lr                          
  Lars Goerigk           : TD-DFT with DH, B97 family of functionals     
  Stefan Grimme          : VdW corrections, initial TS optimization, DFT functionals, gCP, sTDA/sTD-DF 
  Waldemar Hujo          : DFT-NL                                        
  H. Jonsson             : NEB                                           
  Holger Kruse           : gCP                                           
  Marcel Mueller         : wB97X-3c, vDZP basis set                      
  Hagen Neugebauer       : wr2SCAN                                       
  Tobias Risthaus        : range-separated hybrid DFT                    
  Lukas Wittmann         : regularized MP2, r2SCAN double-hybrids, wr2SCAN        
                                                                         
We gratefully acknowledge several colleagues who have allowed us to      
interface, adapt or use parts of their codes:                            
  Ed Valeev, F. Pavosevic, A. Kumar             : LibInt (2-el integral package), F12 methods 
  Garnet Chan, S. Sharma, J. Yang, R. Olivares  : DMRG                   
  Ulf Ekstrom                                   : XCFun DFT Library      
  Mihaly Kallay                                 : mrcc  (arbitrary order and MRCC methods)
  Frank Weinhold                                : gennbo (NPA and NBO analysis)           
  Simon Mueller                                 : openCOSMO-RS                            
  Christopher J. Cramer and Donald G. Truhlar   : smd solvation model                     
  S Lehtola, MJT Oliveira, MAL Marques          : LibXC Library                           
  Liviu Ungur et al                             : ANISO software                          


 Your calculation uses the libint2 library for the computation of 2-el integrals
 For citations please refer to: http://libint.valeyev.net

 Your ORCA version has been built with support for libXC version: 6.2.2
 For citations please refer to: https://libxc.gitlab.io

 This ORCA versions uses:
   CBLAS   interface :  Fast vector & matrix operations
   LAPACKE interface :  Fast linear algebra routines
   SCALAPACK package :  Parallel linear algebra routines
   Shared memory     :  Shared parallel matrices
   BLAS/LAPACK       :  OpenBLAS 0.3.27  USE64BITINT DYNAMIC_ARCH NO_AFFINITY Zen SINGLE_THREADED
        Core in use  :  Zen
   Copyright (c) 2011-2014, The OpenBLAS Project


Your calculation utilizes the geometrical counterpoise correction gCP
Please cite in your paper:
H.Kruse, S. Grimme J.Chem.Phys., 136, (2012), 154101 
   

Your calculation utilizes the atom-pairwise dispersion correction
based on EEQ partial charges (D4)


================================================================================

----- Orbital basis set information -----
Your calculation utilizes the basis: def2-SV(P)
   F. Weigend and R. Ahlrichs, Phys. Chem. Chem. Phys. 7, 3297 (2005).

----- AuxJ basis set information -----
Your calculation utilizes the auxiliary basis: def2/J
   F. Weigend, Phys. Chem. Chem. Phys. 8, 1057 (2006).

================================================================================
                                        WARNINGS
                       Please study these warnings very carefully!
================================================================================


================================================================================
                                       INPUT FILE
================================================================================
NAME = sp.inp
|  1> ! pbe def2-sv(p) def2/J RI DEFGRID1 loosescf d4 GCP(DFT/SV(P)) printgap
|  2> %output
|  3>     printlevel normal
|  4> end
|  5> * xyz 0 1
|  6> C 2.4733206395 -0.5120944306 0.2036974298
|  7> C 1.2459997291 0.2136816263 -0.3383334422
|  8> C -0.0334417991 -0.1895773153 0.3860016615
|  9> H 0.0670358372 -0.0095542593 1.4599952376
| 10> C -0.4616906803 -1.6218260308 0.12539231
| 11> Cl -1.3550068651 0.9055995011 -0.1570805647
| 12> H 3.3698332714 -0.128204096 -0.2762882094
| 13> H 2.4168605538 -1.5798096285 0.0103447446
| 14> H 2.5661725214 -0.3581966127 1.2765090394
| 15> H 1.1343076886 0.0067026574 -1.4045190808
| 16> H 1.3883249619 1.2899343806 -0.2206896818
| 17> H -1.4203238451 -1.822941856 0.5973767305
| 18> H -0.5563909901 -1.8014423759 -0.9431297799
| 19> H 0.2745189758 -2.3086792299 0.535957518
| 20> *
| 21> 
| 22>                          ****END OF INPUT****
================================================================================

                       ****************************
                       * Single Point Calculation *
                       ****************************

---------------------------------
CARTESIAN COORDINATES (ANGSTROEM)
---------------------------------
  C      2.473321   -0.512094    0.203697
  C      1.246000    0.213682   -0.338333
  C     -0.033442   -0.189577    0.386002
  H      0.067036   -0.009554    1.459995
  C     -0.461691   -1.621826    0.125392
  Cl    -1.355007    0.905600   -0.157081
  H      3.369833   -0.128204   -0.276288
  H      2.416861   -1.579810    0.010345
  H      2.566173   -0.358197    1.276509
  H      1.134308    0.006703   -1.404519
  H      1.388325    1.289934   -0.220690
  H     -1.420324   -1.822942    0.597377
  H     -0.556391   -1.801442   -0.943130
  H      0.274519   -2.308679    0.535958

----------------------------
CARTESIAN COORDINATES (A.U.)
----------------------------
  NO LB      ZA    FRAG     MASS         X           Y           Z
   0 C     6.0000    0    12.011    4.673899   -0.967718    0.384932
   1 C     6.0000    0    12.011    2.354598    0.403800   -0.639358
   2 C     6.0000    0    12.011   -0.063196   -0.358249    0.729437
   3 H     1.0000    0     1.008    0.126679   -0.018055    2.758991
   4 C     6.0000    0    12.011   -0.872469   -3.064807    0.236957
   5 Cl   17.0000    0    35.453   -2.560592    1.711335   -0.296839
   6 H     1.0000    0     1.008    6.368062   -0.242271   -0.522109
   7 H     1.0000    0     1.008    4.567205   -2.985408    0.019549
   8 H     1.0000    0     1.008    4.849363   -0.676894    2.412252
   9 H     1.0000    0     1.008    2.143531    0.012666   -2.654156
  10 H     1.0000    0     1.008    2.623554    2.437623   -0.417043
  11 H     1.0000    0     1.008   -2.684023   -3.444861    1.128878
  12 H     1.0000    0     1.008   -1.051427   -3.404233   -1.782257
  13 H     1.0000    0     1.008    0.518766   -4.362771    1.012813

--------------------------------
INTERNAL COORDINATES (ANGSTROEM)
--------------------------------
 C      0   0   0     0.000000000000     0.00000000     0.00000000
 C      1   0   0     1.525406492734     0.00000000     0.00000000
 C      2   1   0     1.524549028570   112.36794044     0.00000000
 H      3   2   1     1.093602422086   110.23960640    56.71171849
 C      3   2   1     1.517448754123   113.88519151   291.87722852
 Cl     3   2   1     1.800245757464   108.16987480   171.33600562
 H      1   2   3     1.086964995754   109.79538284   185.20610786
 H      1   2   3     1.086549007628   111.25404575    65.53422084
 H      1   2   3     1.087764110467   110.59837871   304.74972736
 H      2   1   3     1.091818309718   109.82231975   238.31015809
 H      2   1   3     1.091978258662   109.01349101   120.43415653
 H      5   3   2     1.087287640413   110.41733120   184.85493134
 H      5   3   2     1.087644076299   110.43625497   304.99521259
 H      5   3   2     1.087352640531   109.89407694    65.28273131

---------------------------
INTERNAL COORDINATES (A.U.)
---------------------------
 C      0   0   0     0.000000000000     0.00000000     0.00000000
 C      1   0   0     2.882600514173     0.00000000     0.00000000
 C      2   1   0     2.880980141734   112.36794044     0.00000000
 H      3   2   1     2.066609077135   110.23960640    56.71171849
 C      3   2   1     2.867562567553   113.88519151   291.87722852
 Cl     3   2   1     3.401971455360   108.16987480   171.33600562
 H      1   2   3     2.054066159133   109.79538284   185.20610786
 H      1   2   3     2.053280055501   111.25404575    65.53422084
 H      1   2   3     2.055576267090   110.59837871   304.74972736
 H      2   1   3     2.063237593367   109.82231975   238.31015809
 H      2   1   3     2.063539853068   109.01349101   120.43415653
 H      5   3   2     2.054675869178   110.41733120   184.85493134
 H      5   3   2     2.055349435386   110.43625497   304.99521259
 H      5   3   2     2.054798701599   109.89407694    65.28273131

---------------------
BASIS SET INFORMATION
---------------------
There are 3 groups of distinct atoms

 Group   1 Type C   : 7s4p1d contracted to 3s2p1d pattern {511/31/1}
 Group   2 Type H   : 4s contracted to 2s pattern {31}
 Group   3 Type Cl  : 10s7p1d contracted to 4s3p1d pattern {5311/511/1}

Atom   0C    basis set group =>   1
Atom   1C    basis set group =>   1
Atom   2C    basis set group =>   1
Atom   3H    basis set group =>   2
Atom   4C    basis set group =>   1
Atom   5Cl   basis set group =>   3
Atom   6H    basis set group =>   2
Atom   7H    basis set group =>   2
Atom   8H    basis set group =>   2
Atom   9H    basis set group =>   2
Atom  10H    basis set group =>   2
Atom  11H    basis set group =>   2
Atom  12H    basis set group =>   2
Atom  13H    basis set group =>   2
---------------------------------
AUXILIARY/J BASIS SET INFORMATION
---------------------------------
There are 3 groups of distinct atoms

 Group   1 Type C   : 12s5p4d2f1g contracted to 6s4p3d1f1g pattern {711111/2111/211/2/1}
 Group   2 Type H   : 5s2p1d contracted to 3s1p1d pattern {311/2/1}
 Group   3 Type Cl  : 14s5p5d2f1g contracted to 8s4p3d1f1g pattern {71111111/2111/311/2/1}

Atom   0C    basis set group =>   1
Atom   1C    basis set group =>   1
Atom   2C    basis set group =>   1
Atom   3H    basis set group =>   2
Atom   4C    basis set group =>   1
Atom   5Cl   basis set group =>   3
Atom   6H    basis set group =>   2
Atom   7H    basis set group =>   2
Atom   8H    basis set group =>   2
Atom   9H    basis set group =>   2
Atom  10H    basis set group =>   2
Atom  11H    basis set group =>   2
Atom  12H    basis set group =>   2
Atom  13H    basis set group =>   2
------------------------------------------------------------------------------
                             ORCA STARTUP CALCULATIONS
                           -- RI-GTO INTEGRALS CHOSEN --
------------------------------------------------------------------------------
------------------------------------------------------------------------------
                   ___                                                        
                  /   \      - P O W E R E D   B Y -                         
                 /     \                                                     
                 |  |  |   _    _      __       _____    __    __             
                 |  |  |  | |  | |    /  \     |  _  \  |  |  /  |          
                  \  \/   | |  | |   /    \    | | | |  |  | /  /          
                 / \  \   | |__| |  /  /\  \   | |_| |  |  |/  /          
                |  |  |   |  __  | /  /__\  \  |    /   |      \           
                |  |  |   | |  | | |   __   |  |    \   |  |\   \          
                \     /   | |  | | |  |  |  |  | |\  \  |  | \   \       
                 \___/    |_|  |_| |__|  |__|  |_| \__\ |__|  \__/        
                                                                              
                      - O R C A' S   B I G   F R I E N D -                    
                                      &                                       
                       - I N T E G R A L  F E E D E R -                       
                                                                              
 v1 FN, 2020, v2 2021, v3 2022-2024                                           
------------------------------------------------------------------------------


----------------------
SHARK INTEGRAL PACKAGE
----------------------

Number of atoms                             ...     14
Number of basis functions                   ...     92
Number of shells                            ...     50
Maximum angular momentum                    ...      2
Integral batch strategy                     ... SHARK/LIBINT Hybrid
RI-J (if used) integral strategy            ... SPLIT-RIJ (Revised 2003 algorithm where possible)
Printlevel                                  ...      1
Contraction scheme used                     ... SEGMENTED contraction
Prescreening option                         ... SCHWARTZ
   Thresh                                   ... 1.000e-09
   Tcut                                     ... 1.000e-10
   Tpresel                                  ... 1.000e-10 
Coulomb Range Separation                    ... NOT USED
Exchange Range Separation                   ... NOT USED
Multipole approximations                    ... NOT USED
Finite Nucleus Model                        ... NOT USED
CABS basis                                  ... NOT available
Auxiliary Coulomb fitting basis             ... AVAILABLE
   # of basis functions in Aux-J            ...    346
   # of shells in Aux-J                     ...    122
   Maximum angular momentum in Aux-J        ...      4
Auxiliary J/K fitting basis                 ... NOT available
Auxiliary Correlation fitting basis         ... NOT available
Auxiliary 'external' fitting basis          ... NOT available

Checking pre-screening integrals            ... done (  0.0 sec) Dimension = 50
Check shell pair data                       ... done (  0.0 sec)
Shell pair information
Shell pair cut-off parameter TPreSel        ...   1.0e-10
Total number of shell pairs                 ...      1275
Shell pairs after pre-screening             ...      1240
Total number of primitive shell pairs       ...      5355
Primitive shell pairs kept                  ...      3866
          la=0 lb=0:    574 shell pairs
          la=1 lb=0:    365 shell pairs
          la=1 lb=1:     65 shell pairs
          la=2 lb=0:    167 shell pairs
          la=2 lb=1:     54 shell pairs
          la=2 lb=2:     15 shell pairs

Calculating one electron integrals          ... done (  0.0 sec)
Calculating RI/J V-Matrix + Cholesky decomp.... done (  0.0 sec)
Calculating Nuclear repulsion               ... done (  0.0 sec) ENN=    232.686492125486 Eh

Diagonalization of the overlap matrix:
Smallest eigenvalue                        ... 2.219e-03
Time for diagonalization                   ...    0.001 sec
Threshold for overlap eigenvalues          ... 1.000e-07
Number of eigenvalues below threshold      ... 0
Time for construction of square roots      ...    0.003 sec
Total time needed                          ...    0.005 sec

-------------------
DFT GRID GENERATION
-------------------

General Integration Accuracy     IntAcc      ... 4.159
Radial Grid Type                 RadialGrid  ... OptM3 with GC (2021)
Angular Grid (max. ang.)         AngularGrid ... 3 (Lebedev-194)
Angular grid pruning method      GridPruning ... 4 (adaptive)
Weight generation scheme         WeightScheme... mBecke (2022)
Basis function cutoff            BFCut       ... 1.0000e-10
Integration weight cutoff        WCut        ... 1.0000e-14
Partially contracted basis set               ... off
Rotationally invariant grid construction     ... off
Angular grids for H and He will be reduced by one unit

Total number of grid points                  ...    29925
Total number of batches                      ...      475
Average number of points per batch           ...       63
Average number of grid points per atom       ...     2138
Initializing property integral containers    ... done (  0.0 sec)

SHARK setup successfully completed in   0.2 seconds

Maximum memory used throughout the entire STARTUP-calculation: 15.8 MB
-------------------------------------------------------------------------------
                                 ORCA GUESS
                   Start orbitals & Density for SCF / CASSCF
-------------------------------------------------------------------------------

------------
SCF SETTINGS
------------
Hamiltonian:
 Density Functional     Method          .... DFT(GTOs)
 Exchange Functional    Exchange        .... PBE
   PBE kappa parameter   XKappa         ....  0.804000
   PBE mue parameter    XMuePBE         ....  0.219520
 Correlation Functional Correlation     .... PBE
   PBE beta parameter  CBetaPBE         ....  0.066725
 LDA part of GGA corr.  LDAOpt          .... PW91-LDA
 Gradients option       PostSCFGGA      .... off
   NL short-range parameter             ....  6.400000
 RI-approximation to the Coulomb term is turned on
   Number of AuxJ basis functions       .... 346


General Settings:
 Integral files         IntName         .... sp
 Hartree-Fock type      HFTyp           .... RHF
 Total Charge           Charge          ....    0
 Multiplicity           Mult            ....    1
 Number of Electrons    NEL             ....   50
 Basis Dimension        Dim             ....   92
 Nuclear Repulsion      ENuc            ....    232.6864921255 Eh

Convergence Acceleration:
 AO-DIIS                CNVDIIS         .... on
   Start iteration      DIISMaxIt       ....    12
   Startup error        DIISStart       ....  0.200000
   # of expansion vecs  DIISMaxEq       ....     5
   Bias factor          DIISBfac        ....   1.050
   Max. coefficient     DIISMaxC        ....  10.000
 MO-DIIS                CNVKDIIS        .... off
 Trust-Rad. Augm. Hess. CNVTRAH         .... auto
   Auto Start mean grad. ratio tolernc. ....  1.125000
   Auto Start start iteration           ....    50
   Auto Start num. interpolation iter.  ....    10
   Max. Number of Micro iterations      ....    24
   Max. Number of Macro iterations      .... Maxiter - #DIIS iter
   Number of Davidson start vectors     ....     2
   Converg. threshold    (grad. norm)   ....   1.000e-04
   Grad. Scal. Fac. for Micro threshold ....   0.100
   Minimum threshold for Micro iter.    ....   1.000e-02
   NR start threshold (gradient norm)   ....   1.000e-04
   Initial trust radius                 ....   0.400
   Minimum AH scaling param. (alpha)    ....   1.000
   Maximum AH scaling param. (alpha)    .... 1000.000
   Quad. conv. algorithm                .... NR
   White noise on init. David. guess    .... on
   Maximum white noise                  ....   0.010
   Pseudo random numbers                .... off
   Inactive MOs                         .... canonical
   Orbital update algorithm             .... Taylor
   Preconditioner                       .... Diag
   Full preconditioner red. dimension   ....   250
 SOSCF                  CNVSOSCF        .... on
   Start iteration      SOSCFMaxIt      ....   150
   Startup grad/error   SOSCFStart      ....  0.003300
   Hessian update       SOSCFHessUp     .... L-BFGS
 Level Shifting         CNVShift        .... on
   Level shift para.    LevelShift      ....    0.2500
   Turn off err/grad.   ShiftErr        ....    0.0010
 Zerner damping         CNVZerner       .... off
 Static damping         CNVDamp         .... on
   Fraction old density DampFac         ....    0.7000
   Max. Damping (<1)    DampMax         ....    0.9800
   Min. Damping (>=0)   DampMin         ....    0.0000
   Turn off err/grad.   DampErr         ....    0.1000

SCF Procedure:
 Maximum # iterations   MaxIter         ....   125
 SCF integral mode      SCFMode         .... Direct
   Integral package                     .... SHARK and LIBINT hybrid scheme
 Reset frequency        DirectResetFreq ....    20
 Integral Threshold     Thresh          ....  1.000e-09 Eh
 Primitive CutOff       TCut            ....  1.000e-10 Eh

Convergence Tolerance:
 Convergence Check Mode ConvCheckMode   .... Total+1el-Energy
 Convergence forced     ConvForced      .... 0
 Energy Change          TolE            ....  1.000e-05 Eh
 1-El. energy change                    ....  1.000e-02 Eh
 Orbital Gradient       TolG            ....  1.000e-04
 Orbital Rotation angle TolX            ....  1.000e-04
 DIIS Error             TolErr          ....  5.000e-04

------------------------------
INITIAL GUESS: MODEL POTENTIAL
------------------------------
Loading Hartree-Fock densities                     ... done
Calculating cut-offs                               ... done
Initializing the effective Hamiltonian             ... done
Setting up the integral package (SHARK)            ... done
Starting the Coulomb interaction                   ... done (   0.0 sec)
Making the grid                                    ... done (   0.1 sec)
Mapping shells                                     ... done
Starting the XC term evaluation                    ... done (   0.1 sec)
  promolecular density results
     # of electrons  =     49.998627099
     EX              =    -50.502042580
     EC              =     -1.733208630
     EX+EC           =    -52.235251210
Transforming the Hamiltonian                       ... done (   0.0 sec)
Diagonalizing the Hamiltonian                      ... done (   0.0 sec)
Back transforming the eigenvectors                 ... done (   0.0 sec)
Now organizing SCF variables                       ... done
                      ------------------
                      INITIAL GUESS DONE (   0.2 sec)
                      ------------------
             **** ENERGY FILE WAS UPDATED (sp.en.tmp) ****
Finished Guess after   0.2 sec
Maximum memory used throughout the entire GUESS-calculation: 11.6 MB

-------------------------------------------------------------------------------------------
                                      ORCA LEAN-SCF
                              memory conserving SCF solver
-------------------------------------------------------------------------------------------

----------------------------------------D-I-I-S--------------------------------------------
Iteration    Energy (Eh)           Delta-E    RMSDP     MaxDP     DIISErr   Damp  Time(sec)
-------------------------------------------------------------------------------------------
               ***  Starting incremental Fock matrix formation  ***
    1    -617.2224884268218830     0.00e+00  4.60e-03  8.33e-02  1.57e-01  0.700   0.2
    2    -617.2862580718175423    -6.38e-02  3.24e-03  4.78e-02  7.33e-02  0.700   0.2
                               ***Turning on AO-DIIS***
    3    -617.3080206373812189    -2.18e-02  1.38e-03  1.41e-02  1.98e-02  0.700   0.2
    4    -617.3208210704905241    -1.28e-02  2.21e-03  2.11e-02  8.62e-03  0.000   0.2
    5    -617.3501097779485463    -2.93e-02  5.45e-04  6.25e-03  7.37e-03  0.000   0.2
                              *** Initializing SOSCF ***
---------------------------------------S-O-S-C-F--------------------------------------
Iteration    Energy (Eh)           Delta-E    RMSDP     MaxDP     MaxGrad    Time(sec)
--------------------------------------------------------------------------------------
    6    -617.3504474601993479    -3.38e-04  1.87e-04  1.86e-03  1.78e-03     0.2
               *** Restarting incremental Fock matrix formation ***
    7    -617.3504718740060753    -2.44e-05  1.36e-04  1.15e-03  2.33e-04     0.2
    8    -617.3504719364528910    -6.24e-08  3.84e-05  7.44e-04  2.16e-04     0.2
                 **** Energy Check signals convergence ****

               *****************************************************
               *                     SUCCESS                       *
               *           SCF CONVERGED AFTER   8 CYCLES          *
               *****************************************************

             **** ENERGY FILE WAS UPDATED (sp.en.tmp) ****

----------------
TOTAL SCF ENERGY
----------------

Total Energy       :       -617.35047193645289 Eh          -16798.96038 eV

Components:
Nuclear Repulsion  :        232.68649212548564 Eh            6331.72135 eV
Electronic Energy  :       -850.03696406193853 Eh          -23130.68173 eV
One Electron Energy:      -1308.09331340874701 Eh          -35595.02867 eV
Two Electron Energy:        458.05634934680842 Eh           12464.34694 eV

Virial components:
Potential Energy   :      -1232.32269361447925 Eh          -33533.20529 eV
Kinetic Energy     :        614.97222167802636 Eh           16734.24490 eV
Virial Ratio       :          2.00386724826682

DFT components:
N(Alpha)           :       25.000051577577 electrons
N(Beta)            :       25.000051577577 electrons
N(Total)           :       50.000103155155 electrons
E(X)               :      -51.154881713327 Eh       
E(C)               :       -1.742109602679 Eh       
E(XC)              :      -52.896991316006 Eh       

---------------
SCF CONVERGENCE
---------------

  Last Energy change         ...    6.2447e-08  Tolerance :   1.0000e-05
  Last MAX-Density change    ...    7.4446e-04  Tolerance :   1.0000e-03
  Last RMS-Density change    ...    3.8403e-05  Tolerance :   1.0000e-04
  Last DIIS Error            ...    1.7783e-03  Tolerance :   5.0000e-04
  Last Orbital Gradient      ...    2.1606e-04  Tolerance :   1.0000e-04
  Last Orbital Rotation      ...    1.8926e-04  Tolerance :   1.0000e-04


----------------
ORBITAL ENERGIES
----------------

  NO   OCC          E(Eh)            E(eV) 
   0   2.0000    -100.610653     -2737.7551 
   1   2.0000      -9.947552      -270.6867 
   2   2.0000      -9.894234      -269.2358 
   3   2.0000      -9.886131      -269.0153 
   4   2.0000      -9.884193      -268.9626 
   5   2.0000      -9.146780      -248.8965 
   6   2.0000      -6.978042      -189.8822 
   7   2.0000      -6.966552      -189.5695 
   8   2.0000      -6.966512      -189.5684 
   9   2.0000      -0.782053       -21.2808 
  10   2.0000      -0.697654       -18.9841 
  11   2.0000      -0.650439       -17.6993 
  12   2.0000      -0.576846       -15.6968 
  13   2.0000      -0.513625       -13.9765 
  14   2.0000      -0.429495       -11.6871 
  15   2.0000      -0.415769       -11.3136 
  16   2.0000      -0.393101       -10.6968 
  17   2.0000      -0.364892        -9.9292 
  18   2.0000      -0.352310        -9.5868 
  19   2.0000      -0.337816        -9.1924 
  20   2.0000      -0.310885        -8.4596 
  21   2.0000      -0.307758        -8.3745 
  22   2.0000      -0.299859        -8.1596 
  23   2.0000      -0.241447        -6.5701 
  24   2.0000      -0.240252        -6.5376 
  25   0.0000       0.009856         0.2682 
  26   0.0000       0.040091         1.0909 
  27   0.0000       0.065004         1.7689 
  28   0.0000       0.076595         2.0842 
  29   0.0000       0.089612         2.4385 
  30   0.0000       0.103282         2.8105 
  31   0.0000       0.118238         3.2174 
  32   0.0000       0.121259         3.2996 
  33   0.0000       0.130438         3.5494 
  34   0.0000       0.147564         4.0154 
  35   0.0000       0.176048         4.7905 
*Only the first 10 virtual orbitals were printed.

                    ********************************
                    * MULLIKEN POPULATION ANALYSIS *
                    ********************************

-----------------------
MULLIKEN ATOMIC CHARGES
-----------------------
   0 C :   -0.292587
   1 C :   -0.124766
   2 C :   -0.193795
   3 H :    0.119193
   4 C :   -0.223598
   5 Cl:   -0.138050
   6 H :    0.112396
   7 H :    0.109866
   8 H :    0.102667
   9 H :    0.093480
  10 H :    0.099204
  11 H :    0.116684
  12 H :    0.108548
  13 H :    0.110759
Sum of atomic charges:   -0.0000000

--------------------------------
MULLIKEN REDUCED ORBITAL CHARGES
--------------------------------
  0 C s       :     3.099630  s :     3.099630
      pz      :     1.058492  p :     3.163734
      px      :     1.042175
      py      :     1.063067
      dz2     :     0.009119  d :     0.029222
      dxz     :     0.004995
      dyz     :     0.001901
      dx2y2   :     0.008975
      dxy     :     0.004233

  1 C s       :     3.048791  s :     3.048791
      pz      :     1.043447  p :     3.039761
      px      :     0.944540
      py      :     1.051774
      dz2     :     0.011293  d :     0.036214
      dxz     :     0.006306
      dyz     :     0.002211
      dx2y2   :     0.010620
      dxy     :     0.005785

  2 C s       :     3.177834  s :     3.177834
      pz      :     1.073582  p :     2.964654
      px      :     0.915804
      py      :     0.975268
      dz2     :     0.013517  d :     0.051308
      dxz     :     0.007085
      dyz     :     0.006772
      dx2y2   :     0.010267
      dxy     :     0.013667

  3 H s       :     0.880807  s :     0.880807

  4 C s       :     3.073749  s :     3.073749
      pz      :     1.072875  p :     3.121407
      px      :     1.069755
      py      :     0.978777
      dz2     :     0.007509  d :     0.028442
      dxz     :     0.004240
      dyz     :     0.004573
      dx2y2   :     0.005226
      dxy     :     0.006894

  5 Cls       :     5.954712  s :     5.954712
      pz      :     3.878729  p :    11.152913
      px      :     3.576920
      py      :     3.697265
      dz2     :     0.004368  d :     0.030425
      dxz     :     0.005417
      dyz     :     0.003513
      dx2y2   :     0.006122
      dxy     :     0.011006

  6 H s       :     0.887604  s :     0.887604

  7 H s       :     0.890134  s :     0.890134

  8 H s       :     0.897333  s :     0.897333

  9 H s       :     0.906520  s :     0.906520

 10 H s       :     0.900796  s :     0.900796

 11 H s       :     0.883316  s :     0.883316

 12 H s       :     0.891452  s :     0.891452

 13 H s       :     0.889241  s :     0.889241


------------------------
MULLIKEN OVERLAP CHARGES
------------------------
B(  0-C ,  1-C ) :   0.7851 B(  0-C ,  2-C ) :  -0.0872 B(  0-C ,  6-H ) :   0.7255 
B(  0-C ,  7-H ) :   0.7564 B(  0-C ,  8-H ) :   0.7561 B(  1-C ,  2-C ) :   0.7576 
B(  1-C ,  3-H ) :  -0.0749 B(  1-C ,  4-C ) :  -0.1164 B(  1-C ,  5-Cl) :  -0.1554 
B(  1-C ,  8-H ) :  -0.0538 B(  1-C ,  9-H ) :   0.6835 B(  1-C , 10-H ) :   0.6869 
B(  2-C ,  3-H ) :   0.7403 B(  2-C ,  4-C ) :   0.8003 B(  2-C ,  5-Cl) :   0.5442 
B(  2-C , 10-H ) :  -0.0504 B(  3-H ,  4-C ) :  -0.0769 B(  3-H ,  5-Cl) :  -0.0638 
B(  4-C ,  5-Cl) :  -0.1506 B(  4-C , 11-H ) :   0.7202 B(  4-C , 12-H ) :   0.7288 
B(  4-C , 13-H ) :   0.6900 B(  7-H ,  8-H ) :  -0.0549 B(  9-H , 10-H ) :  -0.0624 



                     *******************************
                     * LOEWDIN POPULATION ANALYSIS *
                     *******************************

----------------------
LOEWDIN ATOMIC CHARGES
----------------------
   0 C :   -0.342041
   1 C :   -0.246905
   2 C :   -0.191257
   3 H :    0.121349
   4 C :   -0.350459
   5 Cl:    0.030223
   6 H :    0.125861
   7 H :    0.118418
   8 H :    0.119341
   9 H :    0.119923
  10 H :    0.120442
  11 H :    0.125934
  12 H :    0.124529
  13 H :    0.124642

-------------------------------
LOEWDIN REDUCED ORBITAL CHARGES
-------------------------------
  0 C s       :     2.944406  s :     2.944406
      pz      :     1.120953  p :     3.326943
      px      :     1.088232
      py      :     1.117758
      dz2     :     0.021934  d :     0.070693
      dxz     :     0.011880
      dyz     :     0.004768
      dx2y2   :     0.021216
      dxy     :     0.010894

  1 C s       :     2.915954  s :     2.915954
      pz      :     1.096089  p :     3.241859
      px      :     1.045287
      py      :     1.100484
      dz2     :     0.026315  d :     0.089091
      dxz     :     0.016752
      dyz     :     0.005156
      dx2y2   :     0.026108
      dxy     :     0.014760

  2 C s       :     2.947607  s :     2.947607
      pz      :     1.105511  p :     3.127335
      px      :     0.989067
      py      :     1.032757
      dz2     :     0.030937  d :     0.116315
      dxz     :     0.017185
      dyz     :     0.013529
      dx2y2   :     0.025742
      dxy     :     0.028922

  3 H s       :     0.878651  s :     0.878651

  4 C s       :     2.952836  s :     2.952836
      pz      :     1.132321  p :     3.326619
      px      :     1.123460
      py      :     1.070838
      dz2     :     0.019108  d :     0.071004
      dxz     :     0.010161
      dyz     :     0.010090
      dx2y2   :     0.014834
      dxy     :     0.016811

  5 Cls       :     5.791800  s :     5.791800
      pz      :     3.876511  p :    11.143686
      px      :     3.578702
      py      :     3.688473
      dz2     :     0.004862  d :     0.034291
      dxz     :     0.005914
      dyz     :     0.003839
      dx2y2   :     0.006419
      dxy     :     0.013257

  6 H s       :     0.874139  s :     0.874139

  7 H s       :     0.881582  s :     0.881582

  8 H s       :     0.880659  s :     0.880659

  9 H s       :     0.880077  s :     0.880077

 10 H s       :     0.879558  s :     0.879558

 11 H s       :     0.874066  s :     0.874066

 12 H s       :     0.875471  s :     0.875471

 13 H s       :     0.875358  s :     0.875358


---------------------------------
LOEWDIN BOND ORDERS (THRESH 0.050000)
---------------------------------
B(  0-C ,  1-C ) :   1.1212 B(  0-C ,  2-C ) :   0.0558 B(  0-C ,  6-H ) :   0.9358 
B(  0-C ,  7-H ) :   0.9387 B(  0-C ,  8-H ) :   0.9395 B(  1-C ,  2-C ) :   1.0914 
B(  1-C ,  4-C ) :   0.0524 B(  1-C ,  5-Cl) :   0.0792 B(  1-C ,  9-H ) :   0.9027 
B(  1-C , 10-H ) :   0.9011 B(  2-C ,  3-H ) :   0.8927 B(  2-C ,  4-C ) :   1.1295 
B(  2-C ,  5-Cl) :   1.1459 B(  4-C ,  5-Cl) :   0.0762 B(  4-C , 11-H ) :   0.9328 
B(  4-C , 12-H ) :   0.9338 B(  4-C , 13-H ) :   0.9223 

------------------------------------------
LOEWDIN REDUCED ORBITAL POPULATIONS PER MO
-------------------------------------------
THRESHOLD FOR PRINTING IS 0.1%%
                      0         1         2         3         4         5   
                 -100.61065  -9.94755  -9.89423  -9.88613  -9.88419  -9.14678
                   2.00000   2.00000   2.00000   2.00000   2.00000   2.00000
                  --------  --------  --------  --------  --------  --------
 0 C  s               0.0       0.0       0.0       0.0      99.7       0.0
 1 C  s               0.0       0.0      99.6       0.0       0.0       0.0
 2 C  s               0.0      99.7       0.0       0.0       0.0       0.0
 4 C  s               0.0       0.0       0.0      99.7       0.0       0.0
 4 C  py              0.0       0.1       0.0       0.0       0.0       0.0
 5 Cl s             100.0       0.0       0.0       0.0       0.0      99.9

                      6         7         8         9        10        11   
                  -6.97804  -6.96655  -6.96651  -0.78205  -0.69765  -0.65044
                   2.00000   2.00000   2.00000   2.00000   2.00000   2.00000
                  --------  --------  --------  --------  --------  --------
 0 C  s               0.0       0.0       0.0       1.5      17.9       8.6
 0 C  pz              0.0       0.0       0.0       0.0       0.2       0.0
 0 C  px              0.0       0.0       0.0       0.7       1.4       0.0
 0 C  py              0.0       0.0       0.0       0.1       0.4       0.2
 1 C  s               0.0       0.0       0.0       7.5      18.2       3.1
 1 C  pz              0.0       0.0       0.0       0.6       0.4       0.0
 1 C  px              0.0       0.0       0.0       2.0       1.5       2.6
 1 C  py              0.0       0.0       0.0       0.2       1.0       0.1
 2 C  s               0.0       0.0       0.0      24.4       1.2       3.8
 2 C  pz              0.0       0.0       0.0       1.1       0.0       0.2
 2 C  px              0.0       0.0       0.0       1.3       9.2       0.4
 2 C  py              0.0       0.0       0.0       0.8       1.7      11.3
 2 C  dxz             0.0       0.0       0.0       0.0       0.1       0.0
 2 C  dx2y2           0.0       0.0       0.0       0.0       0.0       0.2
 2 C  dxy             0.0       0.0       0.0       0.1       0.2       0.1
 3 H  s               0.0       0.0       0.0       4.1       0.2       0.8
 4 C  s               0.0       0.0       0.0       6.0       1.4      29.2
 4 C  px              0.0       0.0       0.0       0.1       0.5       0.0
 4 C  py              0.0       0.0       0.0       3.0       0.0       0.1
 5 Cl s               0.0       0.0       0.0      36.6      26.1      11.0
 5 Cl pz             10.0      89.9       0.1       0.2       0.0       0.0
 5 Cl px             53.5       7.1      39.3       1.4       0.1       0.1
 5 Cl py             36.5       3.0      60.6       0.9       0.0       0.4
 5 Cl dxy             0.0       0.0       0.0       0.2       0.0       0.0
 6 H  s               0.0       0.0       0.0       0.2       3.4       2.2
 7 H  s               0.0       0.0       0.0       0.3       3.7       1.5
 8 H  s               0.0       0.0       0.0       0.3       3.6       1.8
 9 H  s               0.0       0.0       0.0       1.4       3.3       0.6
10 H  s               0.0       0.0       0.0       1.4       3.0       1.1
11 H  s               0.0       0.0       0.0       1.1       0.1       6.7
12 H  s               0.0       0.0       0.0       1.1       0.3       6.3
13 H  s               0.0       0.0       0.0       0.9       0.5       6.9

                     12        13        14        15        16        17   
                  -0.57685  -0.51363  -0.42949  -0.41577  -0.39310  -0.36489
                   2.00000   2.00000   2.00000   2.00000   2.00000   2.00000
                  --------  --------  --------  --------  --------  --------
 0 C  s              16.7       1.7       0.1       0.2       0.1       0.0
 0 C  pz              0.3       2.7       0.9       2.0      19.9       2.5
 0 C  px              3.2       1.1       0.0       9.3       0.5       5.1
 0 C  py              1.2       1.2      10.3       2.1       0.4      13.6
 0 C  dz2             0.0       0.0       0.0       0.0       0.1       0.1
 0 C  dx2y2           0.0       0.0       0.0       0.0       0.0       0.1
 1 C  s               7.8       7.0       0.5       0.0       0.2       0.2
 1 C  pz              0.1       8.4       3.8       4.6       9.4       2.2
 1 C  px              7.8       0.5       4.9       0.6       5.3       5.1
 1 C  py              1.6       1.2      15.2       4.2       3.1       2.1
 1 C  dxz             0.1       0.1       0.0       0.0       0.0       0.1
 1 C  dxy             0.1       0.0       0.0       0.0       0.0       0.0
 2 C  s               5.4      10.5       0.8       0.4       0.0       0.0
 2 C  pz              0.0      12.0      14.2       0.9       8.4       0.3
 2 C  px              4.8       0.1       0.0      15.0       1.4       0.1
 2 C  py              3.0       0.1       2.2       0.6       4.1      15.0
 2 C  dxy             0.0       0.0       0.0       0.0       0.0       0.1
 3 H  s               1.6      12.0       3.8       0.2       2.5       0.7
 4 C  s               5.8       3.3       0.7       0.0       0.1       0.0
 4 C  pz              0.0       2.6       5.8       0.6      13.9       0.2
 4 C  px              0.5       0.3       2.8      13.7       0.1       1.4
 4 C  py              1.8       5.1       7.1       4.3       1.0      17.2
 4 C  dz2             0.0       0.1       0.0       0.0       0.1       0.0
 4 C  dx2y2           0.0       0.1       0.1       0.0       0.0       0.0
 4 C  dxy             0.0       0.0       0.0       0.0       0.0       0.2
 5 Cl s               5.6       3.1       0.2       5.0       0.4       0.7
 5 Cl pz              0.1       1.7       0.8       1.1       0.6       1.4
 5 Cl px              1.5       1.4       0.5       6.1       3.6      10.8
 5 Cl py              0.1       1.1       1.6      10.0       0.2       0.2
 5 Cl dx2y2           0.0       0.0       0.0       0.0       0.0       0.2
 5 Cl dxy             0.0       0.1       0.1       0.2       0.0       0.0
 6 H  s               6.2       0.4       0.0       6.1       0.4       0.9
 7 H  s               6.4       1.0       4.6       0.5       0.6       8.6
 8 H  s               5.5       2.4       0.5       0.1       9.6       1.7
 9 H  s               2.3       7.3       1.7       0.9       5.0       0.5
10 H  s               2.9       3.7       9.0       1.0       0.8       0.3
11 H  s               2.6       1.4       5.2       2.3       0.4       0.0
12 H  s               2.0       4.1       0.3       0.2       7.1       0.1
13 H  s               2.4       1.5       1.7       7.4       0.2       7.7

                     18        19        20        21        22        23   
                  -0.35231  -0.33782  -0.31088  -0.30776  -0.29986  -0.24145
                   2.00000   2.00000   2.00000   2.00000   2.00000   2.00000
                  --------  --------  --------  --------  --------  --------
 0 C  s               0.1       0.0       0.1       0.2       0.1       0.0
 0 C  pz              1.9      11.4       0.0      13.4       0.6       0.0
 0 C  px             15.9       2.1      12.9       0.1       0.2       0.0
 0 C  py             11.1       0.4       1.6       0.6      12.8       0.0
 0 C  dz2             0.0       0.2       0.0       0.5       0.2       0.0
 0 C  dxz             0.2       0.0       0.1       0.1       0.0       0.0
 0 C  dx2y2           0.2       0.0       0.0       0.1       0.6       0.0
 1 C  s               0.6       0.0       0.0       0.1       0.0       0.0
 1 C  pz              0.1       3.0       0.3      19.7       1.6       0.0
 1 C  px              0.0       4.0      12.3       0.1       1.0       0.0
 1 C  py              1.6       2.5       0.2       0.8      21.2       0.0
 1 C  dz2             0.0       0.0       0.1       0.7       0.3       0.0
 1 C  dxz             0.0       0.0       0.2       0.1       0.0       0.0
 1 C  dx2y2           0.0       0.0       0.0       0.2       0.8       0.0
 1 C  dxy             0.1       0.1       0.1       0.0       0.0       0.0
 2 C  s               0.5       0.0       0.3       0.3       0.0       0.0
 2 C  pz              0.1       5.4       0.6       8.4       0.1       1.9
 2 C  px              0.1       0.4      11.0       2.4       1.3       0.2
 2 C  py              2.3       2.7       0.4       0.3       4.9       1.5
 2 C  dz2             0.0       0.1       0.3       0.4       0.1       0.4
 2 C  dxz             0.0       0.0       0.1       0.0       0.1       0.2
 2 C  dyz             0.0       0.3       0.0       0.1       0.0       0.0
 2 C  dx2y2           0.2       0.1       0.0       0.0       0.1       0.2
 2 C  dxy             0.0       0.0       0.6       0.0       0.2       0.0
 3 H  s               0.0       4.7       2.0       6.2       0.1       3.5
 4 C  s               0.1       0.0       0.0       0.0       0.1       0.7
 4 C  pz              0.7      27.1       0.1       4.6       0.7       0.1
 4 C  px             24.7       0.7       8.9       1.3       1.2       0.1
 4 C  py              0.4       0.9       1.0       0.0       7.4       3.3
 4 C  dz2             0.0       0.5       0.0       0.2       0.0       0.0
 4 C  dxz             0.2       0.0       0.1       0.0       0.0       0.0
 4 C  dyz             0.0       0.1       0.0       0.1       0.0       0.0
 4 C  dx2y2           0.2       0.0       0.1       0.0       0.1       0.0
 4 C  dxy             0.0       0.0       0.4       0.0       0.0       0.1
 5 Cl s               0.1       0.0       0.7       0.0       0.0       0.0
 5 Cl pz              0.4       2.7       6.1       3.2       0.5      43.3
 5 Cl px              0.1       0.4       8.5       1.9       2.7       4.6
 5 Cl py              0.7       0.3      14.8       0.1       0.1      37.8
 6 H  s              14.3       0.2       4.1       2.9       1.5       0.0
 7 H  s               5.3       0.0       0.2       0.0      11.2       0.0
 8 H  s               0.3       6.4       0.0       9.6       2.1       0.0
 9 H  s               0.2       1.3       0.6      14.3       4.2       0.3
10 H  s               0.2       0.8       0.0       0.1      19.0       0.2
11 H  s              13.2       1.0       4.1       3.0       2.1       0.2
12 H  s               0.1      17.3       0.4       3.6       0.2       0.4
13 H  s               3.5       2.6       6.5       0.0       0.4       0.9

                     24        25        26        27        28        29   
                  -0.24025   0.00986   0.04009   0.06500   0.07659   0.08961
                   2.00000   0.00000   0.00000   0.00000   0.00000   0.00000
                  --------  --------  --------  --------  --------  --------
 0 C  s               0.1       3.4       7.3       0.0       9.8       4.6
 0 C  pz              0.0       0.0       0.9       4.3       0.1       0.5
 0 C  px              1.8       0.2       1.2       0.0       3.0       0.7
 0 C  py              0.1       0.2       2.9       1.6       0.8       1.5
 0 C  dz2             0.0       0.0       0.0       0.3       0.0       0.0
 0 C  dxz             0.0       0.1       0.0       0.1       0.0       0.1
 0 C  dyz             0.0       0.0       0.1       0.0       0.0       0.2
 0 C  dx2y2           0.0       0.1       0.1       0.0       0.0       0.0
 0 C  dxy             0.0       0.1       0.1       0.0       0.0       0.2
 1 C  s               0.8       2.1       1.7       0.3       1.6      10.9
 1 C  pz              0.7       0.5       0.3       5.1       0.3       2.2
 1 C  px              4.4       0.1       0.0       0.0       0.8       1.3
 1 C  py              0.1       0.7       0.2       0.9       1.1       2.3
 1 C  dz2             0.0       0.1       0.1       0.6       0.2       0.1
 1 C  dxz             0.1       0.0       0.0       0.0       0.5       0.3
 1 C  dyz             0.0       0.0       0.2       0.0       0.0       0.1
 1 C  dx2y2           0.0       0.6       0.1       0.0       0.1       0.0
 1 C  dxy             0.1       0.2       0.0       0.0       0.0       0.3
 2 C  s               0.0       9.4       0.2       2.4       2.3       0.4
 2 C  pz              1.6       1.1       6.4       5.9       1.0       1.2
 2 C  px              1.6      13.7       4.2       0.0       0.2       2.6
 2 C  py              0.5       9.1       2.4       0.1       0.7       1.8
 2 C  dz2             0.1       0.1       0.3       0.4       0.3       0.0
 2 C  dxz             0.2       0.3       0.0       0.0       0.1       0.1
 2 C  dyz             0.0       0.1       0.2       0.2       0.1       0.1
 2 C  dx2y2           0.3       0.0       0.0       0.1       0.0       0.1
 2 C  dxy             0.0       0.8       0.2       0.0       0.0       0.0
 3 H  s               1.2       2.9       8.2      22.2       6.8       2.2
 4 C  s               0.1       1.4       5.4       3.3       9.5       0.2
 4 C  pz              0.0       0.0       0.3       3.0       0.3       2.1
 4 C  px              0.0       0.3       0.6       0.1       1.8       2.4
 4 C  py              0.9       0.7       2.3       0.6       1.2       0.5
 4 C  dxz             0.0       0.0       0.0       0.0       0.0       0.2
 4 C  dyz             0.0       0.0       0.4       0.2       0.0       0.1
 4 C  dx2y2           0.0       0.6       0.0       0.0       0.0       0.0
 4 C  dxy             0.0       0.3       0.2       0.0       0.0       0.0
 5 Cl s               0.0       2.4       1.5       0.0       0.1       1.4
 5 Cl pz             31.8       2.5       0.3       0.1       0.0       0.1
 5 Cl px             35.3      11.9       2.9       0.0       0.2       2.4
 5 Cl py             16.0       8.0       3.1       0.2       0.1       0.3
 5 Cl dz2             0.0       0.6       0.2       0.0       0.0       0.0
 5 Cl dxz             0.0       1.0       0.0       0.1       0.4       0.0
 5 Cl dyz             0.0       0.7       0.0       0.1       0.0       0.0
 5 Cl dx2y2           0.0       0.2       0.0       0.0       0.0       0.2
 5 Cl dxy             0.0       3.6       0.9       0.0       0.1       0.2
 6 H  s               0.7       4.2       2.4       0.7      19.6       0.3
 7 H  s               0.0       0.6      12.1       5.0       0.7       9.7
 8 H  s               0.0       1.8       8.0       8.8       5.6       1.8
 9 H  s               0.2       2.4       1.4      14.8       2.0      14.5
10 H  s               0.2       4.8       1.2       1.8       3.9      19.4
11 H  s               0.3       3.3       1.9       0.1      14.4       0.2
12 H  s               0.2       1.9       1.7      14.7       7.4       2.5
13 H  s               0.4       0.9      15.6       1.6       2.6       7.3

                     30        31        32        33        34        35   
                   0.10328   0.11824   0.12126   0.13044   0.14756   0.17605
                   0.00000   0.00000   0.00000   0.00000   0.00000   0.00000
                  --------  --------  --------  --------  --------  --------
 0 C  s               0.0       2.0       0.5       0.9       1.7       0.0
 0 C  pz              4.6       5.0       3.9       0.8       3.9       0.8
 0 C  px              1.2       5.7       1.0       4.0       2.9       0.3
 0 C  py              0.6       1.4       5.8       1.9       2.9       0.5
 0 C  dz2             0.0       0.2       0.4       0.0       0.8       0.0
 0 C  dxz             0.0       0.7       0.0       0.3       0.4       0.0
 0 C  dyz             0.2       0.2       0.1       0.1       0.1       0.1
 0 C  dx2y2           0.2       0.2       0.3       0.0       0.0       0.5
 0 C  dxy             0.3       0.3       0.0       0.1       0.1       0.1
 1 C  s               0.1       0.2       2.0       0.9       6.1       1.6
 1 C  pz              3.6       0.1       0.9       1.2       1.0       0.9
 1 C  px              0.0       2.0       0.1       0.5       2.2       5.7
 1 C  py              4.0       1.0       0.2       8.4       4.2       1.2
 1 C  dz2             0.2       0.0       0.3       0.1       0.0       0.1
 1 C  dxz             0.0       0.6       0.1       0.0       1.0       0.1
 1 C  dyz             0.2       0.5       0.0       0.0       0.5       0.5
 1 C  dx2y2           0.3       0.0       0.1       0.0       0.4       0.8
 1 C  dxy             0.1       0.2       0.1       0.0       0.0       1.9
 2 C  s               3.1       2.4       1.6       0.3       4.2      10.0
 2 C  pz              0.6       0.8       0.1       1.0       0.1       9.2
 2 C  px              0.8       0.5       0.9       0.5       5.7       0.9
 2 C  py              0.3       1.0       0.5       0.9       0.1       9.3
 2 C  dz2             0.2       0.1       0.0       0.0       0.0       1.6
 2 C  dxz             0.2       0.0       0.2       0.0       1.8       0.7
 2 C  dyz             0.1       0.2       0.7       0.0       0.0       0.2
 2 C  dx2y2           0.2       0.3       0.1       0.2       0.1       0.3
 2 C  dxy             0.7       0.2       0.0       0.0       0.0       1.2
 3 H  s               5.6       6.3       1.7       2.7       3.8       4.7
 4 C  s               4.3       0.0       3.9       0.1       0.9       1.3
 4 C  pz              5.0       0.3       8.7       0.4       4.5       0.2
 4 C  px              1.8       9.3       0.3       8.9       1.9       1.1
 4 C  py              1.2       0.3       1.4       0.2       1.6      22.7
 4 C  dz2             0.5       0.0       0.3       0.0       0.3       0.8
 4 C  dxz             0.1       0.6       0.1       0.3       0.4       0.0
 4 C  dyz             0.1       0.1       0.2       0.0       0.1       0.0
 4 C  dx2y2           0.0       0.1       0.6       0.1       0.0       2.7
 4 C  dxy             0.1       0.3       0.1       0.0       0.0       2.7
 5 Cl s               0.1       0.2       0.0       0.1       0.3       0.6
 5 Cl pz              0.4       0.1       0.0       0.1       0.3       0.3
 5 Cl px              0.0       0.1       0.0       0.1       0.0       0.0
 5 Cl py              0.2       0.0       0.2       0.3       0.1       0.0
 5 Cl dz2             0.0       0.0       0.0       0.0       0.3       0.1
 5 Cl dxz             0.2       0.3       0.0       0.0       0.0       0.6
 5 Cl dyz             0.5       0.1       0.1       0.0       0.2       0.3
 5 Cl dx2y2           0.0       0.1       0.0       0.0       0.0       0.0
 5 Cl dxy             0.0       0.0       0.3       0.2       0.0       1.9
 6 H  s               8.6      13.7       2.3      16.3       1.5       0.8
 7 H  s               0.5       5.2       9.5       1.2      14.0       2.0
 8 H  s               6.1      12.3      14.2       0.0       4.1       1.5
 9 H  s               8.6       0.1       6.2       2.5       7.0       1.8
10 H  s              11.1       0.5       0.6      23.4       0.7       0.0
11 H  s              19.7      13.7       1.6      11.7       2.0       0.7
12 H  s               2.0       0.1      27.4       0.3       3.7       1.0
13 H  s               1.1      10.2       0.2       8.7      11.8       3.8

                     36        37        38        39        40        41   
                   0.18976   0.20683   0.36137   0.38043   0.38429   0.40160
                   0.00000   0.00000   0.00000   0.00000   0.00000   0.00000
                  --------  --------  --------  --------  --------  --------
 0 C  s               0.8       0.7       0.5       0.7       0.2       0.0
 0 C  pz              0.8       4.3       5.0       3.6       1.1      12.8
 0 C  px             13.3       6.6       7.2       1.8       1.7       0.4
 0 C  py              7.0       3.7       0.6       7.8       5.9       0.1
 0 C  dz2             0.6       0.1       1.3       0.1       1.2       3.8
 0 C  dxz             0.6       1.1       0.2       0.0       0.4       1.0
 0 C  dyz             0.0       1.2       0.1       1.2       0.1       0.3
 0 C  dx2y2           1.6       0.1       0.2       1.1       0.9       0.6
 0 C  dxy             2.6       1.0       1.1       0.0       0.3       0.2
 1 C  s               5.7       0.1       1.4       0.2       0.1       1.1
 1 C  pz             14.7       0.7       0.6       6.1       2.2       4.4
 1 C  px              1.1      24.2       0.9       0.3       4.7       7.8
 1 C  py              5.4       1.3      13.2       1.6       0.1       0.1
 1 C  dz2             0.5       0.1       0.7       0.5       2.3       1.1
 1 C  dxz             0.0       2.9       0.2       0.0       0.0       2.0
 1 C  dyz             1.3       0.1       0.6       1.1       0.2       0.1
 1 C  dx2y2           1.5       0.1       2.4       0.1       0.2       0.6
 1 C  dxy             0.5       1.4       0.5       0.1       0.1       0.1
 2 C  s               0.2       0.1       0.1       0.1       0.6       0.5
 2 C  pz              0.1       2.8       0.2       0.4       2.0       1.8
 2 C  px              5.4       6.6       0.3       1.1       0.9      16.7
 2 C  py              2.6       9.2       0.0      17.8       0.6       0.1
 2 C  dz2             0.1       0.1       0.0       0.1       2.2       0.1
 2 C  dxz             0.3       1.1       0.0       0.0       0.1       2.1
 2 C  dyz             0.1       1.0       0.4       1.4       0.4       0.1
 2 C  dx2y2           2.5       1.4       0.0       1.1       0.0       0.2
 2 C  dxy             0.1       0.0       0.7       1.2       0.0       0.4
 3 H  s               0.5       1.0       0.2       0.3       7.4       0.8
 4 C  s               0.4       0.3       0.9       1.4       0.4       0.0
 4 C  pz              2.1       1.8       1.6       6.9       9.1       4.1
 4 C  px              0.7       0.1      14.9       2.2       1.2       0.4
 4 C  py              2.1       7.7       0.3      15.0       3.8       0.1
 4 C  dz2             0.4       0.4       0.3       2.2       2.6       1.2
 4 C  dxz             0.0       0.0       2.4       0.0       0.0       0.1
 4 C  dyz             0.0       1.2       0.0       0.0       0.8       0.2
 4 C  dx2y2           0.8       0.8       0.6       0.9       0.2       0.2
 4 C  dxy             0.1       0.1       0.4       0.0       0.4       0.3
 5 Cl s               0.3       0.2       7.2       0.2      10.2       0.0
 5 Cl pz              0.2       0.1       0.2       0.1       0.7       0.4
 5 Cl px              0.5       0.3       0.0       0.0       0.0       0.2
 5 Cl py              0.2       0.0       0.0       0.3       0.2       0.0
 5 Cl dz2             0.2       0.1       0.1       0.5       0.0       1.3
 5 Cl dxz             0.0       1.0       1.1       0.1       2.1       0.0
 5 Cl dyz             0.6       0.9       0.1       0.6       1.5       0.7
 5 Cl dx2y2           2.1       0.3       0.0       0.2       0.7       0.7
 5 Cl dxy             0.0       0.1       1.3       2.0       0.9       0.9
 6 H  s               0.5       1.2       1.6       2.5       0.4       7.1
 7 H  s               4.3       0.8       1.8       2.8       5.1       0.0
 8 H  s               1.1       3.4       3.7       0.6       2.4      11.3
 9 H  s               6.8       1.1       0.7       2.9       6.3       5.4
10 H  s               1.3       0.7      10.1       1.0       2.1       0.1
11 H  s               0.8       0.6       8.5       0.4       0.7       2.5
12 H  s               2.5       3.4       1.1       6.4       7.1       3.4
13 H  s               1.9       0.7       2.1       0.6       5.0       0.4

                     42        43        44        45        46        47   
                   0.41048   0.43873   0.49114   0.52138   0.55971   0.58977
                   0.00000   0.00000   0.00000   0.00000   0.00000   0.00000
                  --------  --------  --------  --------  --------  --------
 0 C  s               1.9       1.4       0.6       1.2       7.5       0.3
 0 C  pz              0.1       4.4       4.6      10.3       3.4       0.6
 0 C  px              6.1       9.7       1.6       0.9      13.8       1.5
 0 C  py             13.3       8.1       2.7       0.7       7.3       0.2
 0 C  dz2             0.3       1.3       1.0       0.3       0.0       0.0
 0 C  dxz             0.2       1.5       0.2       0.1       0.1       0.2
 0 C  dyz             0.3       0.2       0.1       1.6       0.0       0.2
 0 C  dx2y2           1.9       1.3       0.4       0.0       0.0       0.2
 0 C  dxy             0.5       0.0       0.1       0.2       0.0       0.0
 1 C  s               0.1       0.1       1.7       2.0       4.0       8.7
 1 C  pz              1.5       0.5       1.6      10.6       4.7       0.5
 1 C  px              6.9       1.7       6.4      13.8       2.1       5.4
 1 C  py              0.8       0.9       1.4       1.2       7.6       0.3
 1 C  dz2             0.5       1.2       0.0       0.0       0.0       0.3
 1 C  dxz             0.1       0.9       0.3       0.0       0.0       0.0
 1 C  dyz             0.2       0.0       0.3       1.4       0.0       0.0
 1 C  dx2y2           0.0       0.3       0.2       0.4       0.1       0.1
 1 C  dxy             1.9       0.1       0.3       0.0       0.2       0.1
 2 C  s               0.0       0.6       0.8       2.0       3.3       0.2
 2 C  pz              0.2       5.7       2.4       3.4       2.4       2.1
 2 C  px              0.5       5.4       7.1       0.7       4.5      12.8
 2 C  py              2.8       1.3       1.2       1.3       3.4      26.2
 2 C  dz2             0.2       4.0       0.5       0.0       0.1       0.2
 2 C  dxz             0.0       0.0       0.6       1.2       0.0       0.3
 2 C  dyz             0.0       0.0       0.0       0.5       0.1       0.0
 2 C  dx2y2           2.7       0.1       0.0       0.1       0.1       0.0
 2 C  dxy             0.0       0.0       0.4       0.3       0.1       0.0
 3 H  s               0.3       9.5       4.0       3.0       2.3       0.2
 4 C  s               2.2       0.5       0.6       3.6       1.7       1.9
 4 C  pz              2.2       2.4       1.4      10.4       0.1       1.7
 4 C  px              2.1       5.5       8.8       0.7       0.1       0.8
 4 C  py             16.1       0.6       1.2       5.0       8.1       5.2
 4 C  dz2             0.3       0.7       0.2       1.3       0.0       0.1
 4 C  dxz             0.6       1.6       1.3       0.2       0.0       0.0
 4 C  dyz             0.5       0.5       0.6       0.0       0.0       0.0
 4 C  dx2y2           0.2       0.3       0.1       0.2       0.0       0.1
 4 C  dxy             1.9       0.0       0.2       0.3       0.0       0.3
 5 Cl s               0.2       6.4      24.8       4.5       1.2       0.0
 5 Cl pz              0.0       0.4       0.1       0.1       0.5       0.0
 5 Cl px              1.1       0.3       0.5       0.4       0.0       0.0
 5 Cl py              1.8       0.0       1.3       0.3       0.2       0.1
 5 Cl dz2             0.3       0.0       4.7       3.7       0.2       0.0
 5 Cl dxz             0.0       2.8       0.3       1.9       4.6       4.7
 5 Cl dyz             0.0       0.3       1.2       1.1       0.6       6.3
 5 Cl dx2y2           9.7       0.1       0.4       1.2       4.3       1.4
 5 Cl dxy             0.2       0.6       2.5       0.0       0.4       0.4
 6 H  s               0.0       4.3       0.1       0.3       0.3       1.2
 7 H  s               6.6       4.6       2.5       0.1       2.6       0.4
 8 H  s               0.2       2.0       0.9       1.2       1.9       0.0
 9 H  s               1.1       1.1       0.1       0.7       3.8       4.7
10 H  s               0.1       0.1       2.0       1.3       1.0       4.9
11 H  s               0.1       3.1       1.3       0.4       0.3       3.4
12 H  s               0.6       0.3       0.2       3.4       0.4       1.5
13 H  s               8.5       0.9       2.1       0.3       0.4       0.3

                     48        49        50        51        52        53   
                   0.60633   0.61502   0.62403   0.64082   0.64631   0.66157
                   0.00000   0.00000   0.00000   0.00000   0.00000   0.00000
                  --------  --------  --------  --------  --------  --------
 0 C  s               2.1      12.7       2.0       1.0       8.4       3.4
 0 C  pz              0.4       4.6       0.5       0.1       0.0       0.3
 0 C  px              0.7       4.4       1.2       1.3       0.2       3.6
 0 C  py              0.0       0.3       1.0       7.9      12.2       1.1
 0 C  dz2             0.0       0.0       0.1       0.2       0.0       0.1
 0 C  dxz             0.2       0.1       0.0       0.0       0.1       0.2
 0 C  dyz             0.3       0.1       0.2       0.0       0.0       0.7
 0 C  dx2y2           0.1       0.0       0.1       0.7       0.2       0.3
 0 C  dxy             0.4       1.0       0.0       0.0       0.1       0.4
 1 C  s               3.1       4.3       3.5       9.3       3.0       2.8
 1 C  pz              3.2       0.1       2.8       3.8       8.7       6.4
 1 C  px              6.9       3.5       4.2       2.9       0.5       3.0
 1 C  py              1.8       1.4       2.8       3.7       2.3       5.1
 1 C  dz2             0.4       0.2       0.2       0.0       0.0       0.2
 1 C  dyz             0.1       0.3       0.1       0.0       0.0       0.0
 1 C  dx2y2           0.1       0.5       0.0       0.1       0.4       0.4
 1 C  dxy             0.1       0.3       0.0       0.1       0.0       0.0
 2 C  s               0.6      10.7       6.2       1.4       0.7       1.7
 2 C  pz             15.3       3.0       0.1      16.2       0.4       7.4
 2 C  px              1.0       0.1       1.0       0.0       0.2       4.0
 2 C  py              2.5       3.6       2.3       0.1       2.3       0.5
 2 C  dz2             0.0       0.8       0.0       0.3       0.1       0.0
 2 C  dyz             0.1       0.4       0.0       0.0       0.0       0.0
 2 C  dx2y2           0.0       0.1       0.0       0.0       0.1       0.0
 2 C  dxy             0.0       0.0       0.0       0.0       0.0       0.6
 3 H  s               2.1       6.7       1.0       9.9       1.2       1.8
 4 C  s               8.6       0.5      20.3       1.9       2.4       0.7
 4 C  pz              3.3       2.9       0.6       4.2      11.4       4.5
 4 C  px              1.1       3.7       9.9       5.7       2.8       0.1
 4 C  py              0.2       0.0       6.5       1.8       7.7       0.1
 4 C  dz2             0.1       0.7       0.4       0.1       0.9       0.2
 4 C  dxz             0.2       0.5       0.4       0.0       0.0       0.0
 4 C  dyz             0.2       0.2       0.0       0.0       0.5       0.0
 4 C  dx2y2           0.1       1.3       0.4       0.0       0.0       0.3
 4 C  dxy             0.4       0.1       0.7       0.4       0.5       0.0
 5 Cl s               7.4       0.8       4.8       0.0       0.1       2.8
 5 Cl pz              0.0       0.2       0.0       0.6       0.0       1.9
 5 Cl px              3.9       1.1       0.2       0.2       0.6       1.2
 5 Cl py              2.0       0.1       1.2       0.1       0.2       0.0
 5 Cl dz2             2.2       1.0       1.0       0.0       0.9       0.5
 5 Cl dxz             0.1       0.5       0.0       1.3       0.0       1.6
 5 Cl dyz             5.1       1.0       0.7       2.0       0.4       3.6
 5 Cl dx2y2           3.6       1.7       4.2       1.0       0.5       2.1
 5 Cl dxy             2.3       0.1       0.1       0.9       0.3       0.3
 6 H  s               1.1       4.7       2.5       4.5       0.0      17.9
 7 H  s               0.6       1.0       0.3       2.5       5.3       0.4
 8 H  s               1.0       1.4       0.0       1.7       0.0       5.6
 9 H  s               1.9       0.3       2.3       0.9       2.4       1.8
10 H  s               1.2       6.1       0.9       4.9       4.3       6.8
11 H  s               0.8       9.8       6.3       1.1       0.5       0.2
12 H  s               3.6       0.5       2.1       0.5       6.3       3.2
13 H  s               7.5       0.8       4.6       4.4      10.6       0.0

                     54        55        56        57        58        59   
                   0.66170   0.67852   0.68016   0.68326   0.68871   0.70625
                   0.00000   0.00000   0.00000   0.00000   0.00000   0.00000
                  --------  --------  --------  --------  --------  --------
 0 C  s               2.3       4.4       1.5       2.2       7.2      12.9
 0 C  pz             23.3       2.5      10.2       7.6       0.6       1.9
 0 C  px              0.1      14.3       2.6       1.0       4.6       1.9
 0 C  py              0.7       7.5       2.5      12.1       1.2       5.9
 0 C  dz2             1.9       0.2       0.0       0.5       0.3       0.1
 0 C  dxz             0.3       0.1       0.0       0.0       1.5       0.2
 0 C  dyz             0.3       0.0       0.0       0.0       0.6       0.0
 0 C  dx2y2           0.0       0.1       0.2       0.6       0.1       0.3
 0 C  dxy             0.0       0.1       0.0       0.1       0.1       0.6
 1 C  s               1.0       0.6       3.0       0.0       0.4       4.6
 1 C  pz              4.0       1.1      12.4       7.8       1.6       3.2
 1 C  px              0.1       1.6       3.4       1.2       0.3       3.6
 1 C  py              0.7       8.4       6.2       1.8       7.4       3.0
 1 C  dz2             0.3       0.4       0.6       0.0       1.7       0.6
 1 C  dyz             0.0       0.5       0.0       0.0       0.1       0.0
 1 C  dx2y2           0.0       0.1       0.2       0.1       0.3       0.6
 2 C  s               0.6       3.8       0.0       0.3       5.9       0.1
 2 C  pz              1.3       0.9       0.0       0.3       0.5       0.0
 2 C  px              0.3       0.2       1.2       1.4       5.4       0.6
 2 C  py              0.1       0.1       0.5       0.7       5.3       2.1
 2 C  dz2             0.4       0.3       0.1       0.1       0.4       0.0
 2 C  dxz             0.0       0.3       0.0       0.4       0.0       0.0
 2 C  dyz             0.0       0.0       0.2       0.5       0.1       0.0
 2 C  dx2y2           0.0       0.0       0.0       0.1       0.2       0.2
 2 C  dxy             0.1       0.1       0.0       0.0       0.2       0.2
 3 H  s               3.3       3.2       0.0       0.8       1.8       0.1
 4 C  s               2.6       2.5       0.6       0.4       2.2      15.1
 4 C  pz              6.9       0.7       8.1       6.3       5.0       4.1
 4 C  px              1.9       5.1       5.0       6.3       0.8       2.1
 4 C  py              1.6       1.1       0.7       1.7       1.0       6.4
 4 C  dz2             0.8       0.2       0.4       0.1       0.1       0.0
 4 C  dxz             0.0       0.0       0.0       0.3       0.7       1.3
 4 C  dyz             0.0       0.0       0.1       0.1       0.2       0.3
 4 C  dx2y2           0.2       0.4       0.0       0.0       0.0       0.2
 4 C  dxy             0.1       0.0       0.0       0.2       0.2       0.1
 5 Cl s               0.1       0.1       0.2       0.4       0.7       0.0
 5 Cl pz              0.0       0.4       0.0       0.0       0.8       0.2
 5 Cl px              0.0       0.2       0.1       0.4       0.5       0.3
 5 Cl py              0.0       0.2       0.1       0.7       3.7       0.8
 5 Cl dz2             0.1       3.3       0.2       0.0       1.3       0.9
 5 Cl dxz             0.0       0.6       0.8       1.8       6.2       7.7
 5 Cl dyz             0.0       0.2       0.2       0.0       0.1       2.7
 5 Cl dx2y2           0.6       1.0       2.9       0.0       0.0       1.5
 5 Cl dxy             0.9       0.2       0.8       2.8       5.3       0.3
 6 H  s               2.5      10.1       1.4       2.6       0.9       0.2
 7 H  s               0.2       0.4       6.0      19.0       2.2       3.6
 8 H  s              23.4       0.5       5.7       2.1       0.3       0.0
 9 H  s               5.6       3.6       6.5       2.3       4.1       0.4
10 H  s               0.3       3.2       5.4       3.3       0.1       2.1
11 H  s               2.8      12.1       0.5       2.0       8.0       1.2
12 H  s               7.7       0.6       8.2       4.3       1.9       0.2
13 H  s               0.2       2.8       1.2       2.8       5.6       5.8

                     60        61        62        63        64        65   
                   0.72249   0.75934   0.77287   0.79037   0.81555   0.86759
                   0.00000   0.00000   0.00000   0.00000   0.00000   0.00000
                  --------  --------  --------  --------  --------  --------
[...]
 5 Cl dz2             0.2       0.0       0.2       0.0       0.2       0.0
 5 Cl dx2y2           0.0       0.0       0.0       0.0       0.2       0.0
 5 Cl dxy             0.8       0.0       1.1       0.2       0.2       0.0
 6 H  s               0.3       0.0       0.0       0.0       3.5       0.0
 7 H  s               0.6       0.0       1.0       1.8       0.2       1.7
 8 H  s               0.1       1.3       0.0       2.1       0.4       1.4
 9 H  s               0.6       0.5       1.5       0.0       0.0       2.4
10 H  s               1.8       0.1       0.5       0.8       0.5       2.6
11 H  s               0.1       0.0       0.1       3.1       0.0       4.6
12 H  s               0.0       1.6       0.0       0.3       2.1       0.1
13 H  s               0.2       0.0       1.6       0.1       1.8       2.4

                     84        85        86        87        88        89   
                   2.10460   2.14057   2.19829   2.23835   2.31263   2.48253
                   0.00000   0.00000   0.00000   0.00000   0.00000   0.00000
                  --------  --------  --------  --------  --------  --------
 0 C  s               0.0       0.0       0.1       0.1       0.2       0.3
 0 C  pz              0.4       0.2       0.3       0.1       0.0       0.2
 0 C  px              0.8       0.1       0.1       0.1       0.1       0.4
 0 C  py              0.6       0.1       0.0       0.2       0.0       0.3
 0 C  dz2             1.4      16.2      19.9       0.2       0.0       0.3
 0 C  dxz             8.9       8.2       1.3       0.0       0.9       5.5
 0 C  dyz             5.8       0.2       0.6       1.2       0.2       3.0
 0 C  dx2y2          14.7       4.5       0.0      18.0      10.5       0.1
 0 C  dxy             4.4       0.0       3.8       1.0       0.1       4.7
 1 C  s               0.1       0.0       0.6       0.3       0.0       1.9
 1 C  pz              0.0       0.0       0.3       1.2       0.1       0.5
 1 C  px              0.1       0.1       0.0       0.0       0.0       0.1
 1 C  py              0.1       0.1       0.7       0.2       0.9       0.2
 1 C  dz2             0.0       7.5       2.1      10.5      18.3       4.8
 1 C  dxz             0.1       2.2       2.7       3.1       1.7       2.8
 1 C  dyz             0.1       0.4       5.5      11.8       2.4       0.0
 1 C  dx2y2           0.7       2.2       5.6       5.0       0.1      26.5
 1 C  dxy             0.4       1.3       3.9       0.0       5.1       4.0
 2 C  s               0.3       0.1       0.5       0.4       0.0       0.9
 2 C  pz              1.5       0.0       0.4       0.4       0.0       0.4
 2 C  px              0.2       0.0       0.2       0.3       0.8       0.4
 2 C  py              0.1       0.1       0.8       0.3       0.3       0.0
 2 C  dz2            17.4       4.6       0.1      15.9      11.6       0.6
 2 C  dxz             0.0       0.2       0.9       3.9       7.5       6.9
 2 C  dyz             2.3       7.8      12.2       0.0       1.5       5.8
 2 C  dx2y2           0.1       1.0       2.2       0.0       7.5       0.2
 2 C  dxy             8.7       2.3       1.6       3.8       2.2      17.6
 3 H  s               2.8       0.6       0.1       1.8       0.8       0.3
 4 C  s               0.0       0.0       0.3       0.0       0.1       0.1
 4 C  pz              0.5       0.2       0.2       0.1       0.0       0.0
 4 C  py              0.1       0.1       0.2       0.2       0.1       0.3
 4 C  dz2            10.6       9.2      16.4       1.5       0.2       0.2
 4 C  dxz             0.1       0.4       2.3       0.8       2.1       0.1
 4 C  dyz             0.8      13.7       6.2       1.2       0.1       4.1
 4 C  dx2y2           3.0       0.0       1.0       0.4       2.8       3.5
 4 C  dxy             0.0       7.0       0.1       8.9      15.4       0.1
 5 Cl s               1.0       0.2       0.2       0.0       0.5       0.2
 5 Cl px              0.4       0.2       0.1       0.0       0.1       0.1
 5 Cl py              0.4       0.0       0.0       0.0       0.2       0.1
 5 Cl dz2             0.3       0.1       0.1       0.0       0.2       0.0
 5 Cl dxz             0.3       0.1       0.1       0.2       0.0       0.1
 5 Cl dyz             0.2       0.1       0.0       0.1       0.1       0.1
 5 Cl dx2y2           0.0       0.3       0.2       0.1       0.2       0.0
 5 Cl dxy             1.2       0.2       0.2       0.1       0.3       0.3
 6 H  s               4.2       0.3       0.1       0.9       0.4       0.3
 7 H  s               1.6       1.4       0.2       1.3       0.5       0.0
 8 H  s               0.7       1.9       2.2       0.1       0.0       0.0
 9 H  s               0.0       0.5       0.1       2.5       0.9       0.4
10 H  s               0.1       0.6       0.8       0.5       1.0       0.8
11 H  s               0.2       0.1       0.4       0.4       0.9       0.2
12 H  s               1.8       1.7       2.2       0.2       0.0       0.1
13 H  s               0.5       1.6       0.1       0.7       1.1       0.1

                     90        91   
                   2.50170   2.58711
                   0.00000   0.00000
                  --------  --------
 0 C  s               0.8       1.1
 0 C  pz              0.2       0.2
 0 C  px              0.9       2.0
 0 C  py              0.3       0.3
 0 C  dz2             2.8       1.5
 0 C  dxz             1.1       3.9
 0 C  dyz             0.9       0.3
 0 C  dx2y2           2.0       2.2
 0 C  dxy             4.3       6.1
 1 C  s               0.9       0.0
 1 C  pz              0.4       0.1
 1 C  px              0.5       5.1
 1 C  py              0.8       0.0
 1 C  dz2             2.2       0.2
 1 C  dxz             4.4      18.5
 1 C  dyz             4.1       0.0
 1 C  dx2y2           2.3       0.7
 1 C  dxy             1.6      18.1
 2 C  s               1.1       0.2
 2 C  pz              0.0       0.2
 2 C  px              0.1       2.8
 2 C  py              3.0       0.9
 2 C  dz2             6.4       0.0
 2 C  dxz             0.2       8.8
 2 C  dyz             4.2       0.4
 2 C  dx2y2          10.7      16.9
 2 C  dxy            10.5       0.5
 3 H  s               0.2       0.0
 4 C  s               1.6       0.4
 4 C  pz              0.1       0.0
 4 C  px              0.2       0.4
 4 C  py              3.1       0.9
 4 C  dz2             6.6       0.8
 4 C  dxz             0.1       0.5
 4 C  dyz             1.6       0.2
 4 C  dx2y2          12.9       2.7
 4 C  dxy             4.1       2.0
 5 Cl s               0.5       0.2
 5 Cl px              0.2       0.1
 5 Cl py              0.1       0.0
 5 Cl dx2y2           0.0       0.1
 5 Cl dxy             0.3       0.0
 6 H  s               0.0       0.3
 8 H  s               0.3       0.0
 9 H  s               0.2       0.0
10 H  s               0.3       0.0
11 H  s               0.2       0.2
12 H  s               0.3       0.0
13 H  s               0.2       0.0


                      *****************************
                      * MAYER POPULATION ANALYSIS *
                      *****************************

  NA   - Mulliken gross atomic population
  ZA   - Total nuclear charge
  QA   - Mulliken gross atomic charge
  VA   - Mayer's total valence
  BVA  - Mayer's bonded valence
  FA   - Mayer's free valence

  ATOM       NA         ZA         QA         VA         BVA        FA
  0 C      6.2926     6.0000    -0.2926     4.0135     4.0135     0.0000
  1 C      6.1248     6.0000    -0.1248     4.0312     4.0312     0.0000
  2 C      6.1938     6.0000    -0.1938     4.1455     4.1455     0.0000
  3 H      0.8808     1.0000     0.1192     0.9424     0.9424    -0.0000
  4 C      6.2236     6.0000    -0.2236     3.9009     3.9009    -0.0000
  5 Cl    17.1381    17.0000    -0.1381     1.1092     1.1092     0.0000
  6 H      0.8876     1.0000     0.1124     0.9499     0.9499    -0.0000
  7 H      0.8901     1.0000     0.1099     0.9592     0.9592    -0.0000
  8 H      0.8973     1.0000     0.1027     0.9564     0.9564    -0.0000
  9 H      0.9065     1.0000     0.0935     0.9627     0.9627     0.0000
 10 H      0.9008     1.0000     0.0992     0.9603     0.9603    -0.0000
 11 H      0.8833     1.0000     0.1167     0.9658     0.9658    -0.0000
 12 H      0.8915     1.0000     0.1085     0.9725     0.9725    -0.0000
 13 H      0.8892     1.0000     0.1108     0.9634     0.9634    -0.0000

  Mayer bond orders larger than 0.100000
B(  0-C ,  1-C ) :   1.1401 B(  0-C ,  6-H ) :   0.9487 B(  0-C ,  7-H ) :   0.9497 
B(  0-C ,  8-H ) :   0.9528 B(  1-C ,  2-C ) :   1.0627 B(  1-C ,  9-H ) :   0.9183 
B(  1-C , 10-H ) :   0.9210 B(  2-C ,  3-H ) :   0.9114 B(  2-C ,  4-C ) :   1.0989 
B(  2-C ,  5-Cl) :   1.0231 B(  4-C , 11-H ) :   0.9442 B(  4-C , 12-H ) :   0.9449 
B(  4-C , 13-H ) :   0.9323 

-------
TIMINGS
-------

Total SCF time: 0 days 0 hours 0 min 5 sec 

Total time                  ....       5.447 sec
Sum of individual times     ....       5.419 sec  ( 99.5%)

SCF preparation             ....       0.769 sec  ( 14.1%)
Fock matrix formation       ....       1.486 sec  ( 27.3%)
  Startup                   ....       0.006 sec  (  0.4% of F)
  Split-RI-J                ....       0.523 sec  ( 35.2% of F)
  XC integration            ....       0.883 sec  ( 59.5% of F)
    Basis function eval.    ....       0.371 sec  ( 42.0% of XC)
    Density eval.           ....       0.153 sec  ( 17.4% of XC)
    XC-Functional eval.     ....       0.087 sec  (  9.8% of XC)
    XC-Potential eval.      ....       0.166 sec  ( 18.8% of XC)
Diagonalization             ....       0.000 sec  (  0.0%)
Density matrix formation    ....       0.025 sec  (  0.5%)
Total Energy calculation    ....       0.001 sec  (  0.0%)
Population analysis         ....       3.071 sec  ( 56.4%)
Orbital Transformation      ....       0.010 sec  (  0.2%)
Orbital Orthonormalization  ....       0.000 sec  (  0.0%)
DIIS solution               ....       0.044 sec  (  0.8%)
  MO trafo                  ....       0.000 sec  (  0.0 % of DIIS)
  Orb grad                  ....       0.000 sec  (  0.0 % of DIIS)
  Energy W gradient         ....       0.000 sec  (  0.0 % of DIIS)
  DIIS error                ....       0.001 sec  (  2.0 % of DIIS)
  DIIS work                 ....       0.037 sec  ( 85.8 % of DIIS)
  Form Q                    ....       0.000 sec  (  0.0 % of DIIS)
  Form QpQm                 ....       0.000 sec  (  0.0 % of DIIS)
  Exp/Cayley                ....       0.000 sec  (  0.0 % of DIIS)
  Orb update                ....       0.000 sec  (  0.0 % of DIIS)
  Wake-sleep                ....       0.001 sec  (  1.6 % of DIIS)
SOSCF solution              ....       0.013 sec  (  0.2%)
  MO trafo                  ....       0.008 sec  ( 60.1 % of SOSCF)
  Orb grad                  ....       0.000 sec  (  1.0 % of SOSCF)
  Rot update                ....       0.002 sec  ( 11.8 % of SOSCF)
  Step                      ....       0.003 sec  ( 26.9 % of SOSCF)
Finished LeanSCF after   6.6 sec

Maximum memory used throughout the entire LEANSCF-calculation: 9.2 MB


-------------------------------------------------------------------------------
                          DFT DISPERSION CORRECTION                            
                                                                               
                                DFTD4 V3.4.0                                   
-------------------------------------------------------------------------------
The PBE functional is recognized
Active option DFTDOPT                   ...         5   

-------------------------   ----------------
Dispersion correction           -0.010501381
-------------------------   ----------------

------------------   -----------------
gCP correction             0.057137775
------------------   -----------------

-------------------------   --------------------
FINAL SINGLE POINT ENERGY      -617.303835542921
-------------------------   --------------------


------------------------------------------------------------------------------
                              ORCA PROPERTY CALCULATIONS
------------------------------------------------------------------------------

GBWName                                 ... sp.gbw
Number of atoms                         ...     14
Number of basis functions               ...     92
Max core memory                         ...   1024 MB

Electric properties:
Dipole moment                           ... YES
Quadrupole moment                       ...  NO
Static polarizability (Dipole/Dipole)   ...  NO
Static polarizability (Dipole/Quad.)    ...  NO
Static polarizability (Quad./Quad.)     ...  NO
Static polarizability (Velocity)        ...  NO

Atomic electric properties:
Dipole moment                           ...  NO
Quadrupole moment                       ...  NO
Static polarizability                   ...  NO

Choice of electric origin               ... Center of mass
Position of electric origin             ...     0.000019    -0.000014     0.000002

General magnetic properties:
Magnetizability                         ...  NO

EPR properties:
g-Tensor (aka g-matrix)                 ...  NO
Zero-Field splitting spin-orbit         ...  NO
Zero-field splitting spin-spin          ...  NO
Hyperfine couplings                     ...  NO (   0 nuclei)
Quadrupole couplings                    ...  NO (   0 nuclei)
Contact density                         ...  NO (   0 nuclei)

NMR properties:
Chemical shifts                         ...  NO (   0 nuclei)
Spin-rotation constants                 ...  NO (   0 nuclei)
Spin-spin couplings                     ...  NO (   0 nuclei,    0 pairs)

Choice of magnetic origin               ... GIAO
Position of magnetic origin             ...     0.000000     0.000000     0.000000

Properties with geometric perturbations:
SCF Hessian                             ...  NO
IR spectrum                             ...  NO
VCD spectrum                            ...  NO
X-ray spectroscopy properties:
SCF XES/XAS/RIXS spectra                ...  NO


-------------
DIPOLE MOMENT
-------------

Method             : SCF
Type of density    : Electron Density
Multiplicity       :   1
Irrep              :   0
Energy             :  -617.3504719364528910 Eh
Relativity type    : 
Basis              : AO
                                X                 Y                 Z
Electronic contribution:     -9.907697579       7.062781511      -0.998278399
Nuclear contribution   :     10.487697524      -7.512670220       1.182361463
                        -----------------------------------------
Total Dipole Moment    :      0.579999945      -0.449888709       0.184083064
                        -----------------------------------------
Magnitude (a.u.)       :      0.756760438
Magnitude (Debye)      :      1.923532167



--------------------
Rotational spectrum 
--------------------
 
Rotational constants in cm-1:             0.224351             0.077404             0.061853 
Rotational constants in MHz :          6725.888286          2320.509143          1854.298416 

Dipole components along the rotational axes: 
x,y,z [a.u.] :     0.711123    -0.235724    -0.106884 
x,y,z [Debye]:     1.807532    -0.599162    -0.271677 

 

Dipole moment calculation done in   0.5 sec 

Maximum memory used throughout the entire PROP-calculation: 6.0 MB

--------------------------------
SUGGESTED CITATIONS FOR THIS RUN
--------------------------------

Below you find a list of papers that are relevant to this ORCA run
We neither can nor want to force you to cite these papers, but we appreciate if you do
You receive ORCA, which is the product of decades of hard work by many enthusiastic individuals, for free
The only thing we kindly ask in return is that you cite our papers,
We deeply appreciate it, if you show your appreciation for ORCA by not just citing the generic ORCA reference.

Please note that relegating all ORCA citations to the supporting information does *not* help us.
SI sections are not indexed - citations you put there will not count into any citation statistics
But we need these citations in order to attract the funding resources that allow us to do what we are doing

Therefore, if you are a happy ORCA user, please consider citing a few of the papers listed below in the main body of your paper

In addition to the list printed below, the program has created the file sp.bibtex that contains the list in bibtex format
You can import this file easily into all common literature databanks and citation aid programs


List of essential papers. We consider these as the minimum necessary citations

  1. Neese,F.
     Software update: the ORCA program system, version 5.0
     WIRES Comput. Molec. Sci., 2022 12(1)e1606
     doi.org/10.1002/wcms.1606

List of papers to cite with high priority. The work reported in these papers was absolutely
necessary for this run to complete.
Our perspective: the developers of density functionals and basis sets usually get cited in chemistry papers
Good! But without the algorithms to do something with them, the functionals or basis sets would not do anything.
Hence, in our opinion, the algorithm design and method developments papers are equally worthy of getting cited

  1. Neese,F.
     An improvement of the resolution of the identity approximation for the formation of the Coulomb matrix
     J. Comp. Chem., 2003 24(14)1740-1747
     doi.org/10.1002/jcc.10318
  2. Neese,F.
     The SHARK Integral Generation and Digestion System
     J. Comp. Chem., 2022  1-16
     doi.org/10.1002/jcc.26942
  3. Caldeweyher,E.; Bannwarth,C.; Grimme,S.
     Extension of the D3 dispersion coefficient model
     J. Chem. Phys., 2017 147 034112
     doi.org/10.1063/1.4993215
  4. Caldeweyher,E.; Ehlert,S.; Hansen,A.; Neugebauer,H.; Spicher,S.; Bannwarth,C.; Grimme,S.
     A generally applicable atomic-charge dependent London dispersion correction
     J. Chem. Phys., 2019 150 154122
     doi.org/10.1063/1.5090222
  5. Caldeweyher,E.; Mewes,J.; Ehlert,S.; Grimme,S.
     Extension and evaluation of the D4 London-dispersion model for periodic systems
     Phys. Chem. Chem. Phys., 2020 22(16)8499-8512
     doi.org/10.1039/D0CP00502A
  6. Wittmann,L.; Gordiy,I.; Friede,M.; Helmich-Paris,B.; Grimme,S.; Hansen,A.; Bursch,M.
     Extension of the D3 and D4 London Dispersion Corrections to the full Actinides Series
     Phys. Chem. Chem. Phys., 2024 26(32)21379-21394
     doi.org/https://doi.org/10.1039/D4CP01514B 

List of suggested additional citations. These are papers that are important in the 'surrounding' of 
of this run, or papers that preceded the highly important papers. If you like your results we are grateful for a citation.

  1. Neese,F.
     The ORCA program system
     WIRES Comput. Molec. Sci., 2012 2(1)73-78
     doi.org/10.1002/wcms.81
  2. Neese,F.
     Software update: the ORCA program system, version 4.0
     WIRES Comput. Molec. Sci., 2018 8(1)1-6
     doi.org/10.1002/wcms.1327
  3. Neese,F.; Wennmohs,F.; Becker,U.; Riplinger,C.
     The ORCA quantum chemistry program package
     J. Chem. Phys., 2020 152 Art. No. L224108
     doi.org/10.1063/5.0004608

List of optional additional citations

  1. Neese,F.
     Approximate second-order SCF convergence for spin unrestricted wavefunctions
     Chem. Phys. Lett., 2000 325(1-3)93-98
     doi.org/10.1016/s0009-2614(00)00662-x

Timings for individual modules:

Sum of individual times          ...        7.867 sec (=   0.131 min)
Startup calculation              ...        0.272 sec (=   0.005 min)   3.5 %
SCF iterations                   ...        7.087 sec (=   0.118 min)  90.1 %
Property calculations            ...        0.509 sec (=   0.008 min)   6.5 %
                             ****ORCA TERMINATED NORMALLY****
TOTAL RUN TIME: 0 days 0 hours 0 minutes 9 seconds 190 msec
