23
 energy: -28.349013904989 gnorm: 0.028294878855 xtb: 6.7.1 (edcfbbe)
C           -2.77626008752294        0.67222253870247       -0.78395524473765
C           -1.76647220496342       -0.10070788905882        0.03302077137642
O           -2.09597304548015       -0.77312602449326        0.98947310470557
C           -0.30969233609343        0.02821260344617       -0.38674334047190
C            0.46478902222347       -1.27729037724886       -0.18270173097018
C            1.94310959693504       -1.10481200705275       -0.53460645403628
C            2.57816953051405        0.02559981166771        0.27741049021808
C            1.81045012912423        1.33490616988891        0.08674794387888
C            0.33153770842507        1.16581859902728        0.43936820006301
H           -3.74915659580231        0.66985399951915       -0.29127007177533
H           -2.43664034375472        1.69897996078279       -0.95731011062164
H           -2.86669895486760        0.20072944927624       -1.77025400828516
H           -0.27140612850106        0.31897147002564       -1.44717763049959
H            0.35735534089925       -1.58062928641347        0.86504280445017
H            0.01534036960880       -2.07318290707045       -0.78805830052606
H            2.47887891182521       -2.04489146320741       -0.36072249470763
H            2.04125411194822       -0.87916335835336       -1.60602626258843
H            2.56915069183575       -0.24580188446574        1.34193505021076
H            3.62792372397732        0.15730721308462       -0.00864235483991
H            2.24855231824242        2.12831909195610        0.70340381131166
H            1.89929926190321        1.65952280678929       -0.95932186004901
H            0.22928437575263        0.91284332019404        1.50294900694839
H           -0.20861038252117        2.10659766499561        0.27768687156414
23
 energy: -28.349978420398 gnorm: 0.007810593994 xtb: 6.7.1 (edcfbbe)
C           -2.75792584943901        0.66774712431234       -0.78476874847670
C           -1.75660698193896       -0.10211670824967        0.03806559515024
O           -2.08362334957185       -0.77282559142328        0.98720723847138
C           -0.30815030762186        0.03759260350494       -0.39778096303667
C            0.46133097835184       -1.26598482171999       -0.17844173367718
C            1.93367399199272       -1.09645172314500       -0.53706326861777
C            2.56553512339722        0.02368364918479        0.28323129310704
C            1.80319939281215        1.32903111868853        0.07983731523606
C            0.33148344874609        1.15807118110466        0.44238219615751
H           -3.72759016066055        0.66629639744790       -0.29419842715959
H           -2.42092487133121        1.69124124064858       -0.94605795547578
H           -2.85276893902987        0.19265973404425       -1.76280867797509
H           -0.26837758413307        0.32273573051647       -1.45650468321803
H            0.36112463701012       -1.56472135167949        0.86841233557256
H            0.01776090116611       -2.05725059613963       -0.78908899889933
H            2.46560630806269       -2.03381242544971       -0.35544619323890
H            2.02704520865948       -0.86604099279314       -1.60384071917988
H            2.54932169958527       -0.24661309283090        1.34364962175320
H            3.61045624331059        0.15549083274581       -0.00945355646394
H            2.24066228959508        2.11554501222994        0.70038936079091
H            1.88912219443727        1.64553376387259       -0.96498430966276
H            0.23754342004926        0.90372784070173        1.50250392107897
H           -0.20371277974165        2.09674057642018        0.27500754838206
23
 energy: -28.350063132720 gnorm: 0.001596820304 xtb: 6.7.1 (edcfbbe)
C           -2.75052157097853        0.66680382187907       -0.78482777104631
C           -1.75467570680448       -0.10631958103131        0.04132430815788
O           -2.08091725199000       -0.77239634047786        0.99076816460221
C           -0.30835508980231        0.03871072116428       -0.39696846725856
C            0.46059833909450       -1.26526946359578       -0.18036755489775
C            1.93227696305048       -1.09548478438714       -0.53810288731800
C            2.56203613344265        0.02396064630312        0.28353405548699
C            1.80073942834950        1.32906085822285        0.07869066516354
C            0.32949369104452        1.15861694624791        0.44075658802116
H           -3.72155796457448        0.67009593785001       -0.29776286237660
H           -2.40853276430746        1.68700876484528       -0.94139584486478
H           -2.84456037809468        0.18944378794072       -1.75915500545719
H           -0.26910622510270        0.32217277025402       -1.45362091572977
H            0.36187961235171       -1.55863575331529        0.86614210323157
H            0.01691063114896       -2.05571395340585       -0.79036237139275
H            2.46301948460243       -2.03234108254399       -0.35747105126997
H            2.02327813460445       -0.86006995479680       -1.60175042735500
H            2.53833807052071       -0.24623983553187        1.34149199221291
H            3.60684260812199        0.15514747287809       -0.00600872515451
H            2.23801002982402        2.11578294185150        0.69723408577891
H            1.88469204206218        1.63897586293902       -0.96598544321167
H            0.23928265036109        0.89964149736141        1.49772098699187
H           -0.20498585321668        2.09732822134051        0.27636456830415
23
 energy: -28.350076458331 gnorm: 0.001094208023 xtb: 6.7.1 (edcfbbe)
C           -2.74850169967357        0.66704237468960       -0.78541298453576
C           -1.75482284350883       -0.10552705506476        0.04571341375505
O           -2.08073797205130       -0.77173250335050        0.99506720150303
C           -0.30914748588788        0.03820509066930       -0.39584094729777
C            0.46127292409129       -1.26594850868983       -0.18066843565189
C            1.93283950753068       -1.09465072503948       -0.54026171643023
C            2.56083363382150        0.02389581035085        0.28507073621826
C            1.79978847468324        1.32921065129299        0.07609614586174
C            0.32888810382252        1.15736684217298        0.44171213871349
H           -3.72230647995852        0.67362718813708       -0.30265993116909
H           -2.40181810656481        1.68550587281048       -0.94020562723791
H           -2.83816550555998        0.18801716880602       -1.75882859272594
H           -0.27254394784635        0.32181490871749       -1.45202262263008
H            0.36352991299524       -1.55853221574956        0.86582004957523
H            0.01639493135024       -2.05576603437286       -0.79004415417784
H            2.46427621247527       -2.03130834812152       -0.36273457651918
H            2.02250742124059       -0.85555318877522       -1.60281370845157
H            2.53138341209812       -0.24638495052781        1.34250108345858
H            3.60670563387626        0.15483893022535        0.00027734008159
H            2.23718389990677        2.11823232418800        0.69109818623494
H            1.88178211329986        1.63473683851374       -0.96967675852921
H            0.24108714328238        0.89715626016712        1.49831944964679
H           -0.20624426971484        2.09603277094245        0.27974250092609
23
 energy: -28.350079427207 gnorm: 0.000828005364 xtb: 6.7.1 (edcfbbe)
C           -2.74797453232494        0.66757918290339       -0.78552205476527
C           -1.75574115901428       -0.10743354351919        0.04570854691724
O           -2.08153342968400       -0.77017884472975        0.99778260953551
C           -0.30956892627487        0.03721220226934       -0.39480338461296
C            0.46176303925565       -1.26690259006257       -0.18044596682401
C            1.93304704616286       -1.09366998814725       -0.54110111260691
C            2.56049261235708        0.02411287255953        0.28602097985374
C            1.79938684882593        1.32921778696467        0.07494134466859
C            0.32877037530271        1.15686671844644        0.44245682482702
H           -3.72251372329298        0.67685712342518       -0.30432503203970
H           -2.39835006875904        1.68531822155488       -0.94063511066160
H           -2.83675547141733        0.18809108520925       -1.75900484116905
H           -0.27391233209949        0.32078966031758       -1.45127159501994
H            0.36519576208279       -1.56079848165863        0.86601758197437
H            0.01702387683657       -2.05674414010379       -0.79007569091297
H            2.46571222974218       -2.03032493627045       -0.36654533511523
H            2.02169022198766       -0.85209769810255       -1.60342141293269
H            2.52743769648513       -0.24631749097410        1.34351996754406
H            3.60751560321306        0.15449414383648        0.00481380997156
H            2.23734895146762        2.12049844978848        0.68679132856387
H            1.87965553459404        1.63173741084099       -0.97205702458177
H            0.24283197161173        0.89654556451186        1.49950844245133
H           -0.20733711335021        2.09542679293211        0.28189531555313
23
 energy: -28.350080631401 gnorm: 0.000263523327 xtb: 6.7.1 (edcfbbe)
C           -2.74796685741685        0.66733409057969       -0.78567004528298
C           -1.75567451391743       -0.10577624267801        0.04682157027880
O           -2.08202594177078       -0.76908555486678        0.99823942588044
C           -0.30944572597037        0.03707935123752       -0.39416578442068
C            0.46181009468087       -1.26706378065939       -0.18058363116748
C            1.93298949622571       -1.09352270656915       -0.54108566291946
C            2.56021182159145        0.02406365574797        0.28608566927924
C            1.79935239836868        1.32897602572724        0.07472849732564
C            0.32910675294452        1.15688948230753        0.44284106054827
H           -3.72250041935051        0.67586351439800       -0.30503246374928
H           -2.39944460571077        1.68550310850161       -0.94099628772012
H           -2.83603907908099        0.18798419416543       -1.75947865880837
H           -0.27342687125113        0.32095162533883       -1.45070990759379
H            0.36559331216673       -1.56171117440946        0.86579163078320
H            0.01736245523536       -2.05695104158461       -0.79053797345006
H            2.46613816647660       -2.03020073876630       -0.36744053005031
H            2.02127425590280       -0.85125383107841       -1.60339208923242
H            2.52651637489444       -0.24633144987371        1.34366870833412
H            3.60752536339776        0.15412822607825        0.00569927590505
H            2.23759250398756        2.12089624717763        0.68564101709902
H            1.87910868444746        1.63074136911548       -0.97262828519423
H            0.24351008333834        0.89646817546154        1.49997037021298
H           -0.20738273548159        2.09529695664099        0.28248228456072
23
 energy: -28.350080548295 gnorm: 0.000485611433 xtb: 6.7.1 (edcfbbe)
C           -2.74800070454175        0.66722521324741       -0.78570821379921
C           -1.75572673376516       -0.10585382730738        0.04653393930111
O           -2.08222168096006       -0.76844279730333        0.99841551333537
C           -0.30936811233736        0.03703769257263       -0.39400752777124
C            0.46178533814550       -1.26706051622289       -0.18052840430673
C            1.93289015863126       -1.09332137678635       -0.54100877614907
C            2.56011587131806        0.02409404914438        0.28616195083113
C            1.79938155580565        1.32889318658750        0.07471960467254
C            0.32930940109639        1.15690332306569        0.44300347174107
H           -3.72226749894533        0.67571246320691       -0.30478817733608
H           -2.39980463846990        1.68552430184576       -0.94134394715427
H           -2.83642967366332        0.18805422982242       -1.75968005485120
H           -0.27297568507726        0.32083538818196       -1.45066720266188
H            0.36568404987610       -1.56220167591434        0.86576606136956
H            0.01757418899841       -2.05698653408970       -0.79068003392226
H            2.46624154712055       -2.03002889014184       -0.36778982040763
H            2.02100808503143       -0.85077443642179       -1.60333164718194
H            2.52617387799964       -0.24628743061930        1.34378870024590
H            3.60758078596949        0.15395873126013        0.00616108464441
H            2.23783584528153        2.12109895247727        0.68514682547832
H            1.87892981401571        1.63033017366009       -0.97279353769749
H            0.24389505847184        0.89637528103048        1.50018049976961
H           -0.20742583629354        2.09519400069619        0.28269788246829
23
 energy: -28.350080817710 gnorm: 0.000121534400 xtb: 6.7.1 (edcfbbe)
C           -2.74777031980716        0.66706154580307       -0.78574450184988
C           -1.75547128488349       -0.10575744245655        0.04671605922015
O           -2.08184906682100       -0.76839137332066        0.99853118611339
C           -0.30932026176468        0.03722859659915       -0.39416603420567
C            0.46171713045911       -1.26685559519552       -0.18055849416389
C            1.93285682438656       -1.09335324688500       -0.54113964904914
C            2.55994366971820        0.02401994625948        0.28625653126338
C            1.79940584257873        1.32895515614356        0.07459605317926
C            0.32935347395287        1.15681922457898        0.44297061716570
H           -3.72224018686591        0.67511456448449       -0.30493572191667
H           -2.39986609390624        1.68538296821860       -0.94115481881825
H           -2.83588225919079        0.18775777747590       -1.75948227157404
H           -0.27301026491761        0.32112584080435       -1.45062442761722
H            0.36526719335836       -1.56161230801656        0.86570436868825
H            0.01721307144823       -2.05647614992689       -0.79074596997773
H            2.46588509092607       -2.03004988670138       -0.36756489636146
H            2.02109510851945       -0.85098284895293       -1.60337338915763
H            2.52613248375872       -0.24636940958174        1.34379255587583
H            3.60723618738862        0.15393231273179        0.00592950590814
H            2.23779857149067        2.12083882716457        0.68536794149592
H            1.87912331633939        1.63055975811039       -0.97275517137883
H            0.24376504826848        0.89622479394793        1.49996205367744
H           -0.20719826072873        2.09510645070688        0.28266666410125
23
 energy: -28.350080882394 gnorm: 0.000060486462 xtb: 6.7.1 (edcfbbe)
C           -2.74789282000094        0.66687025138130       -0.78584103253185
C           -1.75539971029956       -0.10557643323950        0.04679075397763
O           -2.08162078689272       -0.76799923322299        0.99886383546671
C           -0.30931556347924        0.03741199229793       -0.39423117953251
C            0.46162173061606       -1.26679630286114       -0.18068037151968
C            1.93283850778148       -1.09341550785371       -0.54114277492583
C            2.56006994601472        0.02395213942298        0.28623301357477
C            1.79949806717963        1.32894517746639        0.07466590699435
C            0.32938671203506        1.15694508927566        0.44301332380870
H           -3.72248521553591        0.67459332208025       -0.30512868033924
H           -2.40027922166064        1.68530342716929       -0.94118727684012
H           -2.83565639887037        0.18748882615644       -1.75956521389699
H           -0.27313448357776        0.32139288239649       -1.45065702060717
H            0.36512390976180       -1.56157027911946        0.86556558320132
H            0.01703400250217       -2.05635357241158       -0.79089082413084
H            2.46575362478689       -2.03015291327470       -0.36751102036259
H            2.02113902845527       -0.85107312913207       -1.60336147920717
H            2.52617936073871       -0.24643852513213        1.34375499679045
H            3.60739442242797        0.15381402749606        0.00593812338926
H            2.23794251207254        2.12078120672313        0.68546819647881
H            1.87923823471600        1.63058674854881       -0.97266129302654
H            0.24386752208289        0.89627714280734        1.49998805155631
H           -0.20711836714617        2.09529316501709        0.28282457230052
