
                                 *****************
                                 * O   R   C   A *
                                 *****************

                                            #,                                       
                                            ###                                      
                                            ####                                     
                                            #####                                    
                                            ######                                   
                                           ########,                                 
                                     ,,################,,,,,                         
                               ,,#################################,,                 
                          ,,##########################################,,             
                       ,#########################################, ''#####,          
                    ,#############################################,,   '####,        
                  ,##################################################,,,,####,       
                ,###########''''           ''''###############################       
              ,#####''   ,,,,##########,,,,          '''####'''          '####       
            ,##' ,,,,###########################,,,                        '##       
           ' ,,###''''                  '''############,,,                           
         ,,##''                                '''############,,,,        ,,,,,,###''
      ,#''                                            '''#######################'''  
     '                                                          ''''####''''         
             ,#######,   #######,   ,#######,      ##                                
            ,#'     '#,  ##    ##  ,#'     '#,    #''#        ,####,   ,####,        
            ##       ##  ##   ,#'  ##            #'  '#       #'       #'  '#        
            ##       ##  #######   ##           ,######,      #####,   #    #        
            '#,     ,#'  ##    ##  '#,     ,#' ,#      #,     #,   #   #,  ,#        
             '#######'   ##     ##  '#######'  #'      '#     '####' # '####'        



                #########################################################
                #                        -***-                          #
                #          Department of theory and spectroscopy        #
                #                                                       #
                #                      Frank Neese                      #
                #                                                       #
                #     Directorship, Architecture, Infrastructure        #
                #                    SHARK, DRIVERS                     #
                #        Core code/Algorithms in most modules           #
                #                                                       #
                #        Max Planck Institute fuer Kohlenforschung      #
                #                Kaiser Wilhelm Platz 1                 #
                #                 D-45470 Muelheim/Ruhr                 #
                #                      Germany                          #
                #                                                       #
                #                  All rights reserved                  #
                #                        -***-                          #
                #########################################################


                         Program Version 6.0.1  -  RELEASE   -


 With contributions from (in alphabetic order):
[Max-Planck-Institut fuer Kohlenforschung]                               
  Daniel Aravena         : Magnetic Suceptibility                        
  Michael Atanasov       : Ab Initio Ligand Field Theory (pilot matlab implementation)
  Alexander A. Auer      : GIAO ZORA, VPT2 properties, NMR spectrum      
  Ute Becker             : All parallelization in ORCA, NUMFREQ, NUMCALC 
  Giovanni Bistoni       : ED, misc. LED, open-shell LED, HFLD           
  Martin Brehm           : Molecular dynamics                            
  Dmytro Bykov           : pre 5.0 version of the SCF Hessian            
  Marcos Casanova-Páez   : Triplet and SCS-CIS(D). UHF-(DLPNO)-IP/EA/STEOM-CCSD. UHF-CVS-IP/STEOM-CCSD   
  Vijay G. Chilkuri      : MRCI spin determinant printing, contributions to CSF-ICE 
  Pauline Colinet        : FMM embedding                                 
  Dipayan Datta          : RHF DLPNO-CCSD density                        
  Achintya Kumar Dutta   : EOM-CC, STEOM-CC                              
  Nicolas Foglia         : Exact transition moments, OPA infrastructure, MCD improvements    
  Dmitry Ganyushin       : Spin-Orbit,Spin-Spin,Magnetic field MRCI      
  Miquel Garcia-Rates    : C-PCM and meta-GGA Hessian, CCSD/C-PCM, Gaussian charge scheme 
  Tiago L. C. Gouveia    : GS-ROHF, GS-ROCIS                             
  Yang Guo               : DLPNO-NEVPT2, F12-NEVPT2, CIM, IAO-localization        
  Andreas Hansen         : Spin unrestricted coupled pair/coupled cluster methods 
  Ingolf Harden          : AUTO-CI MPn and infrastructure                
  Benjamin Helmich-Paris : MC-RPA, TRAH-(SCF,CASSCF), AVAS, COSX integrals, SCF dyn. polar. 
  Lee Huntington         : MR-EOM, pCC                                   
  Robert Izsak           : Overlap fitted RIJCOSX, COSX-SCS-MP3, EOM     
  Riya Kayal             : Wick's Theorem for AUTO-CI, AUTO-CI UHF-CCSDT 
  Emily Kempfer          : AUTO-CI, RHF CISDT and CCSDT                  
  Christian Kollmar      : KDIIS, OOCD, Brueckner-CCSD(T), CCSD density, CASPT2, CASPT2-K, improved NEVPT2 
  Axel Koslowski         : Symmetry handling                             
  Simone Kossmann        : meta-GGA functionals, TD-DFT gradient, OOMP2, (MP2 Hessian; deprecated post 5.0) 
  Lucas Lang             : DCDCAS                                        
  Marvin Lechner         : AUTO-CI (C++ implementation), FIC-MRCC        
  Spencer Leger          : CASSCF response                               
  Dagmar Lenk            : GEPOL surface, SMD, ORCA-2-JSON               
  Dimitrios Liakos       : Extrapolation schemes; Compound Job, initial MDCI parallelization 
  Dimitrios Manganas     : Further ROCIS development; embedding schemes. LFT, Crystal Embedding 
  Dimitrios Pantazis     : SARC Basis sets                               
  Anastasios Papadopoulos: AUTO-CI, single reference methods and gradients 
  Taras Petrenko         : pre 6.0 DFT Hessian and TD-DFT gradient, (ASA, deprecated), ECA, 1-Electron XAS/XES, NRVS 
  Peter Pinski           : DLPNO-MP2, DLPNO-MP2 Gradient                 
  Christoph Reimann      : Effective Core Potentials                     
  Marius Retegan         : Local ZFS, SOC                                
  Christoph Riplinger    : Optimizer, TS searches, QM/MM, DLPNO-CCSD(T), (RO)-DLPNO pert. Triples 
  Michael Roemelt        : Original ROCIS implementation                 
  Masaaki Saitow         : Open-shell DLPNO-CCSD energy and density      
  Barbara Sandhoefer     : DKH picture change effects                    
  Kantharuban Sivalingam : CASSCF convergence/infrastructure, NEVPT2 and variants, FIC-MRCI 
  Bernardo de Souza      : ESD, SOC TD-DFT                               
  Georgi L. Stoychev     : AutoAux, RI-MP2 NMR, DLPNO-MP2 response, X2C  
  Van Anh Tran           : RI-MP2 g-tensors                              
  Willem Van den Heuvel  : Paramagnetic NMR                              
  Zikuan Wang            : NOTCH, Electric field optimization            
  Frank Wennmohs         : Technical directorship and infrastructure     
  Hang Xu                : AUTO-CI-Response properties                   
                                                                         
[FACCTs GmbH]                                                            
  Markus Bursch, Miquel Garcia-Rates, Christoph Riplinger, Bernardo de Souza, Georgi L. Stoychev 
                                                                 
  APM, Basis sets (HGBS, AHGBS, def-TZVP (Ac-Lr), def2-XVPD (La-Lu)), CI-OPT, improved COSX, DLPNO-Multilevel,           
  DOCKER, DRACO, updates on ESD, GOAT, IRC, LR-CPCM, MBIS, meta-GGA TD-DFT gradient, ML-optimized integration grids, 
  MM, NACMEs, nearIR, NEB, NEB-TS, NL-DFT gradient (VV10), 2- and 3-layer-ONIOM, interface openCOSMO-RS, QMMM,   
  Crystal-QMMM, SF, symmetry and pop. for TD-DFT, r2SCAN hybrids, SOLVATOR                                   
                                                                         
[Other institutions]                                                     
  V. Asgeirsson          : NEB                                           
  Christoph Bannwarth    : sTDA-DFT, sTD-DFT, PBEh-3c, B97-3c, D3        
  Sebastian Ehlert       : rSCAN, r2SCAN, r2SCAN-3c, D4, dhf basis sets  
  Marvin Friede          : D4 for Fr, Ra, Ac-Lr                          
  Lars Goerigk           : TD-DFT with DH, B97 family of functionals     
  Stefan Grimme          : VdW corrections, initial TS optimization, DFT functionals, gCP, sTDA/sTD-DF 
  Waldemar Hujo          : DFT-NL                                        
  H. Jonsson             : NEB                                           
  Holger Kruse           : gCP                                           
  Marcel Mueller         : wB97X-3c, vDZP basis set                      
  Hagen Neugebauer       : wr2SCAN                                       
  Tobias Risthaus        : range-separated hybrid DFT                    
  Lukas Wittmann         : regularized MP2, r2SCAN double-hybrids, wr2SCAN        
                                                                         
We gratefully acknowledge several colleagues who have allowed us to      
interface, adapt or use parts of their codes:                            
  Ed Valeev, F. Pavosevic, A. Kumar             : LibInt (2-el integral package), F12 methods 
  Garnet Chan, S. Sharma, J. Yang, R. Olivares  : DMRG                   
  Ulf Ekstrom                                   : XCFun DFT Library      
  Mihaly Kallay                                 : mrcc  (arbitrary order and MRCC methods)
  Frank Weinhold                                : gennbo (NPA and NBO analysis)           
  Simon Mueller                                 : openCOSMO-RS                            
  Christopher J. Cramer and Donald G. Truhlar   : smd solvation model                     
  S Lehtola, MJT Oliveira, MAL Marques          : LibXC Library                           
  Liviu Ungur et al                             : ANISO software                          


 Your calculation uses the libint2 library for the computation of 2-el integrals
 For citations please refer to: http://libint.valeyev.net

 Your ORCA version has been built with support for libXC version: 6.2.2
 For citations please refer to: https://libxc.gitlab.io

 This ORCA versions uses:
   CBLAS   interface :  Fast vector & matrix operations
   LAPACKE interface :  Fast linear algebra routines
   SCALAPACK package :  Parallel linear algebra routines
   Shared memory     :  Shared parallel matrices
   BLAS/LAPACK       :  OpenBLAS 0.3.27  USE64BITINT DYNAMIC_ARCH NO_AFFINITY Zen SINGLE_THREADED
        Core in use  :  Zen
   Copyright (c) 2011-2014, The OpenBLAS Project


Your calculation utilizes the geometrical counterpoise correction gCP
Please cite in your paper:
H.Kruse, S. Grimme J.Chem.Phys., 136, (2012), 154101 
   

Your calculation utilizes the atom-pairwise dispersion correction
based on EEQ partial charges (D4)


================================================================================

----- Orbital basis set information -----
Your calculation utilizes the basis: def2-SV(P)
   F. Weigend and R. Ahlrichs, Phys. Chem. Chem. Phys. 7, 3297 (2005).

----- AuxJ basis set information -----
Your calculation utilizes the auxiliary basis: def2/J
   F. Weigend, Phys. Chem. Chem. Phys. 8, 1057 (2006).

================================================================================
                                        WARNINGS
                       Please study these warnings very carefully!
================================================================================


================================================================================
                                       INPUT FILE
================================================================================
NAME = sp.inp
|  1> ! pbe def2-sv(p) def2/J RI DEFGRID1 loosescf d4 GCP(DFT/SV(P)) printgap
|  2> %output
|  3>     printlevel normal
|  4> end
|  5> * xyz 0 1
|  6> C -1.8566337489 -2.17333379 -5.39886e-05
|  7> C -1.3900093788 -0.7482912993 -2.19028e-05
|  8> C -2.3019487474 0.2756925743 0.000203941
|  9> C -1.8993601632 1.6187660963 0.0001160241
| 10> C -0.5723676483 1.9374639376 -0.0001354835
| 11> C 0.405085776 0.9206343578 -0.0001654356
| 12> C -0.0020578014 -0.4408710421 -0.0001558603
| 13> C 0.9995550878 -1.4358810613 -0.0001132327
| 14> C 2.3259668081 -1.1043963387 0.00013186
| 15> C 2.7236885621 0.2401865128 0.0001850124
| 16> C 1.78152648 1.2290476964 -6.15705e-05
| 17> H -1.4915396267 -2.6986789549 0.8818720473
| 18> H -2.9431411223 -2.2160447636 0.0008854947
| 19> H -1.4928913609 -2.6981695454 -0.8828171989
| 20> H -3.3590912297 0.0490567921 0.0004326708
| 21> H -2.6506666964 2.3951493783 0.0003385221
| 22> H -0.2500154238 2.9689578926 -0.000233935
| 23> H 0.7130234461 -2.4761708478 -0.000130804
| 24> H 3.0786003489 -1.8797661733 0.0003214777
| 25> H 3.7759828351 0.4847737361 0.0003344829
| 26> H 2.0761426317 2.2692048978 -0.0001609919
| 27> *
| 28> 
| 29>                          ****END OF INPUT****
================================================================================

                       ****************************
                       * Single Point Calculation *
                       ****************************

---------------------------------
CARTESIAN COORDINATES (ANGSTROEM)
---------------------------------
  C     -1.856634   -2.173334   -0.000054
  C     -1.390009   -0.748291   -0.000022
  C     -2.301949    0.275693    0.000204
  C     -1.899360    1.618766    0.000116
  C     -0.572368    1.937464   -0.000135
  C      0.405086    0.920634   -0.000165
  C     -0.002058   -0.440871   -0.000156
  C      0.999555   -1.435881   -0.000113
  C      2.325967   -1.104396    0.000132
  C      2.723689    0.240187    0.000185
  C      1.781526    1.229048   -0.000062
  H     -1.491540   -2.698679    0.881872
  H     -2.943141   -2.216045    0.000885
  H     -1.492891   -2.698170   -0.882817
  H     -3.359091    0.049057    0.000433
  H     -2.650667    2.395149    0.000339
  H     -0.250015    2.968958   -0.000234
  H      0.713023   -2.476171   -0.000131
  H      3.078600   -1.879766    0.000321
  H      3.775983    0.484774    0.000334
  H      2.076143    2.269205   -0.000161

----------------------------
CARTESIAN COORDINATES (A.U.)
----------------------------
  NO LB      ZA    FRAG     MASS         X           Y           Z
   0 C     6.0000    0    12.011   -3.508529   -4.107006   -0.000102
   1 C     6.0000    0    12.011   -2.626737   -1.414066   -0.000041
   2 C     6.0000    0    12.011   -4.350053    0.520983    0.000385
   3 C     6.0000    0    12.011   -3.589271    3.059025    0.000219
   4 C     6.0000    0    12.011   -1.081618    3.661276   -0.000256
   5 C     6.0000    0    12.011    0.765501    1.739747   -0.000313
   6 C     6.0000    0    12.011   -0.003889   -0.833126   -0.000295
   7 C     6.0000    0    12.011    1.888885   -2.713422   -0.000214
   8 C     6.0000    0    12.011    4.395440   -2.087007    0.000249
   9 C     6.0000    0    12.011    5.147025    0.453887    0.000350
  10 C     6.0000    0    12.011    3.366597    2.322564   -0.000116
  11 H     1.0000    0     1.008   -2.818601   -5.099764    1.666497
  12 H     1.0000    0     1.008   -5.561731   -4.187718    0.001673
  13 H     1.0000    0     1.008   -2.821156   -5.098802   -1.668283
  14 H     1.0000    0     1.008   -6.347762    0.092704    0.000818
  15 H     1.0000    0     1.008   -5.009034    4.526176    0.000640
  16 H     1.0000    0     1.008   -0.472461    5.610517   -0.000442
  17 H     1.0000    0     1.008    1.347419   -4.679285   -0.000247
  18 H     1.0000    0     1.008    5.817712   -3.552243    0.000608
  19 H     1.0000    0     1.008    7.135573    0.916090    0.000632
  20 H     1.0000    0     1.008    3.923341    4.288176   -0.000304

--------------------------------
INTERNAL COORDINATES (ANGSTROEM)
--------------------------------
 C      0   0   0     0.000000000000     0.00000000     0.00000000
 C      1   0   0     1.499494716263     0.00000000     0.00000000
 C      2   1   0     1.371195258306   120.18156132     0.00000000
 C      3   2   1     1.402114139917   121.62619207   180.00596073
 C      4   3   2     1.364726167371   120.19089189     0.00000000
 C      5   4   3     1.410445884084   120.36416935     0.00000000
 C      6   5   4     1.421078057908   119.48240048     0.00000000
 C      7   6   5     1.411833318752   118.16179241   180.00337155
 C      8   7   6     1.367205263717   121.15803971     0.00000000
 C      9   8   7     1.402171758729   120.50942525     0.00000000
 C     10   9   8     1.365838896130   119.90735965     0.00000000
 H      1   2   3     1.089529620133   110.72855908   239.94872184
 H      1   2   3     1.087346946631   110.38197209   359.95693757
 H      1   2   3     1.089509972618   110.72750429   119.97834067
 H      3   2   1     1.081163289228   119.58740489     0.00000000
 H      4   3   2     1.080385374255   119.25422172   180.00224156
 H      5   4   3     1.080689939592   120.85924926   179.99824193
 H      8   7   6     1.079028832747   119.41113187   180.00155808
 H      9   8   7     1.080581169140   120.11607999   179.99014612
 H     10   9   8     1.080345393442   119.56304282   180.00276032
 H     11  10   9     1.081076172317   120.57100189   180.00846494

---------------------------
INTERNAL COORDINATES (A.U.)
---------------------------
 C      0   0   0     0.000000000000     0.00000000     0.00000000
 C      1   0   0     2.833634352999     0.00000000     0.00000000
 C      2   1   0     2.591183514330   120.18156132     0.00000000
 C      3   2   1     2.649611732942   121.62619207   180.00596073
 C      4   3   2     2.578958704126   120.19089189     0.00000000
 C      5   4   3     2.665356447635   120.36416935     0.00000000
 C      6   5   4     2.685448344370   119.48240048     0.00000000
 C      7   6   5     2.667978319186   118.16179241   180.00337155
 C      8   7   6     2.583643517282   121.15803971     0.00000000
 C      9   8   7     2.649720616717   120.50942525     0.00000000
 C     10   9   8     2.581061456743   119.90735965     0.00000000
 H      1   2   3     2.058912596847   110.72855908   239.94872184
 H      1   2   3     2.054787941688   110.38197209   359.95693757
 H      1   2   3     2.058875468423   110.72750429   119.97834067
 H      3   2   1     2.043102522690   119.58740489     0.00000000
 H      4   3   2     2.041632476435   119.25422172   180.00224156
 H      5   4   3     2.042208021512   120.85924926   179.99824193
 H      8   7   6     2.039068984497   119.41113187   180.00155808
 H      9   8   7     2.042002475147   120.11607999   179.99014612
 H     10   9   8     2.041556923649   119.56304282   180.00276032
 H     11  10   9     2.042937895587   120.57100189   180.00846494

---------------------
BASIS SET INFORMATION
---------------------
There are 2 groups of distinct atoms

 Group   1 Type C   : 7s4p1d contracted to 3s2p1d pattern {511/31/1}
 Group   2 Type H   : 4s contracted to 2s pattern {31}

Atom   0C    basis set group =>   1
Atom   1C    basis set group =>   1
Atom   2C    basis set group =>   1
Atom   3C    basis set group =>   1
Atom   4C    basis set group =>   1
Atom   5C    basis set group =>   1
Atom   6C    basis set group =>   1
Atom   7C    basis set group =>   1
Atom   8C    basis set group =>   1
Atom   9C    basis set group =>   1
Atom  10C    basis set group =>   1
Atom  11H    basis set group =>   2
Atom  12H    basis set group =>   2
Atom  13H    basis set group =>   2
Atom  14H    basis set group =>   2
Atom  15H    basis set group =>   2
Atom  16H    basis set group =>   2
Atom  17H    basis set group =>   2
Atom  18H    basis set group =>   2
Atom  19H    basis set group =>   2
Atom  20H    basis set group =>   2
---------------------------------
AUXILIARY/J BASIS SET INFORMATION
---------------------------------
There are 2 groups of distinct atoms

 Group   1 Type C   : 12s5p4d2f1g contracted to 6s4p3d1f1g pattern {711111/2111/211/2/1}
 Group   2 Type H   : 5s2p1d contracted to 3s1p1d pattern {311/2/1}

Atom   0C    basis set group =>   1
Atom   1C    basis set group =>   1
Atom   2C    basis set group =>   1
Atom   3C    basis set group =>   1
Atom   4C    basis set group =>   1
Atom   5C    basis set group =>   1
Atom   6C    basis set group =>   1
Atom   7C    basis set group =>   1
Atom   8C    basis set group =>   1
Atom   9C    basis set group =>   1
Atom  10C    basis set group =>   1
Atom  11H    basis set group =>   2
Atom  12H    basis set group =>   2
Atom  13H    basis set group =>   2
Atom  14H    basis set group =>   2
Atom  15H    basis set group =>   2
Atom  16H    basis set group =>   2
Atom  17H    basis set group =>   2
Atom  18H    basis set group =>   2
Atom  19H    basis set group =>   2
Atom  20H    basis set group =>   2
------------------------------------------------------------------------------
                             ORCA STARTUP CALCULATIONS
                           -- RI-GTO INTEGRALS CHOSEN --
------------------------------------------------------------------------------
------------------------------------------------------------------------------
                   ___                                                        
                  /   \      - P O W E R E D   B Y -                         
                 /     \                                                     
                 |  |  |   _    _      __       _____    __    __             
                 |  |  |  | |  | |    /  \     |  _  \  |  |  /  |          
                  \  \/   | |  | |   /    \    | | | |  |  | /  /          
                 / \  \   | |__| |  /  /\  \   | |_| |  |  |/  /          
                |  |  |   |  __  | /  /__\  \  |    /   |      \           
                |  |  |   | |  | | |   __   |  |    \   |  |\   \          
                \     /   | |  | | |  |  |  |  | |\  \  |  | \   \       
                 \___/    |_|  |_| |__|  |__|  |_| \__\ |__|  \__/        
                                                                              
                      - O R C A' S   B I G   F R I E N D -                    
                                      &                                       
                       - I N T E G R A L  F E E D E R -                       
                                                                              
 v1 FN, 2020, v2 2021, v3 2022-2024                                           
------------------------------------------------------------------------------


----------------------
SHARK INTEGRAL PACKAGE
----------------------

Number of atoms                             ...     21
Number of basis functions                   ...    174
Number of shells                            ...     86
Maximum angular momentum                    ...      2
Integral batch strategy                     ... SHARK/LIBINT Hybrid
RI-J (if used) integral strategy            ... SPLIT-RIJ (Revised 2003 algorithm where possible)
Printlevel                                  ...      1
Contraction scheme used                     ... SEGMENTED contraction
Prescreening option                         ... SCHWARTZ
   Thresh                                   ... 1.000e-09
   Tcut                                     ... 1.000e-10
   Tpresel                                  ... 1.000e-10 
Coulomb Range Separation                    ... NOT USED
Exchange Range Separation                   ... NOT USED
Multipole approximations                    ... NOT USED
Finite Nucleus Model                        ... NOT USED
CABS basis                                  ... NOT available
Auxiliary Coulomb fitting basis             ... AVAILABLE
   # of basis functions in Aux-J            ...    649
   # of shells in Aux-J                     ...    215
   Maximum angular momentum in Aux-J        ...      4
Auxiliary J/K fitting basis                 ... NOT available
Auxiliary Correlation fitting basis         ... NOT available
Auxiliary 'external' fitting basis          ... NOT available

Checking pre-screening integrals            ... done (  0.0 sec) Dimension = 86
Check shell pair data                       ... done (  0.0 sec)
Shell pair information
Shell pair cut-off parameter TPreSel        ...   1.0e-10
Total number of shell pairs                 ...      3741
Shell pairs after pre-screening             ...      3468
Total number of primitive shell pairs       ...     15051
Primitive shell pairs kept                  ...      9519
          la=0 lb=0:   1285 shell pairs
          la=1 lb=0:   1118 shell pairs
          la=1 lb=1:    252 shell pairs
          la=2 lb=0:    519 shell pairs
          la=2 lb=1:    234 shell pairs
          la=2 lb=2:     60 shell pairs

Calculating one electron integrals          ... done (  0.0 sec)
Calculating RI/J V-Matrix + Cholesky decomp.... done (  0.0 sec)
Calculating Nuclear repulsion               ... done (  0.0 sec) ENN=    551.652108670452 Eh

Diagonalization of the overlap matrix:
Smallest eigenvalue                        ... 2.399e-04
Time for diagonalization                   ...    0.003 sec
Threshold for overlap eigenvalues          ... 1.000e-07
Number of eigenvalues below threshold      ... 0
Time for construction of square roots      ...    0.004 sec
Total time needed                          ...    0.007 sec

-------------------
DFT GRID GENERATION
-------------------

General Integration Accuracy     IntAcc      ... 4.159
Radial Grid Type                 RadialGrid  ... OptM3 with GC (2021)
Angular Grid (max. ang.)         AngularGrid ... 3 (Lebedev-194)
Angular grid pruning method      GridPruning ... 4 (adaptive)
Weight generation scheme         WeightScheme... mBecke (2022)
Basis function cutoff            BFCut       ... 1.0000e-10
Integration weight cutoff        WCut        ... 1.0000e-14
Partially contracted basis set               ... off
Rotationally invariant grid construction     ... off
Angular grids for H and He will be reduced by one unit

Total number of grid points                  ...    49700
Total number of batches                      ...      789
Average number of points per batch           ...       62
Average number of grid points per atom       ...     2367
Initializing property integral containers    ... done (  0.0 sec)

SHARK setup successfully completed in   0.5 seconds

Maximum memory used throughout the entire STARTUP-calculation: 25.2 MB
-------------------------------------------------------------------------------
                                 ORCA GUESS
                   Start orbitals & Density for SCF / CASSCF
-------------------------------------------------------------------------------

------------
SCF SETTINGS
------------
Hamiltonian:
 Density Functional     Method          .... DFT(GTOs)
 Exchange Functional    Exchange        .... PBE
   PBE kappa parameter   XKappa         ....  0.804000
   PBE mue parameter    XMuePBE         ....  0.219520
 Correlation Functional Correlation     .... PBE
   PBE beta parameter  CBetaPBE         ....  0.066725
 LDA part of GGA corr.  LDAOpt          .... PW91-LDA
 Gradients option       PostSCFGGA      .... off
   NL short-range parameter             ....  6.400000
 RI-approximation to the Coulomb term is turned on
   Number of AuxJ basis functions       .... 649


General Settings:
 Integral files         IntName         .... sp
 Hartree-Fock type      HFTyp           .... RHF
 Total Charge           Charge          ....    0
 Multiplicity           Mult            ....    1
 Number of Electrons    NEL             ....   76
 Basis Dimension        Dim             ....  174
 Nuclear Repulsion      ENuc            ....    551.6521086705 Eh

Convergence Acceleration:
 AO-DIIS                CNVDIIS         .... on
   Start iteration      DIISMaxIt       ....    12
   Startup error        DIISStart       ....  0.200000
   # of expansion vecs  DIISMaxEq       ....     5
   Bias factor          DIISBfac        ....   1.050
   Max. coefficient     DIISMaxC        ....  10.000
 MO-DIIS                CNVKDIIS        .... off
 Trust-Rad. Augm. Hess. CNVTRAH         .... auto
   Auto Start mean grad. ratio tolernc. ....  1.125000
   Auto Start start iteration           ....    50
   Auto Start num. interpolation iter.  ....    10
   Max. Number of Micro iterations      ....    24
   Max. Number of Macro iterations      .... Maxiter - #DIIS iter
   Number of Davidson start vectors     ....     2
   Converg. threshold    (grad. norm)   ....   1.000e-04
   Grad. Scal. Fac. for Micro threshold ....   0.100
   Minimum threshold for Micro iter.    ....   1.000e-02
   NR start threshold (gradient norm)   ....   1.000e-04
   Initial trust radius                 ....   0.400
   Minimum AH scaling param. (alpha)    ....   1.000
   Maximum AH scaling param. (alpha)    .... 1000.000
   Quad. conv. algorithm                .... NR
   White noise on init. David. guess    .... on
   Maximum white noise                  ....   0.010
   Pseudo random numbers                .... off
   Inactive MOs                         .... canonical
   Orbital update algorithm             .... Taylor
   Preconditioner                       .... Diag
   Full preconditioner red. dimension   ....   250
 SOSCF                  CNVSOSCF        .... on
   Start iteration      SOSCFMaxIt      ....   150
   Startup grad/error   SOSCFStart      ....  0.003300
   Hessian update       SOSCFHessUp     .... L-BFGS
 Level Shifting         CNVShift        .... on
   Level shift para.    LevelShift      ....    0.2500
   Turn off err/grad.   ShiftErr        ....    0.0010
 Zerner damping         CNVZerner       .... off
 Static damping         CNVDamp         .... on
   Fraction old density DampFac         ....    0.7000
   Max. Damping (<1)    DampMax         ....    0.9800
   Min. Damping (>=0)   DampMin         ....    0.0000
   Turn off err/grad.   DampErr         ....    0.1000

SCF Procedure:
 Maximum # iterations   MaxIter         ....   125
 SCF integral mode      SCFMode         .... Direct
   Integral package                     .... SHARK and LIBINT hybrid scheme
 Reset frequency        DirectResetFreq ....    20
 Integral Threshold     Thresh          ....  1.000e-09 Eh
 Primitive CutOff       TCut            ....  1.000e-10 Eh

Convergence Tolerance:
 Convergence Check Mode ConvCheckMode   .... Total+1el-Energy
 Convergence forced     ConvForced      .... 0
 Energy Change          TolE            ....  1.000e-05 Eh
 1-El. energy change                    ....  1.000e-02 Eh
 Orbital Gradient       TolG            ....  1.000e-04
 Orbital Rotation angle TolX            ....  1.000e-04
 DIIS Error             TolErr          ....  5.000e-04

------------------------------
INITIAL GUESS: MODEL POTENTIAL
------------------------------
Loading Hartree-Fock densities                     ... done
Calculating cut-offs                               ... done
Initializing the effective Hamiltonian             ... done
Setting up the integral package (SHARK)            ... done
Starting the Coulomb interaction                   ... done (   0.2 sec)
Making the grid                                    ... done (   0.2 sec)
Mapping shells                                     ... done
Starting the XC term evaluation                    ... done (   0.2 sec)
  promolecular density results
     # of electrons  =     75.999863640
     EX              =    -59.248716039
     EC              =     -2.521038121
     EX+EC           =    -61.769754160
Transforming the Hamiltonian                       ... done (   0.0 sec)
Diagonalizing the Hamiltonian                      ... done (   0.0 sec)
Back transforming the eigenvectors                 ... done (   0.0 sec)
Now organizing SCF variables                       ... done
                      ------------------
                      INITIAL GUESS DONE (   0.5 sec)
                      ------------------
             **** ENERGY FILE WAS UPDATED (sp.en.tmp) ****
Finished Guess after   0.6 sec
Maximum memory used throughout the entire GUESS-calculation: 19.9 MB

-------------------------------------------------------------------------------------------
                                      ORCA LEAN-SCF
                              memory conserving SCF solver
-------------------------------------------------------------------------------------------

----------------------------------------D-I-I-S--------------------------------------------
Iteration    Energy (Eh)           Delta-E    RMSDP     MaxDP     DIISErr   Damp  Time(sec)
-------------------------------------------------------------------------------------------
               ***  Starting incremental Fock matrix formation  ***
    1    -424.1258344677247578     0.00e+00  3.49e-03  7.77e-02  1.53e-01  0.700   0.7
    2    -424.2177003906281243    -9.19e-02  2.50e-03  4.58e-02  7.61e-02  0.700   0.6
                               ***Turning on AO-DIIS***
    3    -424.2542978268820661    -3.66e-02  1.03e-03  1.35e-02  2.49e-02  0.700   0.8
    4    -424.2750367536586964    -2.07e-02  1.87e-03  2.51e-02  1.10e-02  0.000   1.7
    5    -424.3201508908074402    -4.51e-02  3.64e-04  4.83e-03  4.13e-03  0.000   0.6
                              *** Initializing SOSCF ***
---------------------------------------S-O-S-C-F--------------------------------------
Iteration    Energy (Eh)           Delta-E    RMSDP     MaxDP     MaxGrad    Time(sec)
--------------------------------------------------------------------------------------
    6    -424.3204310145622458    -2.80e-04  1.40e-04  2.52e-03  7.05e-04     0.8
               *** Restarting incremental Fock matrix formation ***
    7    -424.3204449204691855    -1.39e-05  8.99e-05  1.92e-03  2.57e-04     0.9
    8    -424.3204407569259047     4.16e-06  3.81e-05  7.57e-04  5.88e-04     0.5
                 **** Energy Check signals convergence ****

               *****************************************************
               *                     SUCCESS                       *
               *           SCF CONVERGED AFTER   8 CYCLES          *
               *****************************************************

             **** ENERGY FILE WAS UPDATED (sp.en.tmp) ****

----------------
TOTAL SCF ENERGY
----------------

Total Energy       :       -424.32044075692590 Eh          -11546.34620 eV

Components:
Nuclear Repulsion  :        551.65210867045232 Eh           15011.21703 eV
Electronic Energy  :       -975.97254942737823 Eh          -26557.56323 eV
One Electron Energy:      -1665.37790536640409 Eh          -45317.23669 eV
Two Electron Energy:        689.40535593902587 Eh           18759.67346 eV

Virial components:
Potential Energy   :       -844.84537174628906 Eh          -22989.41132 eV
Kinetic Energy     :        420.52493098936316 Eh           11443.06513 eV
Virial Ratio       :          2.00902564744172

DFT components:
N(Alpha)           :       38.000339380618 electrons
N(Beta)            :       38.000339380618 electrons
N(Total)           :       76.000678761237 electrons
E(X)               :      -60.345302077546 Eh       
E(C)               :       -2.533672541294 Eh       
E(XC)              :      -62.878974618840 Eh       

---------------
SCF CONVERGENCE
---------------

  Last Energy change         ...   -4.1635e-06  Tolerance :   1.0000e-05
  Last MAX-Density change    ...    7.5655e-04  Tolerance :   1.0000e-03
  Last RMS-Density change    ...    3.8124e-05  Tolerance :   1.0000e-04
  Last DIIS Error            ...    7.0477e-04  Tolerance :   5.0000e-04
  Last Orbital Gradient      ...    5.8764e-04  Tolerance :   1.0000e-04
  Last Orbital Rotation      ...    7.8396e-04  Tolerance :   1.0000e-04


----------------
ORBITAL ENERGIES
----------------

  NO   OCC          E(Eh)            E(eV) 
   0   2.0000      -9.903874      -269.4981 
   1   2.0000      -9.901550      -269.4349 
   2   2.0000      -9.901434      -269.4317 
   3   2.0000      -9.892103      -269.1778 
   4   2.0000      -9.891963      -269.1740 
   5   2.0000      -9.891248      -269.1545 
   6   2.0000      -9.890710      -269.1399 
   7   2.0000      -9.889939      -269.1189 
   8   2.0000      -9.889225      -269.0995 
   9   2.0000      -9.888494      -269.0796 
  10   2.0000      -9.884908      -268.9820 
  11   2.0000      -0.794872       -21.6296 
  12   2.0000      -0.744811       -20.2673 
  13   2.0000      -0.709146       -19.2968 
  14   2.0000      -0.664829       -18.0909 
  15   2.0000      -0.658759       -17.9257 
  16   2.0000      -0.612506       -16.6671 
  17   2.0000      -0.557652       -15.1745 
  18   2.0000      -0.548842       -14.9347 
  19   2.0000      -0.517792       -14.0898 
  20   2.0000      -0.461455       -12.5568 
  21   2.0000      -0.449512       -12.2318 
  22   2.0000      -0.444058       -12.0834 
  23   2.0000      -0.402737       -10.9590 
  24   2.0000      -0.386681       -10.5221 
  25   2.0000      -0.383531       -10.4364 
  26   2.0000      -0.373037       -10.1509 
  27   2.0000      -0.364605        -9.9214 
  28   2.0000      -0.352428        -9.5901 
  29   2.0000      -0.343894        -9.3578 
  30   2.0000      -0.338323        -9.2062 
  31   2.0000      -0.323338        -8.7985 
  32   2.0000      -0.294041        -8.0012 
  33   2.0000      -0.292218        -7.9517 
  34   2.0000      -0.284989        -7.7549 
  35   2.0000      -0.251173        -6.8348 
  36   2.0000      -0.223852        -6.0913 
  37   2.0000      -0.193637        -5.2691 
  38   0.0000      -0.067309        -1.8316 
  39   0.0000      -0.038125        -1.0374 
  40   0.0000      -0.001024        -0.0279 
  41   0.0000       0.042381         1.1532 
  42   0.0000       0.055365         1.5065 
  43   0.0000       0.058090         1.5807 
  44   0.0000       0.061547         1.6748 
  45   0.0000       0.085485         2.3262 
  46   0.0000       0.096024         2.6129 
  47   0.0000       0.115265         3.1365 
  48   0.0000       0.119731         3.2580 
*Only the first 10 virtual orbitals were printed.

                    ********************************
                    * MULLIKEN POPULATION ANALYSIS *
                    ********************************

-----------------------
MULLIKEN ATOMIC CHARGES
-----------------------
   0 C :   -0.212212
   1 C :   -0.017183
   2 C :   -0.150785
   3 C :   -0.030211
   4 C :   -0.124044
   5 C :    0.134213
   6 C :    0.126228
   7 C :   -0.163178
   8 C :   -0.032337
   9 C :   -0.039051
  10 C :   -0.126701
  11 H :    0.117228
  12 H :    0.102673
  13 H :    0.117233
  14 H :    0.035404
  15 H :    0.048776
  16 H :    0.036237
  17 H :    0.037745
  18 H :    0.049838
  19 H :    0.051488
  20 H :    0.038638
Sum of atomic charges:   -0.0000000

--------------------------------
MULLIKEN REDUCED ORBITAL CHARGES
--------------------------------
  0 C s       :     2.994196  s :     2.994196
      pz      :     1.065984  p :     3.189167
      px      :     1.059600
      py      :     1.063582
      dz2     :     0.005048  d :     0.028848
      dxz     :     0.002711
      dyz     :     0.008973
      dx2y2   :     0.007855
      dxy     :     0.004262

  1 C s       :     3.065498  s :     3.065498
      pz      :     0.972470  p :     2.910119
      px      :     0.995196
      py      :     0.942453
      dz2     :     0.002645  d :     0.041567
      dxz     :     0.006164
      dyz     :     0.006812
      dx2y2   :     0.013180
      dxy     :     0.012765

  2 C s       :     3.271717  s :     3.271717
      pz      :     1.013453  p :     2.844291
      px      :     0.852397
      py      :     0.978441
      dz2     :     0.003118  d :     0.034778
      dxz     :     0.002055
      dyz     :     0.006454
      dx2y2   :     0.013300
      dxy     :     0.009852

  3 C s       :     3.181368  s :     3.181368
      pz      :     0.992877  p :     2.813489
      px      :     0.915064
      py      :     0.905547
      dz2     :     0.003062  d :     0.035354
      dxz     :     0.004660
      dyz     :     0.004271
      dx2y2   :     0.009104
      dxy     :     0.014258

  4 C s       :     3.279647  s :     3.279647
      pz      :     1.005081  p :     2.809725
      px      :     0.964941
      py      :     0.839703
      dz2     :     0.003110  d :     0.034672
      dxz     :     0.006522
      dyz     :     0.002050
      dx2y2   :     0.011765
      dxy     :     0.011225

  5 C s       :     3.035109  s :     3.035109
      pz      :     0.967027  p :     2.789629
      px      :     0.844999
      py      :     0.977604
      dz2     :     0.002770  d :     0.041049
      dxz     :     0.006679
      dyz     :     0.006046
      dx2y2   :     0.012837
      dxy     :     0.012718

  6 C s       :     3.067934  s :     3.067934
      pz      :     0.983270  p :     2.765981
      px      :     0.880301
      py      :     0.902410
      dz2     :     0.002769  d :     0.039858
      dxz     :     0.006571
      dyz     :     0.005589
      dx2y2   :     0.012648
      dxy     :     0.012281

  7 C s       :     3.287433  s :     3.287433
      pz      :     1.003824  p :     2.841263
      px      :     0.985038
      py      :     0.852400
      dz2     :     0.003113  d :     0.034482
      dxz     :     0.006542
      dyz     :     0.002034
      dx2y2   :     0.012110
      dxy     :     0.010682

  8 C s       :     3.174857  s :     3.174857
      pz      :     0.993025  p :     2.822253
      px      :     0.930255
      py      :     0.898973
      dz2     :     0.003057  d :     0.035227
      dxz     :     0.004493
      dyz     :     0.004211
      dx2y2   :     0.009128
      dxy     :     0.014338

  9 C s       :     3.181467  s :     3.181467
      pz      :     0.994965  p :     2.822417
      px      :     0.850813
      py      :     0.976638
      dz2     :     0.003060  d :     0.035168
      dxz     :     0.002266
      dyz     :     0.006405
      dx2y2   :     0.013450
      dxy     :     0.009987

 10 C s       :     3.278749  s :     3.278749
      pz      :     0.996660  p :     2.813293
      px      :     1.007758
      py      :     0.808875
      dz2     :     0.003096  d :     0.034660
      dxz     :     0.006133
      dyz     :     0.002459
      dx2y2   :     0.013111
      dxy     :     0.009861

 11 H s       :     0.882772  s :     0.882772

 12 H s       :     0.897327  s :     0.897327

 13 H s       :     0.882767  s :     0.882767

 14 H s       :     0.964596  s :     0.964596

 15 H s       :     0.951224  s :     0.951224

 16 H s       :     0.963763  s :     0.963763

 17 H s       :     0.962255  s :     0.962255

 18 H s       :     0.950162  s :     0.950162

 19 H s       :     0.948512  s :     0.948512

 20 H s       :     0.961362  s :     0.961362


------------------------
MULLIKEN OVERLAP CHARGES
------------------------
B(  0-C ,  1-C ) :   0.8630 B(  0-C ,  2-C ) :  -0.2262 B(  0-C ,  6-C ) :  -0.2025 
B(  0-C , 11-H ) :   0.6820 B(  0-C , 12-H ) :   0.7119 B(  0-C , 13-H ) :   0.6821 
B(  1-C ,  2-C ) :   0.5479 B(  1-C ,  3-C ) :   0.3205 B(  1-C ,  4-C ) :  -0.3650 
B(  1-C ,  6-C ) :   0.3630 B(  1-C ,  7-C ) :  -0.2948 B(  1-C , 10-C ) :   0.0575 
B(  1-C , 14-H ) :  -0.1529 B(  1-C , 17-H ) :  -0.0851 B(  2-C ,  3-C ) :   0.2362 
B(  2-C ,  4-C ) :   0.3461 B(  2-C ,  5-C ) :  -0.3537 B(  2-C ,  6-C ) :   0.2073 
B(  2-C , 14-H ) :   0.8565 B(  2-C , 15-H ) :  -0.1782 B(  3-C ,  4-C ) :   0.2777 
B(  3-C ,  5-C ) :   0.3404 B(  3-C ,  6-C ) :  -0.3171 B(  3-C , 14-H ) :  -0.1814 
B(  3-C , 15-H ) :   0.8852 B(  3-C , 16-H ) :  -0.1884 B(  4-C ,  5-C ) :   0.3796 
B(  4-C ,  6-C ) :   0.0614 B(  4-C ,  7-C ) :   0.0517 B(  4-C , 10-C ) :  -0.3066 
B(  4-C , 15-H ) :  -0.1856 B(  4-C , 16-H ) :   0.8804 B(  5-C ,  7-C ) :   0.0821 
B(  5-C ,  8-C ) :  -0.3841 B(  5-C ,  9-C ) :   0.3489 B(  5-C , 10-C ) :   0.3714 
B(  5-C , 16-H ) :  -0.1629 B(  5-C , 20-H ) :  -0.1613 B(  6-C ,  7-C ) :   0.3719 
B(  6-C ,  8-C ) :   0.3066 B(  6-C ,  9-C ) :  -0.3540 B(  6-C , 10-C ) :   0.0948 
B(  6-C , 17-H ) :  -0.1269 B(  7-C ,  8-C ) :   0.3525 B(  7-C ,  9-C ) :   0.3427 
B(  7-C , 10-C ) :  -0.3720 B(  7-C , 17-H ) :   0.8603 B(  7-C , 18-H ) :  -0.1704 
B(  8-C ,  9-C ) :   0.1934 B(  8-C , 10-C ) :   0.3647 B(  8-C , 17-H ) :  -0.1879 
B(  8-C , 18-H ) :   0.8783 B(  8-C , 19-H ) :  -0.1790 B(  9-C , 10-C ) :   0.2865 
B(  9-C , 18-H ) :  -0.1809 B(  9-C , 19-H ) :   0.8837 B(  9-C , 20-H ) :  -0.1876 
B( 10-C , 19-H ) :  -0.1778 B( 10-C , 20-H ) :   0.8762 B( 11-H , 13-H ) :  -0.0570 



                     *******************************
                     * LOEWDIN POPULATION ANALYSIS *
                     *******************************

----------------------
LOEWDIN ATOMIC CHARGES
----------------------
   0 C :   -0.323614
   1 C :   -0.036275
   2 C :   -0.128118
   3 C :   -0.124034
   4 C :   -0.116685
   5 C :   -0.023421
   6 C :   -0.024325
   7 C :   -0.117160
   8 C :   -0.122655
   9 C :   -0.125838
  10 C :   -0.109465
  11 H :    0.132000
  12 H :    0.125603
  13 H :    0.132020
  14 H :    0.120942
  15 H :    0.123767
  16 H :    0.122678
  17 H :    0.123785
  18 H :    0.123566
  19 H :    0.123901
  20 H :    0.123327

-------------------------------
LOEWDIN REDUCED ORBITAL CHARGES
-------------------------------
  0 C s       :     2.934663  s :     2.934663
      pz      :     1.123901  p :     3.318019
      px      :     1.117104
      py      :     1.077013
      dz2     :     0.013108  d :     0.070932
      dxz     :     0.006194
      dyz     :     0.020912
      dx2y2   :     0.020495
      dxy     :     0.010223

  1 C s       :     2.850673  s :     2.850673
      pz      :     0.953680  p :     3.076801
      px      :     1.069250
      py      :     1.053871
      dz2     :     0.007045  d :     0.108801
      dxz     :     0.012966
      dyz     :     0.012456
      dx2y2   :     0.038750
      dxy     :     0.037583

  2 C s       :     2.891348  s :     2.891348
      pz      :     1.004414  p :     3.144786
      px      :     1.061779
      py      :     1.078593
      dz2     :     0.007069  d :     0.091984
      dxz     :     0.003569
      dyz     :     0.014118
      dx2y2   :     0.037634
      dxy     :     0.029595

  3 C s       :     2.889849  s :     2.889849
      pz      :     0.983814  p :     3.140954
      px      :     1.085924
      py      :     1.071216
      dz2     :     0.007080  d :     0.093231
      dxz     :     0.009806
      dyz     :     0.008957
      dx2y2   :     0.028378
      dxy     :     0.039009

  4 C s       :     2.890877  s :     2.890877
      pz      :     0.995344  p :     3.134457
      px      :     1.082520
      py      :     1.056593
      dz2     :     0.007039  d :     0.091351
      dxz     :     0.013822
      dyz     :     0.003546
      dx2y2   :     0.033980
      dxy     :     0.032965

  5 C s       :     2.837700  s :     2.837700
      pz      :     0.956564  p :     3.073748
      px      :     1.054461
      py      :     1.062722
      dz2     :     0.007402  d :     0.111973
      dxz     :     0.013518
      dyz     :     0.012481
      dx2y2   :     0.039260
      dxy     :     0.039312

  6 C s       :     2.837459  s :     2.837459
      pz      :     0.975324  p :     3.076965
      px      :     1.044944
      py      :     1.056697
      dz2     :     0.007355  d :     0.109900
      dxz     :     0.013231
      dyz     :     0.011355
      dx2y2   :     0.039136
      dxy     :     0.038823

  7 C s       :     2.890083  s :     2.890083
      pz      :     0.992709  p :     3.136187
      px      :     1.082275
      py      :     1.061204
      dz2     :     0.006994  d :     0.090890
      dxz     :     0.013938
      dyz     :     0.003542
      dx2y2   :     0.034768
      dxy     :     0.031647

  8 C s       :     2.890374  s :     2.890374
      pz      :     0.983902  p :     3.139410
      px      :     1.084946
      py      :     1.070562
      dz2     :     0.007053  d :     0.092871
      dxz     :     0.009421
      dyz     :     0.008672
      dx2y2   :     0.028404
      dxy     :     0.039321

  9 C s       :     2.890633  s :     2.890633
      pz      :     0.986187  p :     3.142515
      px      :     1.068210
      py      :     1.088118
      dz2     :     0.007074  d :     0.092690
      dxz     :     0.003946
      dyz     :     0.014050
      dx2y2   :     0.037577
      dxy     :     0.030043

 10 C s       :     2.892045  s :     2.892045
      pz      :     0.985409  p :     3.126136
      px      :     1.072209
      py      :     1.068519
      dz2     :     0.007009  d :     0.091283
      dxz     :     0.013060
      dyz     :     0.004346
      dx2y2   :     0.036924
      dxy     :     0.029945

 11 H s       :     0.868000  s :     0.868000

 12 H s       :     0.874397  s :     0.874397

 13 H s       :     0.867980  s :     0.867980

 14 H s       :     0.879058  s :     0.879058

 15 H s       :     0.876233  s :     0.876233

 16 H s       :     0.877322  s :     0.877322

 17 H s       :     0.876215  s :     0.876215

 18 H s       :     0.876434  s :     0.876434

 19 H s       :     0.876099  s :     0.876099

 20 H s       :     0.876673  s :     0.876673


---------------------------------
LOEWDIN BOND ORDERS (THRESH 0.050000)
---------------------------------
B(  0-C ,  1-C ) :   1.0965 B(  0-C ,  2-C ) :   0.0795 B(  0-C ,  6-C ) :   0.0654 
B(  0-C , 11-H ) :   0.9213 B(  0-C , 12-H ) :   0.9284 B(  0-C , 13-H ) :   0.9213 
B(  1-C ,  2-C ) :   1.5503 B(  1-C ,  3-C ) :   0.0856 B(  1-C ,  4-C ) :   0.1163 
B(  1-C ,  5-C ) :   0.0745 B(  1-C ,  6-C ) :   1.2585 B(  1-C ,  7-C ) :   0.0754 
B(  2-C ,  3-C ) :   1.3835 B(  2-C ,  4-C ) :   0.0867 B(  2-C ,  5-C ) :   0.0670 
B(  2-C ,  6-C ) :   0.0838 B(  2-C , 14-H ) :   0.8816 B(  3-C ,  4-C ) :   1.6144 
B(  3-C ,  5-C ) :   0.0867 B(  3-C ,  6-C ) :   0.0680 B(  3-C , 15-H ) :   0.8863 
B(  4-C ,  5-C ) :   1.3102 B(  4-C ,  6-C ) :   0.0731 B(  4-C , 10-C ) :   0.0828 
B(  4-C , 16-H ) :   0.8823 B(  5-C ,  6-C ) :   1.2425 B(  5-C ,  7-C ) :   0.0746 
B(  5-C ,  8-C ) :   0.0717 B(  5-C ,  9-C ) :   0.0858 B(  5-C , 10-C ) :   1.3185 
B(  6-C ,  7-C ) :   1.3170 B(  6-C ,  8-C ) :   0.0855 B(  6-C ,  9-C ) :   0.0715 
B(  6-C , 10-C ) :   0.0739 B(  7-C ,  8-C ) :   1.6079 B(  7-C ,  9-C ) :   0.0860 
B(  7-C , 10-C ) :   0.1238 B(  7-C , 17-H ) :   0.8780 B(  8-C ,  9-C ) :   1.3881 
B(  8-C , 10-C ) :   0.0863 B(  8-C , 18-H ) :   0.8875 B(  9-C , 10-C ) :   1.6098 
B(  9-C , 19-H ) :   0.8874 B( 10-C , 20-H ) :   0.8821 

------------------------------------------
LOEWDIN REDUCED ORBITAL POPULATIONS PER MO
-------------------------------------------
THRESHOLD FOR PRINTING IS 0.1%%
                      0         1         2         3         4         5   
                  -9.90387  -9.90155  -9.90143  -9.89210  -9.89196  -9.89125
                   2.00000   2.00000   2.00000   2.00000   2.00000   2.00000
                  --------  --------  --------  --------  --------  --------
 1 C  s              99.5       0.0       0.0       0.0       0.0       0.0
 5 C  s               0.0      77.8      21.7       0.0       0.0       0.0
 5 C  px              0.0       0.0       0.0       0.0       0.1       0.0
 6 C  s               0.1      21.7      77.8       0.0       0.0       0.0
 6 C  px              0.1       0.0       0.0       0.1       0.0       0.0
 7 C  s               0.0       0.0       0.0      80.9      14.0       4.7
 7 C  px              0.0       0.0       0.1       0.0       0.0       0.1
 8 C  s               0.0       0.0       0.0       3.4       1.3      92.6
 8 C  px              0.0       0.0       0.0       0.1       0.0       0.0
 9 C  s               0.0       0.0       0.0       0.1       1.9       2.1
 9 C  py              0.0       0.0       0.0       0.0       0.0       0.1
10 C  s               0.0       0.0       0.0      15.2      82.3       0.3
10 C  px              0.0       0.1       0.0       0.0       0.0       0.0

                      6         7         8         9        10        11   
                  -9.89071  -9.88994  -9.88922  -9.88849  -9.88491  -0.79487
                   2.00000   2.00000   2.00000   2.00000   2.00000   2.00000
                  --------  --------  --------  --------  --------  --------
 0 C  s               0.0       0.0       0.0       0.0      99.7       1.5
 0 C  px              0.0       0.0       0.0       0.0       0.0       0.2
 0 C  py              0.0       0.0       0.0       0.0       0.0       0.8
 1 C  s               0.0       0.0       0.0       0.0       0.0       8.8
 1 C  px              0.0       0.0       0.0       0.1       0.0       0.7
 1 C  py              0.0       0.0       0.0       0.1       0.1       0.6
 1 C  dz2             0.0       0.0       0.0       0.0       0.0       0.1
 2 C  s               0.0       0.4       0.1      99.1       0.0       5.3
 2 C  px              0.0       0.0       0.0       0.0       0.0       1.5
 2 C  py              0.0       0.1       0.0       0.0       0.0       0.0
 3 C  s               0.0      92.8       6.4       0.5       0.0       4.6
 3 C  px              0.0       0.0       0.1       0.0       0.0       0.8
 3 C  py              0.0       0.0       0.0       0.1       0.0       0.6
 4 C  s               0.0       6.4      93.1       0.0       0.0       6.6
 4 C  px              0.0       0.1       0.0       0.0       0.0       0.0
 4 C  py              0.0       0.0       0.0       0.0       0.0       1.8
 5 C  s               0.0       0.0       0.0       0.0       0.0      14.3
 5 C  py              0.0       0.0       0.1       0.0       0.0       0.6
 5 C  dz2             0.0       0.0       0.0       0.0       0.0       0.2
 6 C  s               0.0       0.0       0.0       0.0       0.0      15.4
 6 C  py              0.0       0.0       0.0       0.0       0.0       0.4
 6 C  dz2             0.0       0.0       0.0       0.0       0.0       0.2
 7 C  s               0.0       0.0       0.0       0.0       0.0       7.0
 7 C  py              0.0       0.0       0.0       0.0       0.0       1.8
 8 C  s               2.3       0.0       0.0       0.0       0.0       4.4
 8 C  px              0.0       0.0       0.0       0.0       0.0       0.9
 8 C  py              0.1       0.0       0.0       0.0       0.0       0.5
 9 C  s              95.5       0.0       0.0       0.0       0.0       4.3
 9 C  px              0.0       0.0       0.0       0.0       0.0       1.3
10 C  s               1.8       0.0       0.0       0.0       0.0       6.5
10 C  px              0.1       0.0       0.0       0.0       0.0       0.8
10 C  py              0.1       0.0       0.0       0.0       0.0       1.0
11 H  s               0.0       0.0       0.0       0.0       0.1       0.3
12 H  s               0.0       0.0       0.0       0.0       0.1       0.2
13 H  s               0.0       0.0       0.0       0.0       0.1       0.3
14 H  s               0.0       0.0       0.0       0.1       0.0       0.7
15 H  s               0.0       0.1       0.0       0.0       0.0       0.6
16 H  s               0.0       0.0       0.0       0.0       0.0       0.9
17 H  s               0.0       0.0       0.0       0.0       0.0       1.0
18 H  s               0.0       0.0       0.0       0.0       0.0       0.5
19 H  s               0.0       0.0       0.0       0.0       0.0       0.5
20 H  s               0.0       0.0       0.0       0.0       0.0       0.9

                     12        13        14        15        16        17   
                  -0.74481  -0.70915  -0.66483  -0.65876  -0.61251  -0.55765
                   2.00000   2.00000   2.00000   2.00000   2.00000   2.00000
                  --------  --------  --------  --------  --------  --------
 0 C  s               2.2       9.5       0.0      10.2      18.0       0.5
 0 C  px              0.0       0.3       0.1       0.0       0.0       0.1
 0 C  py              0.8       0.9       0.0       0.2       1.1       0.5
 1 C  s               7.5       9.8       0.0       2.8       1.2       2.3
 1 C  px              0.9       0.0       5.9       2.4       0.2       1.6
 1 C  py              0.6       2.2       0.7       2.0      11.7       0.5
 1 C  dx2y2           0.0       0.0       0.1       0.1       0.1       0.0
 1 C  dxy             0.0       0.0       0.1       0.0       0.1       0.0
 2 C  s              10.5       0.2       9.9       0.1       6.4       2.7
 2 C  px              1.1       0.1       0.1       0.0       0.2       3.3
 2 C  py              0.0       4.7       1.3       2.8       0.3       2.9
 2 C  dz2             0.1       0.0       0.1       0.0       0.0       0.0
 2 C  dxy             0.0       0.1       0.0       0.0       0.0       0.1
 3 C  s               7.9       5.4       9.2       2.6       0.8       3.3
 3 C  px              0.1       2.0       0.8       0.2       3.5       5.2
 3 C  py              1.2       0.5       0.9       0.1       4.8       0.1
 3 C  dx2y2           0.0       0.1       0.0       0.0       0.2       0.1
 4 C  s               2.8      12.9       0.0       1.1      10.8       1.7
 4 C  px              1.9       0.0       5.8       1.7       0.0       0.5
 4 C  py              0.2       0.4       0.4       0.0       0.6       0.4
 4 C  dz2             0.0       0.1       0.0       0.0       0.1       0.0
 4 C  dxy             0.0       0.0       0.1       0.0       0.0       0.0
 5 C  s               0.2       6.7       8.7       0.5       0.0       0.0
 5 C  px              5.0       0.0       0.1       4.6       0.9       9.2
 5 C  py              0.3       4.7       0.8       0.9       5.0       0.0
 5 C  dx2y2           0.0       0.1       0.1       0.1       0.0       0.0
 5 C  dxy             0.0       0.1       0.0       0.0       0.2       0.0
 6 C  s               0.0       3.4       8.4       2.2       2.4       0.3
 6 C  px              6.3       0.6       0.1       2.2       0.6       7.1
 6 C  py              0.1       6.3       0.8       1.0       0.6       2.4
 6 C  dx2y2           0.0       0.1       0.1       0.0       0.0       0.0
 6 C  dxy             0.0       0.0       0.0       0.2       0.0       0.0
 7 C  s               4.6       6.1       0.0      12.4       0.9       5.7
 7 C  px              2.2       0.2       6.0       0.2       1.0       0.8
 7 C  py              0.4       0.0       0.4       0.1       0.7       0.3
 7 C  dz2             0.1       0.1       0.0       0.1       0.0       0.0
 7 C  dxy             0.0       0.0       0.2       0.0       0.0       0.0
 8 C  s              10.5       1.7       9.5       3.3       1.8       3.3
 8 C  px              0.3       0.9       0.8       3.1       0.1       7.9
 8 C  py              1.2       0.3       0.9       2.9       0.6       1.5
 8 C  dz2             0.1       0.0       0.1       0.0       0.0       0.0
 8 C  dx2y2           0.0       0.0       0.0       0.2       0.0       0.1
 9 C  s              11.3       0.2       9.5       5.2       0.2       4.1
 9 C  px              1.3       0.1       0.1       0.3       0.1       3.2
 9 C  py              0.2       1.4       1.6       4.9       1.1       5.6
 9 C  dz2             0.1       0.0       0.1       0.0       0.0       0.0
 9 C  dxy             0.0       0.0       0.0       0.2       0.0       0.1
10 C  s               6.4       4.3       0.0      13.1       0.6       5.7
10 C  px              0.5       0.9       5.9       0.4       0.3       0.7
10 C  py              1.7       0.1       0.6       0.1       0.3       0.8
10 C  dz2             0.1       0.0       0.0       0.1       0.0       0.0
10 C  dxy             0.0       0.0       0.1       0.0       0.0       0.1
11 H  s               0.3       1.9       0.0       2.1       5.4       0.3
12 H  s               0.5       1.8       0.0       2.6       4.7       0.3
13 H  s               0.3       1.9       0.0       2.1       5.4       0.3
14 H  s               1.6       0.1       2.3       0.1       1.3       2.2
15 H  s               1.1       0.9       2.1       0.6       0.3       2.3
16 H  s               0.3       2.4       0.0       0.1       3.6       0.2
17 H  s               0.5       1.6       0.0       2.4       0.7       2.5
18 H  s               1.5       0.3       2.2       0.8       0.6       2.0
19 H  s               1.6       0.0       2.2       1.2       0.1       2.5
20 H  s               0.8       1.0       0.0       3.1       0.1       2.3

                     18        19        20        21        22        23   
                  -0.54884  -0.51779  -0.46145  -0.44951  -0.44406  -0.40274
                   2.00000   2.00000   2.00000   2.00000   2.00000   2.00000
                  --------  --------  --------  --------  --------  --------
 0 C  s               0.0       3.6       0.4       0.1       0.2       0.0
 0 C  px              1.0       1.0       1.0       0.9       1.5       8.0
 0 C  py              0.2       3.5       4.0       2.5       0.4       0.6
 1 C  s               0.0       4.2       0.5       4.1       0.0       0.0
 1 C  px              9.2       0.0       5.8       1.3       2.3       1.8
 1 C  py              1.2       0.2       0.2       0.4       2.6       0.2
 1 C  dx2y2           0.0       0.1       0.0       0.0       0.1       0.1
 1 C  dxy             0.1       0.1       0.1       0.0       0.0       0.1
 2 C  s               4.1       0.0       0.3       2.2       0.5       0.3
 2 C  px              0.5       0.9       1.7       3.4      10.5       1.6
 2 C  py              3.9       4.1       8.9       0.0       1.0       5.2
 2 C  dxy             0.0       0.1       0.0       0.1       0.0       0.0
 3 C  s               5.1       1.3       0.6       2.1       0.1       0.0
 3 C  px              0.1       2.1       1.0       0.5      12.3       0.1
 3 C  py              3.2       0.3       4.6       6.0       0.8      10.1
 4 C  s               0.0       2.8       3.2       1.1       0.1       0.1
 4 C  px              8.8       0.9       0.1       3.8       6.1       2.0
 4 C  py              0.7       2.8       9.9       1.9       3.0       1.1
 4 C  dx2y2           0.0       0.0       0.0       0.2       0.0       0.0
 5 C  s               4.2       2.3       0.5       0.2       0.7       0.2
 5 C  px              0.2       0.0       0.5       7.4       1.1       0.6
 5 C  py              2.5      10.3       0.1       0.4       1.7       8.7
 5 C  dx2y2           0.0       0.0       0.1       0.1       0.1       0.2
 5 C  dxy             0.0       0.0       0.1       0.3       0.0       0.2
 6 C  s               3.7       0.6       0.0       0.0       1.3       1.8
 6 C  px              0.3       4.0       4.4       3.8       0.1       1.2
 6 C  py              3.4       9.0       0.8       0.1       2.6       6.3
 6 C  dx2y2           0.0       0.1       0.0       0.3       0.0       0.1
 6 C  dxy             0.0       0.1       0.0       0.3       0.0       0.0
 7 C  s               0.0       3.2       0.1       2.7       0.6       0.0
 7 C  px              9.2       0.2       0.3       4.1       5.5       0.7
 7 C  py              0.5       5.6       7.6       1.0       0.1       0.0
 7 C  dx2y2           0.0       0.0       0.0       0.2       0.0       0.0
 7 C  dxy             0.1       0.0       0.0       0.0       0.1       0.2
 8 C  s               4.7       0.1       0.8       2.7       0.3       0.1
 8 C  px              0.2       0.3       2.6       0.2      10.9       0.6
 8 C  py              3.4       2.5       7.8       0.9       0.2      10.9
 8 C  dx2y2           0.0       0.0       0.0       0.0       0.0       0.1
 8 C  dxy             0.0       0.0       0.0       0.2       0.0       0.0
 9 C  s               4.6       0.0       0.2       3.4       0.1       0.3
 9 C  px              0.5       0.3       2.2       8.4       5.5       6.8
 9 C  py              3.6       3.2       0.6       1.5       5.2       4.9
 9 C  dx2y2           0.0       0.0       0.0       0.1       0.0       0.0
10 C  s               0.1       2.9       1.3       2.1       0.3       0.1
10 C  px              8.7       1.8       0.1       3.1       5.1       2.4
10 C  py              0.7       5.5       4.8       0.1       1.7       2.9
10 C  dxy             0.1       0.0       0.0       0.1       0.0       0.1
11 H  s               0.1       1.6       1.3       0.3       0.0       0.7
12 H  s               0.2       2.4       0.0       0.8       0.7       3.5
13 H  s               0.1       1.6       1.3       0.3       0.0       0.7
14 H  s               2.4       0.1       1.9       4.0       4.4       0.9
15 H  s               2.7       0.9       0.0       4.8       3.8       3.0
16 H  s               0.0       3.6       7.0       0.0       1.9       0.1
17 H  s               0.0       4.2       2.2       3.6       0.1       0.1
18 H  s               2.6       0.1       5.1       2.4       2.2       4.1
19 H  s               2.5       0.2       0.5       8.6       1.4       3.3
20 H  s               0.0       5.0       3.2       0.6       0.0       2.5

                     24        25        26        27        28        29   
                  -0.38668  -0.38353  -0.37304  -0.36460  -0.35243  -0.34389
                   2.00000   2.00000   2.00000   2.00000   2.00000   2.00000
                  --------  --------  --------  --------  --------  --------
 0 C  s               0.2       0.0       0.0       0.1       0.0       0.0
 0 C  pz              0.0      39.3       0.0       0.0       0.0      12.8
 0 C  px              1.4       0.0       2.9       0.4       4.9       0.0
 0 C  py              4.3       0.0       2.6      15.5       0.7       0.0
 0 C  dxz             0.0       0.2       0.0       0.0       0.0       0.1
 0 C  dyz             0.0       0.1       0.0       0.0       0.0       0.2
 0 C  dxy             0.0       0.0       0.0       0.1       0.0       0.0
 1 C  s               0.5       0.0       0.0       0.5       0.5       0.0
 1 C  pz              0.0      15.0       0.0       0.0       0.0       0.4
 1 C  px              1.6       0.0       5.4       0.0       0.0       0.0
 1 C  py              1.6       0.0       0.1      13.4       4.9       0.0
 1 C  dyz             0.0       0.1       0.0       0.0       0.0       0.2
 1 C  dxy             0.0       0.0       0.1       0.2       0.0       0.0
 2 C  s               0.4       0.0       0.1       1.1       0.3       0.0
 2 C  pz              0.0       3.7       0.0       0.0       0.0       1.6
 2 C  px              0.0       0.0       6.1       2.9      11.0       0.0
 2 C  py              1.4       0.0       0.2       0.4       0.1       0.0
 2 C  dx2y2           0.0       0.0       0.2       0.1       0.2       0.0
 2 C  dxy             0.0       0.0       0.0       0.0       0.5       0.0
 3 C  s               0.3       0.0       1.0       0.3       0.1       0.0
 3 C  pz              0.0       1.3       0.0       0.0       0.0       3.9
 3 C  px              0.2       0.0       5.2       1.1      11.9       0.0
 3 C  py              3.6       0.0       0.3       0.2       0.7       0.0
 3 C  dx2y2           0.0       0.0       0.0       0.2       0.3       0.0
 3 C  dxy             0.1       0.0       0.0       0.2       0.4       0.0
 4 C  s               0.1       0.0       0.3       0.1       0.8       0.0
 4 C  pz              0.0       1.3       0.0       0.0       0.0       8.0
 4 C  px              0.4       0.0       5.0       0.8       6.7       0.0
 4 C  py              1.5       0.0       3.4      14.5       1.3       0.0
 4 C  dx2y2           0.1       0.0       0.4       0.1       0.0       0.0
 4 C  dxy             0.1       0.0       0.0       0.3       0.1       0.0
 5 C  s               3.0       0.0       0.0       0.3       0.1       0.0
 5 C  pz              0.0       3.0       0.0       0.0       0.0      18.6
 5 C  px              0.9       0.0       4.7       6.7       0.1       0.0
 5 C  py              0.1       0.0       0.5       2.5       1.2       0.0
 5 C  dx2y2           0.2       0.0       0.1       0.0       0.1       0.0
 5 C  dxy             0.0       0.0       0.0       0.1       0.0       0.0
 6 C  s               1.8       0.0       0.1       0.3       0.2       0.0
 6 C  pz              0.0       7.0       0.0       0.0       0.0      11.8
 6 C  px              0.2       0.0       7.0       0.0       0.7       0.0
 6 C  py              1.4       0.0       3.9       0.1       0.3       0.0
 6 C  dx2y2           0.3       0.0       0.0       0.0       0.1       0.0
 6 C  dxy             0.2       0.0       0.1       0.0       0.0       0.0
 7 C  s               0.2       0.0       0.4       0.1       0.7       0.0
 7 C  pz              0.0       2.3       0.0       0.0       0.0       7.0
 7 C  px              0.3       0.0       7.7       3.7       2.3       0.0
 7 C  py             19.3       0.0       0.9       2.8       0.1       0.0
 7 C  dx2y2           0.3       0.0       0.1       0.1       0.0       0.0
 7 C  dxy             0.1       0.0       0.1       0.0       0.1       0.0
 8 C  s               1.1       0.0       0.1       0.1       0.2       0.0
 8 C  pz              0.0       0.7       0.0       0.0       0.0       6.8
 8 C  px              0.5       0.0       4.4       6.4       6.3       0.0
 8 C  py              0.4       0.0       1.2       0.5       2.2       0.0
 8 C  dx2y2           0.1       0.0       0.0       0.1       0.0       0.0
 8 C  dxy             0.1       0.0       0.0       0.0       0.5       0.0
 9 C  s               0.8       0.0       0.1       0.0       0.4       0.0
 9 C  pz              0.0       0.5       0.0       0.0       0.0       7.6
 9 C  px              0.1       0.0       4.9       0.2       4.3       0.0
 9 C  py              0.6       0.0       4.7       0.2       0.4       0.0
 9 C  dx2y2           0.3       0.0       0.0       0.0       0.2       0.0
 9 C  dxy             0.1       0.0       0.0       0.1       0.3       0.0
10 C  s               0.2       0.0       0.1       0.2       0.7       0.0
10 C  pz              0.0       0.8       0.0       0.0       0.0      10.9
10 C  px              2.5       0.0       6.9       1.6       1.5       0.0
10 C  py             15.9       0.0       3.6       2.1       0.4       0.0
10 C  dx2y2           0.4       0.0       0.0       0.0       0.1       0.0
10 C  dxy             0.0       0.0       0.2       0.0       0.0       0.0
11 H  s               0.3      12.3       0.9       1.8       0.0       4.8
12 H  s               1.1       0.0       1.1       0.3       2.4       0.0
13 H  s               0.3      12.3       0.9       1.8       0.0       4.8
14 H  s               0.0       0.0       3.7       0.2       8.7       0.0
15 H  s               2.4       0.0       0.8       1.5       7.2       0.0
16 H  s               2.0       0.0       4.8       7.3       0.9       0.0
17 H  s              12.0       0.0       0.0       2.7       0.2       0.0
18 H  s               0.0       0.0       0.1       2.6       7.1       0.0
19 H  s               0.6       0.0       1.3       0.2       3.9       0.0
20 H  s              12.0       0.0       0.9       0.9       0.1       0.0

                     30        31        32        33        34        35   
                  -0.33832  -0.32334  -0.29404  -0.29222  -0.28499  -0.25117
                   2.00000   2.00000   2.00000   2.00000   2.00000   2.00000
                  --------  --------  --------  --------  --------  --------
 0 C  s               0.0       0.2       0.0       0.0       0.3       0.0
 0 C  pz              0.0       0.0       1.2       0.0       0.0       2.5
 0 C  px             29.6       0.9       0.0       1.5       0.0       0.0
 0 C  py              0.5       6.0       0.0       0.1       8.9       0.0
 0 C  dz2             0.2       0.1       0.0       0.0       0.0       0.0
 0 C  dyz             0.0       0.0       0.1       0.0       0.0       0.3
 0 C  dx2y2           0.5       0.0       0.0       0.1       0.0       0.0
 1 C  s               0.1       0.1       0.0       0.0       0.0       0.0
 1 C  pz              0.0       0.0       4.0       0.0       0.0      11.2
 1 C  px              3.3       0.0       0.0      10.2       0.4       0.0
 1 C  py              0.1       4.0       0.0       0.1       5.3       0.0
 1 C  dyz             0.0       0.0       0.2       0.0       0.0       0.1
 1 C  dx2y2           0.4       0.2       0.0       0.2       0.4       0.0
 1 C  dxy             0.2       0.1       0.0       0.1       0.4       0.0
 2 C  s               0.4       0.0       0.0       0.1       0.0       0.0
 2 C  pz              0.0       0.0      16.1       0.0       0.0       4.2
 2 C  px              0.8       1.8       0.0       5.5       0.0       0.0
 2 C  py              0.6       9.4       0.0       0.7       5.6       0.0
 2 C  dyz             0.0       0.0       0.1       0.0       0.0       0.1
 2 C  dx2y2           0.0       0.4       0.0       0.5       0.2       0.0
 2 C  dxy             0.0       0.0       0.0       0.2       0.1       0.0
 3 C  pz              0.0       0.0      20.3       0.0       0.0       0.8
 3 C  px              0.3       0.5       0.0       5.9       0.1       0.0
 3 C  py              0.0      10.2       0.0       0.1       4.9       0.0
 3 C  dxz             0.0       0.0       0.0       0.0       0.0       0.1
 3 C  dx2y2           0.0       0.1       0.0       0.1       0.1       0.0
 3 C  dxy             0.0       0.2       0.0       0.5       0.3       0.0
 4 C  s               0.0       0.1       0.0       0.0       0.2       0.0
 4 C  pz              0.0       0.0      11.4       0.0       0.0      10.6
 4 C  px              0.6       1.7       0.0       7.0       0.1       0.0
 4 C  py              0.9       2.3       0.0       0.4       5.1       0.0
 4 C  dxz             0.0       0.0       0.1       0.0       0.0       0.0
 4 C  dx2y2           0.0       0.1       0.0       0.1       0.5       0.0
 4 C  dxy             0.0       0.2       0.0       0.1       0.3       0.0
 5 C  s               0.1       0.0       0.0       0.0       0.0       0.0
 5 C  pz              0.0       0.0       0.5       0.0       0.0       8.8
 5 C  px              1.1       1.4       0.0       7.6       0.3       0.0
 5 C  py              1.5       0.0       0.0       0.0      11.0       0.0
 5 C  dxz             0.0       0.0       0.2       0.0       0.0       0.1
 5 C  dyz             0.0       0.0       0.0       0.0       0.0       0.4
 5 C  dx2y2           0.1       0.0       0.0       0.4       0.3       0.0
 5 C  dxy             0.0       0.1       0.0       0.4       0.3       0.0
 6 C  s               0.3       0.0       0.0       0.0       0.0       0.0
 6 C  pz              0.0       0.0       0.0       0.0       0.0      12.3
 6 C  px              3.8       0.8       0.0       8.6       0.2       0.0
 6 C  py              1.7       0.9       0.0       0.0      10.5       0.0
 6 C  dxz             0.0       0.0       0.1       0.0       0.0       0.0
 6 C  dyz             0.0       0.0       0.0       0.0       0.0       0.3
 6 C  dx2y2           0.0       0.0       0.0       0.3       0.3       0.0
 6 C  dxy             0.0       0.1       0.0       0.4       0.3       0.0
 7 C  s               0.0       0.1       0.0       0.0       0.1       0.0
 7 C  pz              0.0       0.0       8.2       0.0       0.0      17.6
 7 C  px              2.6       0.3       0.0       6.6       0.1       0.0
 7 C  py              2.2       2.3       0.0       0.5       6.4       0.0
 7 C  dxz             0.0       0.0       0.1       0.0       0.0       0.0
 7 C  dx2y2           0.0       0.1       0.0       0.1       0.5       0.0
 7 C  dxy             0.0       0.3       0.0       0.1       0.2       0.0
 8 C  s               0.0       0.1       0.0       0.0       0.0       0.0
 8 C  pz              0.0       0.0      16.3       0.0       0.0       3.1
 8 C  px              2.1       0.1       0.0       5.5       0.2       0.0
 8 C  py              0.6      10.7       0.0       0.0       4.1       0.0
 8 C  dxz             0.0       0.0       0.0       0.0       0.0       0.2
 8 C  dx2y2           0.2       0.1       0.0       0.0       0.1       0.0
 8 C  dxy             0.0       0.3       0.0       0.4       0.3       0.0
 9 C  s               0.1       0.0       0.0       0.1       0.0       0.0
 9 C  pz              0.0       0.0      14.4       0.0       0.0       4.5
 9 C  px              8.3       0.7       0.0       4.9       0.1       0.0
 9 C  py              0.3       9.2       0.0       0.3       4.5       0.0
 9 C  dyz             0.0       0.0       0.0       0.0       0.0       0.2
 9 C  dx2y2           0.2       0.3       0.0       0.5       0.2       0.0
 9 C  dxy             0.1       0.1       0.0       0.2       0.0       0.0
10 C  s               0.2       0.1       0.0       0.1       0.1       0.0
10 C  pz              0.0       0.0       4.6       0.0       0.0      18.7
10 C  px              0.9       0.0       0.0       8.8       0.4       0.0
10 C  py              0.9       6.7       0.0       0.1       3.3       0.0
10 C  dx2y2           0.1       0.4       0.0       0.1       0.5       0.0
10 C  dxy             0.1       0.0       0.0       0.1       0.3       0.0
11 H  s               3.2       1.2       0.8       0.2       0.8       1.6
12 H  s              18.7       0.6       0.0       1.7       0.0       0.0
13 H  s               3.1       1.2       0.8       0.2       0.7       1.6
14 H  s               0.4       3.0       0.0       5.2       0.6       0.0
15 H  s               0.1       2.4       0.0       4.0       2.2       0.0
16 H  s               0.2       3.1       0.0       0.1       5.2       0.0
17 H  s               1.2       3.3       0.0       0.1       5.6       0.0
18 H  s               0.3       4.0       0.0       3.4       1.8       0.0
19 H  s               5.9       1.7       0.0       4.8       0.6       0.0
20 H  s               0.1       5.4       0.0       0.3       4.8       0.0

                     36        37        38        39        40        41   
                  -0.22385  -0.19364  -0.06731  -0.03813  -0.00102   0.04238
                   2.00000   2.00000   0.00000   0.00000   0.00000   0.00000
                  --------  --------  --------  --------  --------  --------
 0 C  s               0.0       0.0       0.0       0.0       0.0       4.9
 0 C  pz              0.0       0.5       0.0       0.1       0.1       0.0
 0 C  px              0.0       0.0       0.0       0.0       0.0       0.6
[...]
16 H  s               0.0       0.3       0.0       0.0       0.0       0.0
17 H  s               0.0       0.0       0.5       0.0       0.0       0.0
18 H  s               0.0       0.1       0.2       0.0       0.4       0.0
19 H  s               0.0       0.3       0.0       0.0       0.4       0.0
20 H  s               0.0       0.4       0.1       0.0       0.0       0.0

                    168       169       170       171       172       173   
                   2.75255   2.82894   2.83728   2.95463   3.27698   3.38887
                   0.00000   0.00000   0.00000   0.00000   0.00000   0.00000
                  --------  --------  --------  --------  --------  --------
 0 C  s               0.3       0.2       0.0       0.0       0.1       0.1
 0 C  px              0.2       0.1       0.0       0.1       0.0       0.0
 0 C  py              0.3       0.3       0.1       0.0       0.1       0.2
 0 C  dz2             0.4       0.2       0.0       0.0       0.0       0.0
 0 C  dx2y2           0.3       1.3       1.2       0.9       0.6       0.2
 0 C  dxy             2.4       0.4       0.2       1.3       0.0       0.3
 1 C  s               0.0       0.5       0.5       0.3       0.1       0.5
 1 C  px              0.8       0.1       1.3       0.5       0.6       0.2
 1 C  py              0.1       0.0       1.0       0.0       0.1       0.1
 1 C  dz2             0.2       0.3       0.1       0.6       0.1       0.1
 1 C  dx2y2          14.4       4.4       0.3       7.1       1.2       7.7
 1 C  dxy             0.3       3.8      12.3       6.8       7.8       1.2
 2 C  s               0.7       0.1       0.6       0.3       0.7       0.5
 2 C  px              0.3       0.0       0.5       0.1       0.1       0.0
 2 C  py              0.1       0.2       2.0       1.7       0.2       0.0
 2 C  dz2             0.3       0.0       0.4       0.4       0.3       0.3
 2 C  dx2y2           2.7       1.7       0.1       8.2       3.6       5.9
 2 C  dxy             0.3       2.2      11.7       1.4       2.7       0.4
 3 C  s               0.4       0.7       0.0       0.6       0.7       0.5
 3 C  px              0.4       2.3       0.2       0.3       0.3       0.0
 3 C  py              0.1       0.7       0.3       0.9       0.0       0.1
 3 C  dz2             0.0       0.4       0.1       0.6       0.3       0.3
 3 C  dx2y2           4.8       5.6       4.0       2.8       0.5       0.1
 3 C  dxy             1.4       2.5       0.7       5.4       5.5       6.0
 4 C  s               0.3       0.8       0.5       0.3       0.2       0.8
 4 C  px              2.0       2.1       0.3       0.3       0.6       0.1
 4 C  py              0.4       0.0       0.1       0.1       0.1       0.2
 4 C  dz2             0.4       0.4       0.1       0.5       0.2       0.2
 4 C  dx2y2           0.0      15.4       0.5       0.0       6.6       3.3
 4 C  dxy            15.6       1.3       0.0       5.1       0.0       3.9
 5 C  s               0.3       0.4       0.4       0.9       0.7       0.0
 5 C  px              3.4       0.0       0.3       0.1       0.0       0.4
 5 C  py              0.4       0.0       0.0       1.8       0.5       0.0
 5 C  dz2             0.3       0.0       0.1       0.9       0.4       0.0
 5 C  dx2y2           1.1       7.2       5.3       2.4       8.8       5.6
 5 C  dxy             8.4       2.9       1.2       0.8       4.5      11.7
 6 C  s               0.1       0.7       0.1       1.7       0.5       0.0
 6 C  px              2.3       0.6       0.4       0.2       0.1       0.4
 6 C  py              0.2       0.2       0.6       1.4       0.5       0.0
 6 C  dz2             0.2       0.3       0.0       1.4       0.3       0.0
 6 C  dx2y2           1.8       2.7       1.4       6.9      11.0       4.7
 6 C  dxy             3.4       3.9       0.0       2.8       3.9      12.8
 7 C  s               0.8       0.4       0.2       0.5       0.3       0.8
 7 C  px              0.3       2.4       1.0       0.4       0.6       0.1
 7 C  py              0.3       0.1       0.0       0.3       0.1       0.2
 7 C  dz2             0.8       0.1       0.0       0.7       0.2       0.3
 7 C  dx2y2           1.6      10.5       0.1       0.3       7.7       3.4
 7 C  dxy             5.6       3.1       2.6       6.1       0.0       3.5
 8 C  s               0.1       1.0       0.1       0.3       0.9       0.5
 8 C  px              0.1       1.7       0.6       0.3       0.3       0.0
 8 C  py              0.3       0.3       0.9       0.5       0.0       0.1
 8 C  dz2             0.0       0.4       0.0       0.5       0.4       0.3
 8 C  dx2y2           0.0       4.5       9.4       1.4       0.5       0.1
 8 C  dxy             2.2       2.2       0.1       4.8       6.2       5.4
 9 C  s               0.2       0.2       0.2       0.5       0.8       0.5
 9 C  px              0.1       0.2       0.5       0.0       0.1       0.0
 9 C  py              0.2       0.1       3.4       0.5       0.1       0.1
 9 C  dz2             0.1       0.0       0.1       0.5       0.4       0.3
 9 C  dx2y2           2.7       0.0       0.5       7.2       3.9       5.0
 9 C  dxy             1.6       0.6      12.8       0.0       2.7       0.5
10 C  s               0.1       0.1       0.6       0.4       0.3       0.8
10 C  px              1.1       0.1       2.3       0.3       0.6       0.3
10 C  py              0.1       0.1       0.6       0.0       0.0       0.0
10 C  dz2             0.1       0.0       0.1       0.6       0.3       0.2
10 C  dx2y2           8.6       0.1       0.6       4.6       2.0       6.2
10 C  dxy             0.1       4.1      13.6       0.3       5.4       0.6
14 H  s               0.1       0.0       0.1       0.2       0.2       0.2
15 H  s               0.1       0.1       0.0       0.2       0.2       0.2
16 H  s               0.2       0.3       0.0       0.1       0.2       0.3
17 H  s               0.2       0.2       0.0       0.0       0.2       0.3
18 H  s               0.1       0.1       0.0       0.2       0.2       0.2
19 H  s               0.1       0.0       0.0       0.2       0.2       0.2
20 H  s               0.3       0.0       0.1       0.1       0.2       0.3



                      *****************************
                      * MAYER POPULATION ANALYSIS *
                      *****************************

  NA   - Mulliken gross atomic population
  ZA   - Total nuclear charge
  QA   - Mulliken gross atomic charge
  VA   - Mayer's total valence
  BVA  - Mayer's bonded valence
  FA   - Mayer's free valence

  ATOM       NA         ZA         QA         VA         BVA        FA
  0 C      6.2122     6.0000    -0.2122     3.9306     3.9306    -0.0000
  1 C      6.0172     6.0000    -0.0172     4.0344     4.0344    -0.0000
  2 C      6.1508     6.0000    -0.1508     3.8401     3.8401     0.0000
  3 C      6.0302     6.0000    -0.0302     3.7713     3.7713     0.0000
  4 C      6.1240     6.0000    -0.1240     3.7535     3.7535    -0.0000
  5 C      5.8658     6.0000     0.1342     3.8262     3.8262    -0.0000
  6 C      5.8738     6.0000     0.1262     3.8593     3.8593    -0.0000
  7 C      6.1632     6.0000    -0.1632     3.7946     3.7946    -0.0000
  8 C      6.0323     6.0000    -0.0323     3.7996     3.7996     0.0000
  9 C      6.0391     6.0000    -0.0391     3.7923     3.7923    -0.0000
 10 C      6.1267     6.0000    -0.1267     3.7760     3.7760    -0.0000
 11 H      0.8828     1.0000     0.1172     0.9503     0.9503     0.0000
 12 H      0.8973     1.0000     0.1027     0.9658     0.9658    -0.0000
 13 H      0.8828     1.0000     0.1172     0.9503     0.9503     0.0000
 14 H      0.9646     1.0000     0.0354     0.9608     0.9608     0.0000
 15 H      0.9512     1.0000     0.0488     0.9494     0.9494     0.0000
 16 H      0.9638     1.0000     0.0362     0.9578     0.9578    -0.0000
 17 H      0.9623     1.0000     0.0377     0.9697     0.9697    -0.0000
 18 H      0.9502     1.0000     0.0498     0.9499     0.9499     0.0000
 19 H      0.9485     1.0000     0.0515     0.9495     0.9495    -0.0000
 20 H      0.9614     1.0000     0.0386     0.9576     0.9576     0.0000

  Mayer bond orders larger than 0.100000
B(  0-C ,  1-C ) :   1.1450 B(  0-C , 11-H ) :   0.9187 B(  0-C , 12-H ) :   0.9378 
B(  0-C , 13-H ) :   0.9187 B(  1-C ,  2-C ) :   1.4947 B(  1-C ,  6-C ) :   1.2532 
B(  2-C ,  3-C ) :   1.2400 B(  2-C , 14-H ) :   0.9548 B(  3-C ,  4-C ) :   1.4500 
B(  3-C , 15-H ) :   0.9617 B(  4-C ,  5-C ) :   1.2368 B(  4-C , 16-H ) :   0.9669 
B(  5-C ,  6-C ) :   1.2485 B(  5-C , 10-C ) :   1.2432 B(  6-C ,  7-C ) :   1.2665 
B(  7-C ,  8-C ) :   1.4594 B(  7-C , 17-H ) :   0.9469 B(  8-C ,  9-C ) :   1.2625 
B(  8-C , 18-H ) :   0.9598 B(  9-C , 10-C ) :   1.4548 B(  9-C , 19-H ) :   0.9627 
B( 10-C , 20-H ) :   0.9643 

-------
TIMINGS
-------

Total SCF time: 0 days 0 hours 0 min 10 sec 

Total time                  ....      10.055 sec
Sum of individual times     ....      10.023 sec  ( 99.7%)

SCF preparation             ....       0.818 sec  (  8.1%)
Fock matrix formation       ....       6.282 sec  ( 62.5%)
  Startup                   ....       0.214 sec  (  3.4% of F)
  Split-RI-J                ....       2.354 sec  ( 37.5% of F)
  XC integration            ....       2.280 sec  ( 36.3% of F)
    XC Preparation          ....       0.000 sec  (  0.0% of XC)
    Basis function eval.    ....       0.930 sec  ( 40.8% of XC)
    Density eval.           ....       0.493 sec  ( 21.6% of XC)
    XC-Functional eval.     ....       0.142 sec  (  6.2% of XC)
    XC-Potential eval.      ....       0.565 sec  ( 24.8% of XC)
Diagonalization             ....       0.000 sec  (  0.0%)
Density matrix formation    ....       0.029 sec  (  0.3%)
Total Energy calculation    ....       0.002 sec  (  0.0%)
Population analysis         ....       2.579 sec  ( 25.6%)
Orbital Transformation      ....       0.016 sec  (  0.2%)
Orbital Orthonormalization  ....       0.000 sec  (  0.0%)
DIIS solution               ....       0.280 sec  (  2.8%)
  MO trafo                  ....       0.000 sec  (  0.0 % of DIIS)
  Orb grad                  ....       0.000 sec  (  0.0 % of DIIS)
  Energy W gradient         ....       0.000 sec  (  0.0 % of DIIS)
  DIIS error                ....       0.004 sec  (  1.6 % of DIIS)
  DIIS work                 ....       0.267 sec  ( 95.3 % of DIIS)
  Form Q                    ....       0.000 sec  (  0.0 % of DIIS)
  Form QpQm                 ....       0.000 sec  (  0.0 % of DIIS)
  Exp/Cayley                ....       0.000 sec  (  0.0 % of DIIS)
  Orb update                ....       0.000 sec  (  0.0 % of DIIS)
  Wake-sleep                ....       0.001 sec  (  0.4 % of DIIS)
SOSCF solution              ....       0.019 sec  (  0.2%)
  MO trafo                  ....       0.012 sec  ( 62.5 % of SOSCF)
  Orb grad                  ....       0.000 sec  (  0.9 % of SOSCF)
  Rot update                ....       0.002 sec  (  8.4 % of SOSCF)
  Step                      ....       0.005 sec  ( 27.9 % of SOSCF)
Finished LeanSCF after  12.7 sec

Maximum memory used throughout the entire LEANSCF-calculation: 17.1 MB


-------------------------------------------------------------------------------
                          DFT DISPERSION CORRECTION                            
                                                                               
                                DFTD4 V3.4.0                                   
-------------------------------------------------------------------------------
The PBE functional is recognized
Active option DFTDOPT                   ...         5   

-------------------------   ----------------
Dispersion correction           -0.025822230
-------------------------   ----------------

------------------   -----------------
gCP correction             0.076885797
------------------   -----------------

-------------------------   --------------------
FINAL SINGLE POINT ENERGY      -424.269377190526
-------------------------   --------------------


------------------------------------------------------------------------------
                              ORCA PROPERTY CALCULATIONS
------------------------------------------------------------------------------

GBWName                                 ... sp.gbw
Number of atoms                         ...     21
Number of basis functions               ...    174
Max core memory                         ...   1024 MB

Electric properties:
Dipole moment                           ... YES
Quadrupole moment                       ...  NO
Static polarizability (Dipole/Dipole)   ...  NO
Static polarizability (Dipole/Quad.)    ...  NO
Static polarizability (Quad./Quad.)     ...  NO
Static polarizability (Velocity)        ...  NO

Atomic electric properties:
Dipole moment                           ...  NO
Quadrupole moment                       ...  NO
Static polarizability                   ...  NO

Choice of electric origin               ... Center of mass
Position of electric origin             ...    -0.000003    -0.000005     0.000000

General magnetic properties:
Magnetizability                         ...  NO

EPR properties:
g-Tensor (aka g-matrix)                 ...  NO
Zero-Field splitting spin-orbit         ...  NO
Zero-field splitting spin-spin          ...  NO
Hyperfine couplings                     ...  NO (   0 nuclei)
Quadrupole couplings                    ...  NO (   0 nuclei)
Contact density                         ...  NO (   0 nuclei)

NMR properties:
Chemical shifts                         ...  NO (   0 nuclei)
Spin-rotation constants                 ...  NO (   0 nuclei)
Spin-spin couplings                     ...  NO (   0 nuclei,    0 pairs)

Choice of magnetic origin               ... GIAO
Position of magnetic origin             ...     0.000000     0.000000     0.000000

Properties with geometric perturbations:
SCF Hessian                             ...  NO
IR spectrum                             ...  NO
VCD spectrum                            ...  NO
X-ray spectroscopy properties:
SCF XES/XAS/RIXS spectra                ...  NO


-------------
DIPOLE MOMENT
-------------

Method             : SCF
Type of density    : Electron Density
Multiplicity       :   1
Irrep              :   0
Energy             :  -424.3204407569259047 Eh
Relativity type    : 
Basis              : AO
                                X                 Y                 Z
Electronic contribution:      2.338858580       3.435435777      -0.000696763
Nuclear contribution   :     -2.386325184      -3.566628556       0.000789719
                        -----------------------------------------
Total Dipole Moment    :     -0.047466604      -0.131192779       0.000092956
                        -----------------------------------------
Magnitude (a.u.)       :      0.139515706
Magnitude (Debye)      :      0.354620743



--------------------
Rotational spectrum 
--------------------
 
Rotational constants in cm-1:             0.064162             0.037986             0.023966 
Rotational constants in MHz :          1923.537162          1138.781712           718.496242 

Dipole components along the rotational axes: 
x,y,z [a.u.] :    -0.047467     0.131193     0.000093 
x,y,z [Debye]:    -0.120652     0.333465     0.000236 

 

Dipole moment calculation done in   0.4 sec 

Maximum memory used throughout the entire PROP-calculation: 11.1 MB

--------------------------------
SUGGESTED CITATIONS FOR THIS RUN
--------------------------------

Below you find a list of papers that are relevant to this ORCA run
We neither can nor want to force you to cite these papers, but we appreciate if you do
You receive ORCA, which is the product of decades of hard work by many enthusiastic individuals, for free
The only thing we kindly ask in return is that you cite our papers,
We deeply appreciate it, if you show your appreciation for ORCA by not just citing the generic ORCA reference.

Please note that relegating all ORCA citations to the supporting information does *not* help us.
SI sections are not indexed - citations you put there will not count into any citation statistics
But we need these citations in order to attract the funding resources that allow us to do what we are doing

Therefore, if you are a happy ORCA user, please consider citing a few of the papers listed below in the main body of your paper

In addition to the list printed below, the program has created the file sp.bibtex that contains the list in bibtex format
You can import this file easily into all common literature databanks and citation aid programs


List of essential papers. We consider these as the minimum necessary citations

  1. Neese,F.
     Software update: the ORCA program system, version 5.0
     WIRES Comput. Molec. Sci., 2022 12(1)e1606
     doi.org/10.1002/wcms.1606

List of papers to cite with high priority. The work reported in these papers was absolutely
necessary for this run to complete.
Our perspective: the developers of density functionals and basis sets usually get cited in chemistry papers
Good! But without the algorithms to do something with them, the functionals or basis sets would not do anything.
Hence, in our opinion, the algorithm design and method developments papers are equally worthy of getting cited

  1. Neese,F.
     An improvement of the resolution of the identity approximation for the formation of the Coulomb matrix
     J. Comp. Chem., 2003 24(14)1740-1747
     doi.org/10.1002/jcc.10318
  2. Neese,F.
     The SHARK Integral Generation and Digestion System
     J. Comp. Chem., 2022  1-16
     doi.org/10.1002/jcc.26942
  3. Caldeweyher,E.; Bannwarth,C.; Grimme,S.
     Extension of the D3 dispersion coefficient model
     J. Chem. Phys., 2017 147 034112
     doi.org/10.1063/1.4993215
  4. Caldeweyher,E.; Ehlert,S.; Hansen,A.; Neugebauer,H.; Spicher,S.; Bannwarth,C.; Grimme,S.
     A generally applicable atomic-charge dependent London dispersion correction
     J. Chem. Phys., 2019 150 154122
     doi.org/10.1063/1.5090222
  5. Caldeweyher,E.; Mewes,J.; Ehlert,S.; Grimme,S.
     Extension and evaluation of the D4 London-dispersion model for periodic systems
     Phys. Chem. Chem. Phys., 2020 22(16)8499-8512
     doi.org/10.1039/D0CP00502A
  6. Wittmann,L.; Gordiy,I.; Friede,M.; Helmich-Paris,B.; Grimme,S.; Hansen,A.; Bursch,M.
     Extension of the D3 and D4 London Dispersion Corrections to the full Actinides Series
     Phys. Chem. Chem. Phys., 2024 26(32)21379-21394
     doi.org/https://doi.org/10.1039/D4CP01514B 

List of suggested additional citations. These are papers that are important in the 'surrounding' of 
of this run, or papers that preceded the highly important papers. If you like your results we are grateful for a citation.

  1. Neese,F.
     The ORCA program system
     WIRES Comput. Molec. Sci., 2012 2(1)73-78
     doi.org/10.1002/wcms.81
  2. Neese,F.
     Software update: the ORCA program system, version 4.0
     WIRES Comput. Molec. Sci., 2018 8(1)1-6
     doi.org/10.1002/wcms.1327
  3. Neese,F.; Wennmohs,F.; Becker,U.; Riplinger,C.
     The ORCA quantum chemistry program package
     J. Chem. Phys., 2020 152 Art. No. L224108
     doi.org/10.1063/5.0004608

List of optional additional citations

  1. Neese,F.
     Approximate second-order SCF convergence for spin unrestricted wavefunctions
     Chem. Phys. Lett., 2000 325(1-3)93-98
     doi.org/10.1016/s0009-2614(00)00662-x

Timings for individual modules:

Sum of individual times          ...       14.355 sec (=   0.239 min)
Startup calculation              ...        0.514 sec (=   0.009 min)   3.6 %
SCF iterations                   ...       13.336 sec (=   0.222 min)  92.9 %
Property calculations            ...        0.504 sec (=   0.008 min)   3.5 %
                             ****ORCA TERMINATED NORMALLY****
TOTAL RUN TIME: 0 days 0 hours 0 minutes 16 seconds 255 msec
