
                                 *****************
                                 * O   R   C   A *
                                 *****************

                                            #,                                       
                                            ###                                      
                                            ####                                     
                                            #####                                    
                                            ######                                   
                                           ########,                                 
                                     ,,################,,,,,                         
                               ,,#################################,,                 
                          ,,##########################################,,             
                       ,#########################################, ''#####,          
                    ,#############################################,,   '####,        
                  ,##################################################,,,,####,       
                ,###########''''           ''''###############################       
              ,#####''   ,,,,##########,,,,          '''####'''          '####       
            ,##' ,,,,###########################,,,                        '##       
           ' ,,###''''                  '''############,,,                           
         ,,##''                                '''############,,,,        ,,,,,,###''
      ,#''                                            '''#######################'''  
     '                                                          ''''####''''         
             ,#######,   #######,   ,#######,      ##                                
            ,#'     '#,  ##    ##  ,#'     '#,    #''#        ,####,   ,####,        
            ##       ##  ##   ,#'  ##            #'  '#       #'       #'  '#        
            ##       ##  #######   ##           ,######,      #####,   #    #        
            '#,     ,#'  ##    ##  '#,     ,#' ,#      #,     #,   #   #,  ,#        
             '#######'   ##     ##  '#######'  #'      '#     '####' # '####'        



                #########################################################
                #                        -***-                          #
                #          Department of theory and spectroscopy        #
                #                                                       #
                #                      Frank Neese                      #
                #                                                       #
                #     Directorship, Architecture, Infrastructure        #
                #                    SHARK, DRIVERS                     #
                #        Core code/Algorithms in most modules           #
                #                                                       #
                #        Max Planck Institute fuer Kohlenforschung      #
                #                Kaiser Wilhelm Platz 1                 #
                #                 D-45470 Muelheim/Ruhr                 #
                #                      Germany                          #
                #                                                       #
                #                  All rights reserved                  #
                #                        -***-                          #
                #########################################################


                         Program Version 6.0.0  -   RELEASE  -


 With contributions from (in alphabetic order):
   Daniel Aravena         : Magnetic Suceptibility
   Michael Atanasov       : Ab Initio Ligand Field Theory (pilot matlab implementation)
   Alexander A. Auer      : GIAO ZORA, VPT2 properties, NMR spectrum
   Ute Becker             : All parallelization in ORCA, NUMFREQ, NUMCALC
   Giovanni Bistoni       : ED, misc. LED, open-shell LED, HFLD
   Martin Brehm           : Molecular dynamics
   Dmytro Bykov           : pre 5.0 version of the SCF Hessian
   Marcos Casanova-Páez   : Triplet and SCS-CIS(D). UHF-(DLPNO)-IP/EA/STEOM-CCSD. UHF-CVS-IP/STEOM-CCSD
   Vijay G. Chilkuri      : MRCI spin determinant printing, contributions to CSF-ICE
   Pauline Colinet        : FMM embedding
   Dipayan Datta          : RHF DLPNO-CCSD density
   Achintya Kumar Dutta   : EOM-CC, STEOM-CC
   Nicolas Foglia         : Exact transition moments, OPA infrastructure, MCD improvements
   Dmitry Ganyushin       : Spin-Orbit,Spin-Spin,Magnetic field MRCI
   Miquel Garcia          : C-PCM and meta-GGA Hessian, CCSD/C-PCM, Gaussian charge scheme
   Tiago L. C. Gouveia    : GS-ROHF, GS-ROCIS
   Yang Guo               : DLPNO-NEVPT2, F12-NEVPT2, CIM, IAO-localization
   Andreas Hansen         : Spin unrestricted coupled pair/coupled cluster methods
   Ingolf Harden          : AUTO-CI MPn and infrastructure 
   Benjamin Helmich-Paris : MC-RPA, TRAH-(SCF,CASSCF), AVAS, COSX integrals, SCF dyn. polar.
   Lee Huntington         : MR-EOM, pCC
   Robert Izsak           : Overlap fitted RIJCOSX, COSX-SCS-MP3, EOM
   Riya Kayal             : Wick's Theorem for AUTO-CI, AUTO-CI UHF-CCSDT
   Emily Kempfer          : AUTO-CI, RHF CISDT and CCSDT
   Christian Kollmar      : KDIIS, OOCD, Brueckner-CCSD(T), CCSD density, CASPT2, CASPT2-K, improved NEVPT2
   Axel Koslowski         : Symmetry handling
   Simone Kossmann        : Meta GGA functionals, TD-DFT gradient, OOMP2, (MP2 Hessian; deprecated post 5.0)
   Lucas Lang             : DCDCAS
   Marvin Lechner         : AUTO-CI (C++ implementation), FIC-MRCC
   Spencer Leger          : CASSCF response
   Dagmar Lenk            : GEPOL surface, SMD, ORCA-2-JSON
   Dimitrios Liakos       : Extrapolation schemes; Compound Job, initial MDCI parallelization
   Dimitrios Manganas     : Further ROCIS development; embedding schemes. LFT, Crystal Embedding
   Dimitrios Pantazis     : SARC Basis sets
   Anastasios Papadopoulos: AUTO-CI, single reference methods and gradients
   Taras Petrenko         : pre 6.0 DFT Hessian and TD-DFT gradient, (ASA, deprecated), ECA, 1-Electron XAS/XES, NRVS
   Peter Pinski           : DLPNO-MP2, DLPNO-MP2 Gradient
   Christoph Reimann      : Effective Core Potentials
   Marius Retegan         : Local ZFS, SOC
   Christoph Riplinger    : Optimizer, TS searches, QM/MM, DLPNO-CCSD(T), (RO)-DLPNO pert. Triples
   Michael Roemelt        : Original ROCIS implementation
   Masaaki Saitow         : Open-shell DLPNO-CCSD energy and density
   Barbara Sandhoefer     : DKH picture change effects
   Kantharuban Sivalingam : CASSCF convergence/infrastructure, NEVPT2 and variants, FIC-MRCI
   Bernardo de Souza      : ESD, SOC TD-DFT
   Georgi Stoychev        : AutoAux, RI-MP2 NMR, DLPNO-MP2 response, X2C
   Van Anh Tran           : RI-MP2 g-tensors
   Willem Van den Heuvel  : Paramagnetic NMR
   Zikuan Wang            : NOTCH, Electric field optimization 
   Frank Wennmohs         : Technical directorship and infrastructure
   Hang Xu                : AUTO-CI-Response properties 


 We gratefully acknowledge several colleagues who have allowed us to
 interface, adapt or use parts of their codes:
   Stefan Grimme, W. Hujo, H. Kruse, P. Pracht,  : VdW corrections, initial TS optimization,
                  C. Bannwarth, S. Ehlert,         DFT functionals, gCP, sTDA/sTD-DF
                  L. Wittmann, M. Mueller
   Ed Valeev, F. Pavosevic, A. Kumar             : LibInt (2-el integral package), F12 methods
   Garnet Chan, S. Sharma, J. Yang, R. Olivares  : DMRG
   Ulf Ekstrom                                   : XCFun DFT Library
   Mihaly Kallay                                 : mrcc  (arbitrary order and MRCC methods)
   Frank Weinhold                                : gennbo (NPA and NBO analysis)
   Simon Mueller                                 : openCOSMO-RS
   Christopher J. Cramer and Donald G. Truhlar   : smd solvation model
   Lars Goerigk                                  : TD-DFT with DH, B97 family of functionals
   V. Asgeirsson, H. Jonsson                     : NEB implementation
   FAccTs GmbH                                   : IRC, NEB, NEB-TS, DLPNO-Multilevel, CI-OPT
                                                   MM, QMMM, 2- and 3-layer-ONIOM, Crystal-QMMM,
                                                   LR-CPCM, SF, NACMEs, symmetry and pop. for TD-DFT,
                                                   nearIR, NL-DFT gradient (VV10), updates on ESD,
                                                   ML-optimized integration grids, MBIS, APM,
                                                   GOAT, DOCKER, SOLVATOR, interface openCOSMO-RS
   S Lehtola, MJT Oliveira, MAL Marques          : LibXC Library
   Liviu Ungur et al                             : ANISO software


 Your calculation uses the libint2 library for the computation of 2-el integrals
 For citations please refer to: http://libint.valeyev.net

 Your ORCA version has been built with support for libXC version: 6.2.2
 For citations please refer to: https://libxc.gitlab.io

 This ORCA versions uses:
   CBLAS   interface :  Fast vector & matrix operations
   LAPACKE interface :  Fast linear algebra routines
   SCALAPACK package :  Parallel linear algebra routines
   Shared memory     :  Shared parallel matrices
   BLAS/LAPACK       :  OpenBLAS 0.3.27  USE64BITINT DYNAMIC_ARCH NO_AFFINITY SkylakeX SINGLE_THREADED
        Core in use  :  SkylakeX
   Copyright (c) 2011-2014, The OpenBLAS Project




***************************************
The coordinates will be read from file: vacuum_censo.xyz
***************************************


Your calculation utilizes the geometrical counterpoise correction gCP
Please cite in your paper:
H.Kruse, S. Grimme J.Chem.Phys., 136, (2012), 154101 
   

Your calculation utilizes the atom-pairwise dispersion correction
based on EEQ partial charges (D4)


================================================================================

----- Orbital basis set information -----
Your calculation utilizes the basis: def2-TZVP
   F. Weigend and R. Ahlrichs, Phys. Chem. Chem. Phys. 7, 3297 (2005).

----- AuxJ basis set information -----
Your calculation utilizes the basis: def2-mTZVPP/J
   Stefan Grimme, Andreas Hansen, Sebastian Ehlert, and Jan-Michael Mewes 
   J. Chem. Phys. 154, 000000 (2021). DOI: 10.1063/5.0040021

================================================================================
                                        WARNINGS
                       Please study these warnings very carefully!
================================================================================

Using LibXC functional ID 497 : Re-regularized SCAN exchange by Furness et al
[ 1]  J. W. Furness, A. D. Kaplan, J. Ning, J. P. Perdew, and J. Sun.,  J. Phys. Chem. Lett. 11, 8208-8215 (2020)
[ 2]  J. W. Furness, A. D. Kaplan, J. Ning, J. P. Perdew, and J. Sun.,  J. Phys. Chem. Lett. 11, 9248-9248 (2020)
Using LibXC functional ID 498 : Re-regularized SCAN correlation by Furness et al
[ 1]  J. W. Furness, A. D. Kaplan, J. Ning, J. P. Perdew, and J. Sun.,  J. Phys. Chem. Lett. 11, 8208-8215 (2020)
[ 2]  J. W. Furness, A. D. Kaplan, J. Ning, J. P. Perdew, and J. Sun.,  J. Phys. Chem. Lett. 11, 9248-9248 (2020)
Using LibXC functional ID 497 : Re-regularized SCAN exchange by Furness et al
[ 1]  J. W. Furness, A. D. Kaplan, J. Ning, J. P. Perdew, and J. Sun.,  J. Phys. Chem. Lett. 11, 8208-8215 (2020)
[ 2]  J. W. Furness, A. D. Kaplan, J. Ning, J. P. Perdew, and J. Sun.,  J. Phys. Chem. Lett. 11, 9248-9248 (2020)
Using LibXC functional ID 498 : Re-regularized SCAN correlation by Furness et al
[ 1]  J. W. Furness, A. D. Kaplan, J. Ning, J. P. Perdew, and J. Sun.,  J. Phys. Chem. Lett. 11, 8208-8215 (2020)
[ 2]  J. W. Furness, A. D. Kaplan, J. Ning, J. P. Perdew, and J. Sun.,  J. Phys. Chem. Lett. 11, 9248-9248 (2020)

================================================================================
                                       INPUT FILE
================================================================================
NAME = vacuum_censo.inp
|  1> ! r2SCAN-3c DEF2-TZVP FREQ
|  2> * xyzfile 0 1 vacuum_censo.xyz
|  3> 
|  4>                          ****END OF INPUT****
================================================================================

                       ****************************
                       * Single Point Calculation *
                       ****************************

---------------------------------
CARTESIAN COORDINATES (ANGSTROEM)
---------------------------------
  C      4.463902   -0.276324    0.002232
  C      4.254385    1.098380    0.002071
  C      2.957826    1.606409    0.000590
  C      1.878459    0.737536   -0.000819
  C      2.087893   -0.640718   -0.000552
  C      3.377890   -1.147804    0.000981
  O      1.039737   -1.539248   -0.001974
  C     -0.224733   -0.991906   -0.000973
  C     -1.309285   -1.853787    0.000276
  C     -2.608436   -1.353372    0.000899
  C     -2.796604    0.021821    0.000351
  C     -1.721077    0.903381   -0.000737
  C     -0.433962    0.387766   -0.001415
  O      0.609042    1.284731   -0.002696
  Cl    -4.423315    0.672338    0.001083
  H      5.471081   -0.677673    0.003349
  H      5.096029    1.781814    0.003117
  H      2.764103    2.673536    0.000420
  H      3.510951   -2.224181    0.001089
  H     -1.124660   -2.922333    0.000668
  H     -3.457699   -2.024958    0.001823
  H     -1.864352    1.976996   -0.001146

----------------------------
CARTESIAN COORDINATES (A.U.)
----------------------------
  NO LB      ZA    FRAG     MASS         X           Y           Z
   0 C     6.0000    0    12.011    8.435552   -0.522177    0.004219
   1 C     6.0000    0    12.011    8.039622    2.075637    0.003913
   2 C     6.0000    0    12.011    5.589481    3.035672    0.001115
   3 C     6.0000    0    12.011    3.549773    1.393741   -0.001547
   4 C     6.0000    0    12.011    3.945546   -1.210782   -0.001042
   5 C     6.0000    0    12.011    6.383287   -2.169035    0.001854
   6 O     8.0000    0    15.999    1.964819   -2.908758   -0.003729
   7 C     6.0000    0    12.011   -0.424684   -1.874430   -0.001838
   8 C     6.0000    0    12.011   -2.474190   -3.503150    0.000522
   9 C     6.0000    0    12.011   -4.929230   -2.557503    0.001699
  10 C     6.0000    0    12.011   -5.284816    0.041236    0.000664
  11 C     6.0000    0    12.011   -3.252363    1.707143   -0.001394
  12 C     6.0000    0    12.011   -0.820069    0.732771   -0.002674
  13 O     8.0000    0    15.999    1.150922    2.427789   -0.005094
  14 Cl   17.0000    0    35.453   -8.358855    1.270534    0.002046
  15 H     1.0000    0     1.008   10.338844   -1.280615    0.006328
  16 H     1.0000    0     1.008    9.630098    3.367141    0.005891
  17 H     1.0000    0     1.008    5.223398    5.052252    0.000794
  18 H     1.0000    0     1.008    6.634735   -4.203093    0.002057
  19 H     1.0000    0     1.008   -2.125299   -5.522410    0.001262
  20 H     1.0000    0     1.008   -6.534105   -3.826617    0.003445
  21 H     1.0000    0     1.008   -3.523115    3.735981   -0.002167

--------------------------------
INTERNAL COORDINATES (ANGSTROEM)
--------------------------------
 C      0   0   0     0.000000000000     0.00000000     0.00000000
 C      1   0   0     1.390578255355     0.00000000     0.00000000
 C      2   1   0     1.392537392774   120.06236429     0.00000000
 C      3   2   1     1.385631229668   119.76986382     0.00000000
 C      4   3   2     1.394076148048   120.19313789     0.00000000
 C      5   4   3     1.386084589495   120.09962446     0.00000000
 O      5   4   3     1.380575306917   121.96442482   180.00261941
 C      7   5   4     1.377849669109   115.98913517   359.87516358
 C      8   7   5     1.385313947643   118.12023256   180.12227164
 C      9   8   7     1.392195639224   120.46023735   180.02023323
 C     10   9   8     1.388007553637   118.85740496     0.00000000
 C     11  10   9     1.390650680695   121.54845446     0.00000000
 C     12  11  10     1.386551232418   118.82919452     0.00000000
 O     13  12  11     1.375647037183   117.47411483   179.99021486
 Cl    11  10   9     1.751959043968   119.58771790   179.99863348
 H      1   2   3     1.084200717703   120.39235455   179.99794675
 H      2   1   3     1.084181066959   120.41168872   179.99847338
 H      3   2   1     1.084569126645   121.68590555   180.00051135
 H      6   5   4     1.084570657618   118.50637990   180.00391912
 H      9   8   7     1.084378791584   118.67092103     0.00000000
 H     10   9   8     1.082717304932   120.59754537   179.99679417
 H     12  11  10     1.083132699659   121.73858260   180.00129250

---------------------------
INTERNAL COORDINATES (A.U.)
---------------------------
 C      0   0   0     0.000000000000     0.00000000     0.00000000
 C      1   0   0     2.627812070408     0.00000000     0.00000000
 C      2   1   0     2.631514303588   120.06236429     0.00000000
 C      3   2   1     2.618463546681   119.76986382     0.00000000
 C      4   3   2     2.634422129643   120.19313789     0.00000000
 C      5   4   3     2.619320272594   120.09962446     0.00000000
 O      5   4   3     2.608909237327   121.96442482   180.00261941
 C      7   5   4     2.603758528329   115.98913517   359.87516358
 C      8   7   5     2.617863970546   118.12023256   180.12227164
 C      9   8   7     2.630868482973   120.46023735   180.02023323
 C     10   9   8     2.622954148188   118.85740496     0.00000000
 C     11  10   9     2.627948934465   121.54845446     0.00000000
 C     12  11  10     2.620202099921   118.82919452     0.00000000
 O     13  12  11     2.599596157215   117.47411483   179.99021486
 Cl    11  10   9     3.310722790945   119.58771790   179.99863348
 H      1   2   3     2.048842430659   120.39235455   179.99794675
 H      2   1   3     2.048805296134   120.41168872   179.99847338
 H      3   2   1     2.049538622666   121.68590555   180.00051135
 H      6   5   4     2.049541515785   118.50637990   180.00391912
 H      9   8   7     2.049178941526   118.67092103     0.00000000
 H     10   9   8     2.046039186780   120.59754537   179.99679417
 H     12  11  10     2.046824169050   121.73858260   180.00129250

---------------------
BASIS SET INFORMATION
---------------------
There are 4 groups of distinct atoms

 Group   1 Type C   : 11s6p2d1f contracted to 5s3p2d1f pattern {62111/411/11/1}
 Group   2 Type O   : 11s6p2d1f contracted to 5s3p2d1f pattern {62111/411/11/1}
 Group   3 Type Cl  : 14s9p3d1f contracted to 5s5p2d1f pattern {73211/51111/21/1}
 Group   4 Type H   : 5s1p contracted to 3s1p pattern {311/1}

Atom   0C    basis set group =>   1
Atom   1C    basis set group =>   1
Atom   2C    basis set group =>   1
Atom   3C    basis set group =>   1
Atom   4C    basis set group =>   1
Atom   5C    basis set group =>   1
Atom   6O    basis set group =>   2
Atom   7C    basis set group =>   1
Atom   8C    basis set group =>   1
Atom   9C    basis set group =>   1
Atom  10C    basis set group =>   1
Atom  11C    basis set group =>   1
Atom  12C    basis set group =>   1
Atom  13O    basis set group =>   2
Atom  14Cl   basis set group =>   3
Atom  15H    basis set group =>   4
Atom  16H    basis set group =>   4
Atom  17H    basis set group =>   4
Atom  18H    basis set group =>   4
Atom  19H    basis set group =>   4
Atom  20H    basis set group =>   4
Atom  21H    basis set group =>   4
---------------------------------
AUXILIARY/J BASIS SET INFORMATION
---------------------------------
There are 4 groups of distinct atoms

 Group   1 Type C   : 8s3p3d contracted to 6s3p3d pattern {311111/111/111}
 Group   2 Type O   : 8s3p3d contracted to 6s3p3d pattern {311111/111/111}
 Group   3 Type Cl  : 14s5p5d2f contracted to 8s4p3d1f pattern {71111111/2111/311/2}
 Group   4 Type H   : 5s2p1d contracted to 3s1p1d pattern {311/2/1}

Atom   0C    basis set group =>   1
Atom   1C    basis set group =>   1
Atom   2C    basis set group =>   1
Atom   3C    basis set group =>   1
Atom   4C    basis set group =>   1
Atom   5C    basis set group =>   1
Atom   6O    basis set group =>   2
Atom   7C    basis set group =>   1
Atom   8C    basis set group =>   1
Atom   9C    basis set group =>   1
Atom  10C    basis set group =>   1
Atom  11C    basis set group =>   1
Atom  12C    basis set group =>   1
Atom  13O    basis set group =>   2
Atom  14Cl   basis set group =>   3
Atom  15H    basis set group =>   4
Atom  16H    basis set group =>   4
Atom  17H    basis set group =>   4
Atom  18H    basis set group =>   4
Atom  19H    basis set group =>   4
Atom  20H    basis set group =>   4
Atom  21H    basis set group =>   4
------------------------------------------------------------------------------
                             ORCA STARTUP CALCULATIONS
                           -- RI-GTO INTEGRALS CHOSEN --
------------------------------------------------------------------------------
------------------------------------------------------------------------------
                   ___                                                        
                  /   \      - P O W E R E D   B Y -                         
                 /     \                                                     
                 |  |  |   _    _      __       _____    __    __             
                 |  |  |  | |  | |    /  \     |  _  \  |  |  /  |          
                  \  \/   | |  | |   /    \    | | | |  |  | /  /          
                 / \  \   | |__| |  /  /\  \   | |_| |  |  |/  /          
                |  |  |   |  __  | /  /__\  \  |    /   |      \           
                |  |  |   | |  | | |   __   |  |    \   |  |\   \          
                \     /   | |  | | |  |  |  |  | |\  \  |  | \   \       
                 \___/    |_|  |_| |__|  |__|  |_| \__\ |__|  \__/        
                                                                              
                      - O R C A' S   B I G   F R I E N D -                    
                                      &                                       
                       - I N T E G R A L  F E E D E R -                       
                                                                              
 v1 FN, 2020, v2 2021, v3 2022-2024                                           
------------------------------------------------------------------------------


----------------------
SHARK INTEGRAL PACKAGE
----------------------

Number of atoms                             ...     22
Number of basis functions                   ...    513
Number of shells                            ...    195
Maximum angular momentum                    ...      3
Integral batch strategy                     ... SHARK/LIBINT Hybrid
RI-J (if used) integral strategy            ... SPLIT-RIJ (Revised 2003 algorithm where possible)
Printlevel                                  ...      1
Contraction scheme used                     ... SEGMENTED contraction
Prescreening option                         ... SCHWARTZ
   Thresh                                   ... 1.000e-10
   Tcut                                     ... 1.000e-11
   Tpresel                                  ... 1.000e-11 
Coulomb Range Separation                    ... NOT USED
Exchange Range Separation                   ... NOT USED
Multipole approximations                    ... NOT USED
Finite Nucleus Model                        ... NOT USED
CABS basis                                  ... NOT available
Auxiliary Coulomb fitting basis             ... AVAILABLE
   # of basis functions in Aux-J            ...    539
   # of shells in Aux-J                     ...    219
   Maximum angular momentum in Aux-J        ...      3
Auxiliary J/K fitting basis                 ... NOT available
Auxiliary Correlation fitting basis         ... NOT available
Auxiliary 'external' fitting basis          ... NOT available

Checking pre-screening integrals            ... done (  0.0 sec) Dimension = 195
Check shell pair data                       ... done (  0.0 sec)
Shell pair information
Shell pair cut-off parameter TPreSel        ...   1.0e-11
Total number of shell pairs                 ...     19110
Shell pairs after pre-screening             ...     14969
Total number of primitive shell pairs       ...     61440
Primitive shell pairs kept                  ...     33009
          la=0 lb=0:   3417 shell pairs
          la=1 lb=0:   4155 shell pairs
          la=1 lb=1:   1263 shell pairs
          la=2 lb=0:   2235 shell pairs
          la=2 lb=1:   1349 shell pairs
          la=2 lb=2:    374 shell pairs
          la=3 lb=0:   1066 shell pairs
          la=3 lb=1:    655 shell pairs
          la=3 lb=2:    357 shell pairs
          la=3 lb=3:     98 shell pairs

Calculating one electron integrals          ... done (  0.1 sec)
Calculating RI/J V-Matrix + Cholesky decomp.... done (  0.1 sec)
Calculating Nuclear repulsion               ... done (  0.0 sec) ENN=    994.405156438334 Eh

Diagonalization of the overlap matrix:
Smallest eigenvalue                        ... 5.799e-06
Time for diagonalization                   ...    0.034 sec
Threshold for overlap eigenvalues          ... 1.000e-07
Number of eigenvalues below threshold      ... 0
Time for construction of square roots      ...    0.055 sec
Total time needed                          ...    0.100 sec

-------------------
DFT GRID GENERATION
-------------------

General Integration Accuracy     IntAcc      ... 4.388
Radial Grid Type                 RadialGrid  ... OptM3 with GC (2021)
Angular Grid (max. ang.)         AngularGrid ... 4 (Lebedev-302)
Angular grid pruning method      GridPruning ... 4 (adaptive)
Weight generation scheme         WeightScheme... mBecke (2022)
Basis function cutoff            BFCut       ... 1.0000e-10
Integration weight cutoff        WCut        ... 1.0000e-14
Partially contracted basis set               ... off
Rotationally invariant grid construction     ... off
Angular grids for H and He will be reduced by one unit

Total number of grid points                  ...   113682
Total number of batches                      ...     1788
Average number of points per batch           ...       63
Average number of grid points per atom       ...     5167
Initializing property integral containers    ... done (  0.0 sec)

SHARK setup successfully completed in   2.3 seconds

Maximum memory used throughout the entire STARTUP-calculation: 80.6 MB
-------------------------------------------------------------------------------
                                 ORCA GUESS
                   Start orbitals & Density for SCF / CASSCF
-------------------------------------------------------------------------------

------------
SCF SETTINGS
------------
Hamiltonian:
 Density Functional     Method          .... DFT(GTOs)
  Functional kind                       .... Exchange
  Functional name                       .... Re-regularized SCAN exchange by Furness et al
  Functional family                     .... MGGA
  Functional refs                              
    [ 0] J. W. Furness, A. D. Kaplan, J. Ning, J. P. Perdew, and J. Sun.,  J. Phys. Chem. Lett. 11, 8208-8215 (2020), doi: 10.1021/acs.jpclett.0c02405
    [ 1] J. W. Furness, A. D. Kaplan, J. Ning, J. P. Perdew, and J. Sun.,  J. Phys. Chem. Lett. 11, 9248-9248 (2020), doi: 10.1021/acs.jpclett.0c03077
  Functional external parameters        .... 6
    Parameter  0 _c1        =  6.670000e-01 : c1 parameter        
    Parameter  1 _c2        =  8.000000e-01 : c2 parameter        
    Parameter  2 _d         =  1.240000e+00 : d parameter         
    Parameter  3 _k1        =  6.500000e-02 : k1 parameter        
    Parameter  4 _eta       =  1.000000e-03 : eta parameter       
    Parameter  5 _dp2       =  3.610000e-01 : dp2 parameter       
  Functional kind                       .... Correlation
  Functional name                       .... Re-regularized SCAN correlation by Furness et al
  Functional family                     .... MGGA
  Functional refs                              
    [ 0] J. W. Furness, A. D. Kaplan, J. Ning, J. P. Perdew, and J. Sun.,  J. Phys. Chem. Lett. 11, 8208-8215 (2020), doi: 10.1021/acs.jpclett.0c02405
    [ 1] J. W. Furness, A. D. Kaplan, J. Ning, J. P. Perdew, and J. Sun.,  J. Phys. Chem. Lett. 11, 9248-9248 (2020), doi: 10.1021/acs.jpclett.0c03077
  Functional external parameters        .... 1
    Parameter  0 _eta       =  1.000000e-03 : Regularization parameter
 Gradients option       PostSCFGGA      .... off
 RI-approximation to the Coulomb term is turned on
   Number of AuxJ basis functions       .... 539


General Settings:
 Integral files         IntName         .... vacuum_censo
 Hartree-Fock type      HFTyp           .... RHF
 Total Charge           Charge          ....    0
 Multiplicity           Mult            ....    1
 Number of Electrons    NEL             ....  112
 Basis Dimension        Dim             ....  513
 Nuclear Repulsion      ENuc            ....    994.4051564383 Eh

Convergence Acceleration:
 AO-DIIS                CNVDIIS         .... on
   Start iteration      DIISMaxIt       ....    12
   Startup error        DIISStart       ....  0.200000
   # of expansion vecs  DIISMaxEq       ....     5
   Bias factor          DIISBfac        ....   1.050
   Max. coefficient     DIISMaxC        ....  10.000
 MO-DIIS                CNVKDIIS        .... off
 Trust-Rad. Augm. Hess. CNVTRAH         .... auto
   Auto Start mean grad. ratio tolernc. ....  1.125000
   Auto Start start iteration           ....    50
   Auto Start num. interpolation iter.  ....    10
   Max. Number of Micro iterations      ....    24
   Max. Number of Macro iterations      .... Maxiter - #DIIS iter
   Number of Davidson start vectors     ....     2
   Converg. threshold    (grad. norm)   ....   5.000e-05
   Grad. Scal. Fac. for Micro threshold ....   0.100
   Minimum threshold for Micro iter.    ....   1.000e-02
   NR start threshold (gradient norm)   ....   1.000e-04
   Initial trust radius                 ....   0.400
   Minimum AH scaling param. (alpha)    ....   1.000
   Maximum AH scaling param. (alpha)    .... 1000.000
   Quad. conv. algorithm                .... NR
   White noise on init. David. guess    .... on
   Maximum white noise                  ....   0.010
   Pseudo random numbers                .... off
   Inactive MOs                         .... canonical
   Orbital update algorithm             .... Taylor
   Preconditioner                       .... Diag
   Full preconditioner red. dimension   ....   250
   COSX micro iterations for RIJONX calc.... off
 SOSCF                  CNVSOSCF        .... on
   Start iteration      SOSCFMaxIt      ....   150
   Startup grad/error   SOSCFStart      ....  0.003300
   Hessian update       SOSCFHessUp     .... L-BFGS
 Level Shifting         CNVShift        .... on
   Level shift para.    LevelShift      ....    0.2500
   Turn off err/grad.   ShiftErr        ....    0.0010
 Zerner damping         CNVZerner       .... off
 Static damping         CNVDamp         .... on
   Fraction old density DampFac         ....    0.7000
   Max. Damping (<1)    DampMax         ....    0.9800
   Min. Damping (>=0)   DampMin         ....    0.0000
   Turn off err/grad.   DampErr         ....    0.1000

SCF Procedure:
 Maximum # iterations   MaxIter         ....   125
 SCF integral mode      SCFMode         .... Direct
   Integral package                     .... SHARK and LIBINT hybrid scheme
 Reset frequency        DirectResetFreq ....    20
 Integral Threshold     Thresh          ....  1.000e-10 Eh
 Primitive CutOff       TCut            ....  1.000e-11 Eh

Convergence Tolerance:
 Convergence Check Mode ConvCheckMode   .... Total+1el-Energy
 Convergence forced     ConvForced      .... 0
 Energy Change          TolE            ....  1.000e-06 Eh
 1-El. energy change                    ....  1.000e-03 Eh
 Orbital Gradient       TolG            ....  5.000e-05
 Orbital Rotation angle TolX            ....  5.000e-05
 DIIS Error             TolErr          ....  1.000e-06

------------------------------
INITIAL GUESS: MODEL POTENTIAL
------------------------------
Loading Hartree-Fock densities                     ... done
Calculating cut-offs                               ... done
Initializing the effective Hamiltonian             ... done
Setting up the integral package (SHARK)            ... done
Starting the Coulomb interaction                   ... done (   1.0 sec)
Making the grid                                    ... done (   0.4 sec)
Mapping shells                                     ... done
Starting the XC term evaluation                    ... done (   1.0 sec)
  promolecular density results
     # of electrons  =    111.998286203
     EX              =   -107.203842164
     EC              =     -3.885405053
     EX+EC           =   -111.089247217
Transforming the Hamiltonian                       ... done (   0.0 sec)
Diagonalizing the Hamiltonian                      ... done (   0.0 sec)
Back transforming the eigenvectors                 ... done (   0.1 sec)
Now organizing SCF variables                       ... done
                      ------------------
                      INITIAL GUESS DONE (   2.5 sec)
                      ------------------
             **** ENERGY FILE WAS UPDATED (vacuum_censo.en.tmp) ****
Finished Guess after   2.9 sec
Maximum memory used throughout the entire GUESS-calculation: 58.6 MB

-------------------------------------------------------------------------------------------
                                      ORCA LEAN-SCF
                              memory conserving SCF solver
-------------------------------------------------------------------------------------------

----------------------------------------D-I-I-S--------------------------------------------
Iteration    Energy (Eh)           Delta-E    RMSDP     MaxDP     DIISErr   Damp  Time(sec)
-------------------------------------------------------------------------------------------
               ***  Starting incremental Fock matrix formation  ***
    1    -1071.7629021764637400     0.00e+00  1.14e-03  3.05e-02  1.42e-01  0.700   8.2
    2    -1071.8884660237908975    -1.26e-01  8.85e-04  2.72e-02  7.25e-02  0.700   7.2
                               ***Turning on AO-DIIS***
    3    -1071.9360763455310916    -4.76e-02  5.36e-04  2.30e-02  3.19e-02  0.700   7.2
    4    -1071.9649328822015377    -2.89e-02  1.17e-03  6.35e-02  1.72e-02  0.000   6.7
    5    -1072.0288138385876664    -6.39e-02  2.22e-04  1.10e-02  6.81e-03  0.000   6.9
                              *** Initializing SOSCF ***
---------------------------------------S-O-S-C-F--------------------------------------
Iteration    Energy (Eh)           Delta-E    RMSDP     MaxDP     MaxGrad    Time(sec)
--------------------------------------------------------------------------------------
    6    -1072.0292957358051353    -4.82e-04  7.81e-05  3.46e-03  1.34e-03     6.7
               *** Restarting incremental Fock matrix formation ***
    7    -1072.0293274755640596    -3.17e-05  8.13e-05  3.93e-03  5.15e-04     8.5
    8    -1072.0293049748706835     2.25e-05  3.05e-05  1.41e-03  9.81e-04     5.8
    9    -1072.0293384415672335    -3.35e-05  1.42e-05  5.79e-04  2.21e-04     5.8
   10    -1072.0293345520394723     3.89e-06  8.05e-06  3.10e-04  4.62e-04     5.8
   11    -1072.0293393736706093    -4.82e-06  6.62e-06  2.50e-04  2.31e-05     5.6
   12    -1072.0293393540905527     1.96e-08  3.97e-06  1.65e-04  4.16e-05     5.1
                 **** Energy Check signals convergence ****

               *****************************************************
               *                     SUCCESS                       *
               *           SCF CONVERGED AFTER  12 CYCLES          *
               *****************************************************

             **** ENERGY FILE WAS UPDATED (vacuum_censo.en.tmp) ****

----------------
TOTAL SCF ENERGY
----------------

Total Energy       :      -1072.02933935409055 Eh          -29171.40137 eV

Components:
Nuclear Repulsion  :        994.40515643833442 Eh           27059.13997 eV
Electronic Energy  :      -2066.43449579242497 Eh          -56230.54134 eV
One Electron Energy:      -3440.07587663861705 Eh          -93609.22360 eV
Two Electron Energy:       1373.64138084619231 Eh           37378.68227 eV

Virial components:
Potential Energy   :      -2140.65012927121916 Eh          -58250.05139 eV
Kinetic Energy     :       1068.62078991712860 Eh           29078.65002 eV
Virial Ratio       :          2.00318967164884

DFT components:
N(Alpha)           :       55.999886056038 electrons
N(Beta)            :       55.999886056038 electrons
N(Total)           :      111.999772112077 electrons
E(X)               :     -109.164946142131 Eh       
E(C)               :       -3.807804747224 Eh       
E(XC)              :     -112.972750889355 Eh       

---------------
SCF CONVERGENCE
---------------

  Last Energy change         ...   -1.9580e-08  Tolerance :   1.0000e-06
  Last MAX-Density change    ...    1.6452e-04  Tolerance :   1.0000e-05
  Last RMS-Density change    ...    3.9688e-06  Tolerance :   1.0000e-06
  Last DIIS Error            ...    1.3413e-03  Tolerance :   1.0000e-06
  Last Orbital Gradient      ...    4.1612e-05  Tolerance :   5.0000e-05
  Last Orbital Rotation      ...    8.5112e-05  Tolerance :   5.0000e-05


----------------
ORBITAL ENERGIES
----------------

  NO   OCC          E(Eh)            E(eV) 
   0   2.0000    -101.193866     -2753.6251 
   1   2.0000     -19.023268      -517.6494 
   2   2.0000     -19.021853      -517.6109 
   3   2.0000     -10.121276      -275.4139 
   4   2.0000     -10.116753      -275.2908 
   5   2.0000     -10.114823      -275.2383 
   6   2.0000     -10.114401      -275.2269 
   7   2.0000     -10.107097      -275.0281 
   8   2.0000     -10.058024      -273.6927 
   9   2.0000     -10.057459      -273.6774 
  10   2.0000     -10.055107      -273.6134 
  11   2.0000     -10.050659      -273.4923 
  12   2.0000     -10.050507      -273.4882 
  13   2.0000     -10.047623      -273.4097 
  14   2.0000     -10.047156      -273.3970 
  15   2.0000      -9.369765      -254.9643 
  16   2.0000      -7.114697      -193.6007 
  17   2.0000      -7.104667      -193.3278 
  18   2.0000      -7.104313      -193.3182 
  19   2.0000      -1.087777       -29.5999 
  20   2.0000      -1.054692       -28.6996 
  21   2.0000      -0.867547       -23.6072 
  22   2.0000      -0.840365       -22.8675 
  23   2.0000      -0.806173       -21.9371 
  24   2.0000      -0.756661       -20.5898 
  25   2.0000      -0.737897       -20.0792 
  26   2.0000      -0.720660       -19.6102 
  27   2.0000      -0.695289       -18.9198 
  28   2.0000      -0.637180       -17.3386 
  29   2.0000      -0.619616       -16.8606 
  30   2.0000      -0.588669       -16.0185 
  31   2.0000      -0.568048       -15.4574 
  32   2.0000      -0.547698       -14.9036 
  33   2.0000      -0.498588       -13.5673 
  34   2.0000      -0.487389       -13.2625 
  35   2.0000      -0.459818       -12.5123 
  36   2.0000      -0.456685       -12.4270 
  37   2.0000      -0.454522       -12.3682 
  38   2.0000      -0.429625       -11.6907 
  39   2.0000      -0.425010       -11.5651 
  40   2.0000      -0.417977       -11.3737 
  41   2.0000      -0.394873       -10.7451 
  42   2.0000      -0.392924       -10.6920 
  43   2.0000      -0.380885       -10.3644 
  44   2.0000      -0.378853       -10.3091 
  45   2.0000      -0.375643       -10.2218 
  46   2.0000      -0.349942        -9.5224 
  47   2.0000      -0.348192        -9.4748 
  48   2.0000      -0.343723        -9.3532 
  49   2.0000      -0.313929        -8.5424 
  50   2.0000      -0.300419        -8.1748 
  51   2.0000      -0.289611        -7.8807 
  52   2.0000      -0.260372        -7.0851 
  53   2.0000      -0.247768        -6.7421 
  54   2.0000      -0.231687        -6.3045 
  55   2.0000      -0.190847        -5.1932 
  56   0.0000      -0.055123        -1.5000 
  57   0.0000      -0.051896        -1.4122 
  58   0.0000      -0.044971        -1.2237 
  59   0.0000      -0.012831        -0.3492 
  60   0.0000      -0.005928        -0.1613 
  61   0.0000       0.029558         0.8043 
  62   0.0000       0.062270         1.6944 
  63   0.0000       0.080226         2.1831 
  64   0.0000       0.089734         2.4418 
  65   0.0000       0.100601         2.7375 
  66   0.0000       0.103107         2.8057 
*Only the first 10 virtual orbitals were printed.

                    ********************************
                    * MULLIKEN POPULATION ANALYSIS *
                    ********************************

-----------------------
MULLIKEN ATOMIC CHARGES
-----------------------
   0 C :   -0.088866
   1 C :   -0.089508
   2 C :   -0.244361
   3 C :    0.233190
   4 C :    0.238824
   5 C :   -0.245834
   6 O :   -0.247416
   7 C :    0.223790
   8 C :   -0.235051
   9 C :   -0.158608
  10 C :    0.234703
  11 C :   -0.361062
  12 C :    0.277299
  13 O :   -0.245139
  14 Cl:   -0.115923
  15 H :    0.114341
  16 H :    0.114411
  17 H :    0.114865
  18 H :    0.114073
  19 H :    0.117310
  20 H :    0.125442
  21 H :    0.123521
Sum of atomic charges:   -0.0000000

--------------------------------
MULLIKEN REDUCED ORBITAL CHARGES
--------------------------------
  0 C s       :     3.196169  s :     3.196169
      pz      :     0.977532  p :     2.807006
      px      :     0.921149
      py      :     0.908324
      dz2     :     0.003508  d :     0.076991
      dxz     :     0.008393
      dyz     :     0.021304
      dx2y2   :     0.021255
      dxy     :     0.022532
      f0      :     0.001789  f :     0.008700
      f+1     :     0.000693
      f-1     :     0.000657
      f+2     :     0.000676
      f-2     :     0.000769
      f+3     :     0.002251
      f-3     :     0.001864

  1 C s       :     3.196152  s :     3.196152
      pz      :     0.978619  p :     2.807794
      px      :     0.908057
      py      :     0.921119
      dz2     :     0.003504  d :     0.076867
      dxz     :     0.013599
      dyz     :     0.016014
      dx2y2   :     0.020278
      dxy     :     0.023472
      f0      :     0.001789  f :     0.008695
      f+1     :     0.000681
      f-1     :     0.000668
      f+2     :     0.001206
      f-2     :     0.000237
      f+3     :     0.002320
      f-3     :     0.001794

  2 C s       :     3.345152  s :     3.345152
      pz      :     0.998659  p :     2.820843
      px      :     0.891185
      py      :     0.930998
      dz2     :     0.003437  d :     0.069426
      dxz     :     0.024042
      dyz     :     0.005958
      dx2y2   :     0.015956
      dxy     :     0.020033
      f0      :     0.001834  f :     0.008941
      f+1     :     0.000720
      f-1     :     0.000701
      f+2     :     0.000333
      f-2     :     0.001248
      f+3     :     0.002305
      f-3     :     0.001800

  3 C s       :     3.106361  s :     3.106361
      pz      :     0.999138  p :     2.487898
      px      :     0.657641
      py      :     0.831118
      dz2     :     0.005021  d :     0.155584
      dxz     :     0.043206
      dyz     :     0.027189
      dx2y2   :     0.043618
      dxy     :     0.036550
      f0      :     0.002617  f :     0.016968
      f+1     :     0.001145
      f-1     :     0.000797
      f+2     :     0.001814
      f-2     :     0.001978
      f+3     :     0.004862
      f-3     :     0.003756

  4 C s       :     3.100569  s :     3.100569
      pz      :     0.996278  p :     2.487174
      px      :     0.710513
      py      :     0.780383
      dz2     :     0.005007  d :     0.156424
      dxz     :     0.038882
      dyz     :     0.032011
      dx2y2   :     0.051276
      dxy     :     0.029248
      f0      :     0.002624  f :     0.017009
      f+1     :     0.001046
      f-1     :     0.000894
      f+2     :     0.001259
      f-2     :     0.002554
      f+3     :     0.005202
      f-3     :     0.003431

  5 C s       :     3.347389  s :     3.347389
      pz      :     0.999966  p :     2.820249
      px      :     0.890516
      py      :     0.929767
      dz2     :     0.003426  d :     0.069264
      dxz     :     0.024652
      dyz     :     0.005221
      dx2y2   :     0.019269
      dxy     :     0.016696
      f0      :     0.001833  f :     0.008932
      f+1     :     0.000705
      f-1     :     0.000713
      f+2     :     0.000336
      f-2     :     0.001239
      f+3     :     0.002176
      f-3     :     0.001930

  6 O s       :     3.779852  s :     3.779852
      pz      :     1.720047  p :     4.419179
      px      :     1.174301
      py      :     1.524831
      dz2     :     0.004601  d :     0.046072
      dxz     :     0.008539
      dyz     :     0.004701
      dx2y2   :     0.010325
      dxy     :     0.017906
      f0      :     0.000316  f :     0.002313
      f+1     :     0.000398
      f-1     :     0.000194
      f+2     :     0.000096
      f-2     :     0.000245
      f+3     :     0.000492
      f-3     :     0.000572

  7 C s       :     3.103877  s :     3.103877
      pz      :     1.001733  p :     2.499569
      px      :     0.667938
      py      :     0.829898
      dz2     :     0.004713  d :     0.155752
      dxz     :     0.044454
      dyz     :     0.026306
      dx2y2   :     0.043923
      dxy     :     0.036356
      f0      :     0.002636  f :     0.017013
      f+1     :     0.001143
      f-1     :     0.000797
      f+2     :     0.001801
      f-2     :     0.001987
      f+3     :     0.004902
      f-3     :     0.003747

  8 C s       :     3.347428  s :     3.347428
      pz      :     0.995696  p :     2.810153
      px      :     0.889876
      py      :     0.924582
      dz2     :     0.003605  d :     0.068456
      dxz     :     0.025475
      dyz     :     0.005995
      dx2y2   :     0.014489
      dxy     :     0.018891
      f0      :     0.001856  f :     0.009014
      f+1     :     0.000726
      f-1     :     0.000706
      f+2     :     0.000354
      f-2     :     0.001280
      f+3     :     0.002262
      f-3     :     0.001830

  9 C s       :     3.234080  s :     3.234080
      pz      :     0.995308  p :     2.835311
      px      :     0.922636
      py      :     0.917366
      dz2     :     0.003839  d :     0.080414
      dxz     :     0.013631
      dyz     :     0.016788
      dx2y2   :     0.021815
      dxy     :     0.024341
      f0      :     0.001829  f :     0.008803
      f+1     :     0.000744
      f-1     :     0.000691
      f+2     :     0.001257
      f-2     :     0.000226
      f+3     :     0.002225
      f-3     :     0.001831

 10 C s       :     3.056971  s :     3.056971
      pz      :     0.998136  p :     2.538314
      px      :     0.743164
      py      :     0.797014
      dz2     :     0.005373  d :     0.157738
      dxz     :     0.029458
      dyz     :     0.028506
      dx2y2   :     0.045841
      dxy     :     0.048560
      f0      :     0.002149  f :     0.012274
      f+1     :     0.001033
      f-1     :     0.000746
      f+2     :     0.001165
      f-2     :     0.001201
      f+3     :     0.003501
      f-3     :     0.002480

 11 C s       :     3.421645  s :     3.421645
      pz      :     1.015042  p :     2.858579
      px      :     0.927345
      py      :     0.916192
      dz2     :     0.003871  d :     0.071741
      dxz     :     0.024651
      dyz     :     0.005775
      dx2y2   :     0.018268
      dxy     :     0.019176
      f0      :     0.001874  f :     0.009097
      f+1     :     0.000773
      f-1     :     0.000739
      f+2     :     0.000333
      f-2     :     0.001279
      f+3     :     0.002177
      f-3     :     0.001923

 12 C s       :     3.080733  s :     3.080733
      pz      :     0.988078  p :     2.467293
      px      :     0.699590
      py      :     0.779625
      dz2     :     0.005074  d :     0.157493
      dxz     :     0.040717
      dyz     :     0.032670
      dx2y2   :     0.051436
      dxy     :     0.027596
      f0      :     0.002660  f :     0.017183
      f+1     :     0.001053
      f-1     :     0.000903
      f+2     :     0.001281
      f-2     :     0.002610
      f+3     :     0.005253
      f-3     :     0.003424

 13 O s       :     3.780132  s :     3.780132
      pz      :     1.718177  p :     4.416628
      px      :     1.174995
      py      :     1.523456
      dz2     :     0.004613  d :     0.046064
      dxz     :     0.008444
      dyz     :     0.004747
      dx2y2   :     0.010298
      dxy     :     0.017961
      f0      :     0.000317  f :     0.002315
      f+1     :     0.000398
      f-1     :     0.000195
      f+2     :     0.000094
      f-2     :     0.000244
      f+3     :     0.000496
      f-3     :     0.000570

 14 Cls       :     5.905570  s :     5.905570
      pz      :     3.918144  p :    11.144318
      px      :     3.353784
      py      :     3.872390
      dz2     :     0.006776  d :     0.060679
      dxz     :     0.018267
      dyz     :     0.003370
      dx2y2   :     0.016293
      dxy     :     0.015973
      f0      :     0.000569  f :     0.005357
      f+1     :     0.000890
      f-1     :     0.000206
      f+2     :     0.000447
      f-2     :     0.000411
      f+3     :     0.001177
      f-3     :     0.001657

 15 H s       :     0.862028  s :     0.862028
      pz      :     0.005743  p :     0.023631
      px      :     0.012282
      py      :     0.005606

 16 H s       :     0.861948  s :     0.861948
      pz      :     0.005754  p :     0.023641
      px      :     0.009897
      py      :     0.007990

 17 H s       :     0.861666  s :     0.861666
      pz      :     0.005653  p :     0.023469
      px      :     0.004429
      py      :     0.013386

 18 H s       :     0.862458  s :     0.862458
      pz      :     0.005664  p :     0.023469
      px      :     0.004199
      py      :     0.013606

 19 H s       :     0.859116  s :     0.859116
      pz      :     0.005628  p :     0.023573
      px      :     0.004393
      py      :     0.013553

 20 H s       :     0.850758  s :     0.850758
      pz      :     0.005735  p :     0.023800
      px      :     0.010241
      py      :     0.007825

 21 H s       :     0.852839  s :     0.852839
      pz      :     0.005649  p :     0.023641
      px      :     0.004098
      py      :     0.013894



                     *******************************
                     * LOEWDIN POPULATION ANALYSIS *
                     *******************************

----------------------
LOEWDIN ATOMIC CHARGES
----------------------
   0 C :   -0.144280
   1 C :   -0.144576
   2 C :   -0.109102
   3 C :   -0.200523
   4 C :   -0.202039
   5 C :   -0.109387
   6 O :    0.330990
   7 C :   -0.204919
   8 C :   -0.103024
   9 C :   -0.149027
  10 C :   -0.423617
  11 C :   -0.112329
  12 C :   -0.200581
  13 O :    0.333268
  14 Cl:    0.379467
  15 H :    0.145609
  16 H :    0.145607
  17 H :    0.152863
  18 H :    0.152632
  19 H :    0.155400
  20 H :    0.150293
  21 H :    0.157274

-------------------------------
LOEWDIN REDUCED ORBITAL CHARGES
-------------------------------
  0 C s       :     2.767802  s :     2.767802
      pz      :     0.894718  p :     2.940200
      px      :     0.992516
      py      :     1.052966
      dz2     :     0.025277  d :     0.392166
      dxz     :     0.023392
      dyz     :     0.073768
      dx2y2   :     0.134706
      dxy     :     0.135023
      f0      :     0.003294  f :     0.044112
      f+1     :     0.003444
      f-1     :     0.004331
      f+2     :     0.004438
      f-2     :     0.005055
      f+3     :     0.013975
      f-3     :     0.009576

  1 C s       :     2.767766  s :     2.767766
      pz      :     0.895584  p :     2.940802
      px      :     1.010612
      py      :     1.034606
      dz2     :     0.025276  d :     0.391905
      dxz     :     0.042331
      dyz     :     0.054565
      dx2y2   :     0.104990
      dxy     :     0.164743
      f0      :     0.003296  f :     0.044103
      f+1     :     0.003753
      f-1     :     0.004023
      f+2     :     0.007853
      f-2     :     0.001620
      f+3     :     0.014029
      f-3     :     0.009528

  2 C s       :     2.763817  s :     2.763817
      pz      :     0.904130  p :     2.927843
      px      :     1.042719
      py      :     0.980993
      dz2     :     0.025648  d :     0.373427
      dxz     :     0.081273
      dyz     :     0.014625
      dx2y2   :     0.137233
      dxy     :     0.114649
      f0      :     0.003467  f :     0.044015
      f+1     :     0.004560
      f-1     :     0.003395
      f+2     :     0.002024
      f-2     :     0.008082
      f+3     :     0.013082
      f-3     :     0.009405

  3 C s       :     2.706951  s :     2.706951
      pz      :     0.899936  p :     2.750835
      px      :     0.833998
      py      :     1.016901
      dz2     :     0.046492  d :     0.649893
      dxz     :     0.117047
      dyz     :     0.088591
      dx2y2   :     0.191981
      dxy     :     0.205782
      f0      :     0.006544  f :     0.092843
      f+1     :     0.008270
      f-1     :     0.005706
      f+2     :     0.011622
      f-2     :     0.012287
      f+3     :     0.027086
      f-3     :     0.021329

  4 C s       :     2.706786  s :     2.706786
      pz      :     0.898041  p :     2.750274
      px      :     0.901936
      py      :     0.950296
      dz2     :     0.046513  d :     0.651857
      dxz     :     0.106393
      dyz     :     0.100532
      dx2y2   :     0.187858
      dxy     :     0.210561
      f0      :     0.006555  f :     0.093122
      f+1     :     0.007074
      f-1     :     0.006911
      f+2     :     0.008276
      f-2     :     0.015805
      f+3     :     0.029989
      f-3     :     0.018511

  5 C s       :     2.763854  s :     2.763854
      pz      :     0.905029  p :     2.928465
      px      :     1.035010
      py      :     0.988426
      dz2     :     0.025648  d :     0.373100
      dxz     :     0.082085
      dyz     :     0.013447
      dx2y2   :     0.152330
      dxy     :     0.099590
      f0      :     0.003466  f :     0.043967
      f+1     :     0.004609
      f-1     :     0.003343
      f+2     :     0.002137
      f-2     :     0.007928
      f+3     :     0.012715
      f-3     :     0.009770

  6 O s       :     3.233023  s :     3.233023
      pz      :     1.590999  p :     4.316398
      px      :     1.227360
      py      :     1.498039
      dz2     :     0.010167  d :     0.112649
      dxz     :     0.022482
      dyz     :     0.008905
      dx2y2   :     0.030623
      dxy     :     0.040471
      f0      :     0.000792  f :     0.006940
      f+1     :     0.000865
      f-1     :     0.000286
      f+2     :     0.000318
      f-2     :     0.001040
      f+3     :     0.002034
      f-3     :     0.001606

  7 C s       :     2.705518  s :     2.705518
      pz      :     0.901805  p :     2.754183
      px      :     0.838532
      py      :     1.013846
      dz2     :     0.046482  d :     0.651761
      dxz     :     0.119662
      dyz     :     0.086210
      dx2y2   :     0.192447
      dxy     :     0.206960
      f0      :     0.006664  f :     0.093457
      f+1     :     0.008314
      f-1     :     0.005725
      f+2     :     0.011625
      f-2     :     0.012462
      f+3     :     0.027417
      f-3     :     0.021250

  8 C s       :     2.762522  s :     2.762522
      pz      :     0.900798  p :     2.920426
      px      :     1.039194
      py      :     0.980434
      dz2     :     0.025529  d :     0.375853
      dxz     :     0.085739
      dyz     :     0.014385
      dx2y2   :     0.137833
      dxy     :     0.112366
      f0      :     0.003498  f :     0.044224
      f+1     :     0.004597
      f-1     :     0.003382
      f+2     :     0.002119
      f-2     :     0.008272
      f+3     :     0.012961
      f-3     :     0.009395

  9 C s       :     2.768862  s :     2.768862
      pz      :     0.907875  p :     2.949300
      px      :     1.018794
      py      :     1.022631
      dz2     :     0.026319  d :     0.386484
      dxz     :     0.041874
      dyz     :     0.056469
      dx2y2   :     0.109036
      dxy     :     0.152787
      f0      :     0.003528  f :     0.044381
      f+1     :     0.003808
      f-1     :     0.004229
      f+2     :     0.008512
      f-2     :     0.001619
      f+3     :     0.013055
      f-3     :     0.009630

 10 C s       :     2.782675  s :     2.782675
      pz      :     0.926270  p :     2.954706
      px      :     0.950967
      py      :     1.077469
      dz2     :     0.041953  d :     0.622082
      dxz     :     0.090284
      dyz     :     0.090532
      dx2y2   :     0.198851
      dxy     :     0.200462
      f0      :     0.004433  f :     0.064155
      f+1     :     0.005227
      f-1     :     0.004784
      f+2     :     0.007310
      f-2     :     0.007574
      f+3     :     0.021401
      f-3     :     0.013425

 11 C s       :     2.765017  s :     2.765017
      pz      :     0.916593  p :     2.937189
      px      :     1.031942
      py      :     0.988655
      dz2     :     0.026734  d :     0.365878
      dxz     :     0.081312
      dyz     :     0.014817
      dx2y2   :     0.138938
      dxy     :     0.104078
      f0      :     0.003690  f :     0.044245
      f+1     :     0.004751
      f-1     :     0.003452
      f+2     :     0.002116
      f-2     :     0.008511
      f+3     :     0.011977
      f-3     :     0.009748

 12 C s       :     2.705593  s :     2.705593
      pz      :     0.890715  p :     2.742941
      px      :     0.899965
      py      :     0.952261
      dz2     :     0.046575  d :     0.657942
      dxz     :     0.110109
      dyz     :     0.102360
      dx2y2   :     0.188434
      dxy     :     0.210464
      f0      :     0.006617  f :     0.094105
      f+1     :     0.007097
      f-1     :     0.006936
      f+2     :     0.008407
      f-2     :     0.016250
      f+3     :     0.030180
      f-3     :     0.018618

 13 O s       :     3.232797  s :     3.232797
      pz      :     1.588940  p :     4.314438
      px      :     1.227316
      py      :     1.498181
      dz2     :     0.010196  d :     0.112556
      dxz     :     0.022218
      dyz     :     0.008891
      dx2y2   :     0.030627
      dxy     :     0.040624
      f0      :     0.000787  f :     0.006941
      f+1     :     0.000863
      f-1     :     0.000289
      f+2     :     0.000313
      f-2     :     0.001035
      f+3     :     0.002046
      f-3     :     0.001608

 14 Cls       :     5.555703  s :     5.555703
      pz      :     3.844387  p :    10.954804
      px      :     3.335837
      py      :     3.774581
      dz2     :     0.011628  d :     0.098701
      dxz     :     0.027061
      dyz     :     0.004759
      dx2y2   :     0.027757
      dxy     :     0.027495
      f0      :     0.001231  f :     0.011325
      f+1     :     0.001681
      f-1     :     0.000417
      f+2     :     0.001011
      f-2     :     0.000926
      f+3     :     0.002763
      f-3     :     0.003295

 15 H s       :     0.793710  s :     0.793710
      pz      :     0.014617  p :     0.060681
      px      :     0.031594
      py      :     0.014470

 16 H s       :     0.793686  s :     0.793686
      pz      :     0.014647  p :     0.060707
      px      :     0.025398
      py      :     0.020661

 17 H s       :     0.785773  s :     0.785773
      pz      :     0.014770  p :     0.061364
      px      :     0.011728
      py      :     0.034866

 18 H s       :     0.786005  s :     0.786005
      pz      :     0.014797  p :     0.061363
      px      :     0.011236
      py      :     0.035330

 19 H s       :     0.783230  s :     0.783230
      pz      :     0.014677  p :     0.061370
      px      :     0.011572
      py      :     0.035121

 20 H s       :     0.787854  s :     0.787854
      pz      :     0.015012  p :     0.061853
      px      :     0.026414
      py      :     0.020427

 21 H s       :     0.780242  s :     0.780242
      pz      :     0.015129  p :     0.062483
      px      :     0.010882
      py      :     0.036472



                      *****************************
                      * MAYER POPULATION ANALYSIS *
                      *****************************

  NA   - Mulliken gross atomic population
  ZA   - Total nuclear charge
  QA   - Mulliken gross atomic charge
  VA   - Mayer's total valence
  BVA  - Mayer's bonded valence
  FA   - Mayer's free valence

  ATOM       NA         ZA         QA         VA         BVA        FA
  0 C      6.0889     6.0000    -0.0889     3.8589     3.8589     0.0000
  1 C      6.0895     6.0000    -0.0895     3.8606     3.8606    -0.0000
  2 C      6.2444     6.0000    -0.2444     3.8901     3.8901    -0.0000
  3 C      5.7668     6.0000     0.2332     3.8238     3.8238    -0.0000
  4 C      5.7612     6.0000     0.2388     3.8191     3.8191    -0.0000
  5 C      6.2458     6.0000    -0.2458     3.8895     3.8895    -0.0000
  6 O      8.2474     8.0000    -0.2474     2.1400     2.1400    -0.0000
  7 C      5.7762     6.0000     0.2238     3.8491     3.8491     0.0000
  8 C      6.2351     6.0000    -0.2351     3.8618     3.8618     0.0000
  9 C      6.1586     6.0000    -0.1586     3.8852     3.8852     0.0000
 10 C      5.7653     6.0000     0.2347     3.7326     3.7326     0.0000
 11 C      6.3611     6.0000    -0.3611     3.9201     3.9201    -0.0000
 12 C      5.7227     6.0000     0.2773     3.7903     3.7903     0.0000
 13 O      8.2451     8.0000    -0.2451     2.1422     2.1422    -0.0000
 14 Cl    17.1159    17.0000    -0.1159     1.2067     1.2067     0.0000
 15 H      0.8857     1.0000     0.1143     0.9757     0.9757     0.0000
 16 H      0.8856     1.0000     0.1144     0.9757     0.9757    -0.0000
 17 H      0.8851     1.0000     0.1149     0.9917     0.9917    -0.0000
 18 H      0.8859     1.0000     0.1141     0.9921     0.9921    -0.0000
 19 H      0.8827     1.0000     0.1173     0.9911     0.9911    -0.0000
 20 H      0.8746     1.0000     0.1254     0.9830     0.9830     0.0000
 21 H      0.8765     1.0000     0.1235     1.0008     1.0008    -0.0000

  Mayer bond orders larger than 0.100000
B(  0-C ,  1-C ) :   1.3949 B(  0-C ,  5-C ) :   1.3674 B(  0-C , 15-H ) :   0.9730 
B(  1-C ,  2-C ) :   1.3682 B(  1-C , 16-H ) :   0.9733 B(  2-C ,  3-C ) :   1.3594 
B(  2-C , 17-H ) :   0.9828 B(  3-C ,  4-C ) :   1.3673 B(  3-C , 13-O ) :   0.9776 
B(  4-C ,  5-C ) :   1.3572 B(  4-C ,  6-O ) :   0.9786 B(  5-C , 18-H ) :   0.9835 
B(  6-O ,  7-C ) :   0.9876 B(  7-C ,  8-C ) :   1.3538 B(  7-C , 12-C ) :   1.3560 
B(  8-C ,  9-C ) :   1.3401 B(  8-C , 19-H ) :   0.9850 B(  9-C , 10-C ) :   1.3605 
B(  9-C , 20-H ) :   0.9758 B( 10-C , 11-C ) :   1.3255 B( 10-C , 14-Cl) :   0.9430 
B( 11-C , 12-C ) :   1.3271 B( 11-C , 21-H ) :   0.9922 B( 12-C , 13-O ) :   0.9899 


-------
TIMINGS
-------

Total SCF time: 0 days 0 hours 1 min 20 sec 

Total time                  ....      80.291 sec
Sum of individual times     ....      79.654 sec  ( 99.2%)

SCF preparation             ....       0.370 sec  (  0.5%)
Fock matrix formation       ....      75.741 sec  ( 94.3%)
  Startup                   ....       0.164 sec  (  0.2% of F)
  Split-RI-J                ....      14.069 sec  ( 18.6% of F)
  XC integration            ....      59.691 sec  ( 78.8% of F)
    XC Preparation          ....       0.000 sec  (  0.0% of XC)
    Basis function eval.    ....       8.839 sec  ( 14.8% of XC)
    Density eval.           ....      18.675 sec  ( 31.3% of XC)
    XC-Functional eval.     ....       3.305 sec  (  5.5% of XC)
    XC-Potential eval.      ....      27.478 sec  ( 46.0% of XC)
Diagonalization             ....       0.000 sec  (  0.0%)
Density matrix formation    ....       0.874 sec  (  1.1%)
Total Energy calculation    ....       0.277 sec  (  0.3%)
Population analysis         ....       0.088 sec  (  0.1%)
Orbital Transformation      ....       0.247 sec  (  0.3%)
Orbital Orthonormalization  ....       0.000 sec  (  0.0%)
DIIS solution               ....       1.227 sec  (  1.5%)
SOSCF solution              ....       0.829 sec  (  1.0%)
Finished LeanSCF after  80.5 sec

Maximum memory used throughout the entire LEANSCF-calculation: 68.3 MB

------------------------------------------------------------------------------
                         ORCA PROPERTY INTEGRAL CALCULATIONS
------------------------------------------------------------------------------

GBWName                                   ... vacuum_censo.gbw
Number of atoms                           ...     22
Number of basis functions                 ...    513
Max core memory                           ...   1024 MB

Dipole integrals                          ... YES
Quadrupole integrals                      ...  NO
Linear momentum integrals                 ...  NO
Angular momentum integrals                ...  NO
Higher moments length integrals           ...  NO
Higher moments velocity integrals         ...  NO
Kinetic energy integrals                  ...  NO
GIAO right hand sides                     ...  NO
GIAO dipole derivative integrals          ...  NO
SOC integrals                             ...  NO
EPR diamagnetic integrals (GIAO)          ...  NO
EPR gauge integrals                       ...  NO
Field gradient integrals                  ...  NO (   0 nuclei)
Spin-dipole/Fermi contact integrals       ...  NO (   0 nuclei)
Contact density integrals                 ...  NO (   0 nuclei)
Nucleus-orbit integrals                   ...  NO (   0 nuclei)
Geometric perturbations                   ... YES (  22 nuclei)

Choice of electric origin   ... Center of mass
Position of electric origin ... ( -0.0064,  0.0019,  0.0001) 
Choice of magnetic origin   ... GIAO
Position of magnetic origin ... (  0.0000,  0.0000,  0.0000) 

Calculating integrals                     ... Electric Dipole (Length)     done (  0.1 sec)
Calculating integrals                     ... Geometrical perturbation right hand sides

-----------------------
GEOMETRIC PERTURBATIONS (22 nuclei)
-----------------------

MaxCore                            ...   1024 MB
Number of batches                  ...      1

BATCH   0: Atoms    0 -   21 ( 66 perturbations)
   => H(core) and overlap derivative integrals     ... done (     1.4 sec)
   => Making and storing internal U-coefficients   ... done (     1.0 sec)
   => RI-J derivative integrals                    ... done (    19.5 sec)
   => RI-J response operators                      ... done (     5.1 sec)
   => XC derivative integrals                      ... done (   800.2 sec)
   => XC response operators                        ... done (   240.7 sec)
   => Completing and storing right hand sides      ... done (     0.4 sec)
   => Total time for right hand sides = 1073.9 sec

  geometrical perturbations done (1073.9 sec)

Property integrals calculated in 1074.1 sec

Maximum memory used throughout the entire PROPINT-calculation: 468.0 MB


-------------------------------------------------------------------------------
                          DFT DISPERSION CORRECTION                            
                                                                               
                                DFTD4 V3.4.0                                   
-------------------------------------------------------------------------------
The R2SCAN3C composite method is recognized
Using three-body term ABC
Active option DFTDOPT                   ...         5   

-------------------------   ----------------
Dispersion correction           -0.009941447
-------------------------   ----------------

------------------   -----------------
gCP correction             0.007621502
------------------   -----------------

-------------------------   --------------------
FINAL SINGLE POINT ENERGY     -1072.031659299091
-------------------------   --------------------

------------------------------------------------------------------------------
                            ORCA SCF RESPONSE CALCULATION
------------------------------------------------------------------------------

GBWName                                 ... vacuum_censo.gbw
Number of atoms                         ...     22
Number of basis functions               ...    513
Max core memory                         ...   1024 MB

Electric field perturbation             ...  NO
Quadrupolar field perturbation          ...  NO
Magnetic field perturbation (no GIAO)   ...  NO
Magnetic field perturbation (with GIAO) ...  NO
Linear momentum (velocity) perturbation ...  NO
Spin-orbit coupling perturbation        ...  NO
Choice of electric origin               ... Center of mass
Position of electric origin             ...    -0.006379     0.001869     0.000069
Choice of magnetic origin               ... GIAO
Position of magnetic origin             ...     0.000000     0.000000     0.000000
Nuclear geometric perturbations         ... YES (  66 perturbations)
Nucleus-orbit perturbations             ...  NO (   0 perturbations)
Spin-dipole/Fermi contact perturbations ...  NO (   0 perturbations)

Total number of real perturbations      ...     66
Total number of imaginary perturbations ...      0
Total number of triplet perturbations   ...      0
Total number of SOC perturbations       ...      0


                                **********************
                                * REAL PERTURBATIONS *
                                **********************



-------------------
SHARK CP-SCF DRIVER
-------------------

Dimension of the orbital basis          ...    513
Dimension of the CPSCF-problem          ...  25592
Number of operators                     ...      1
Max. number of iterations               ...    128
Convergence Tolerance                   ... 1.0e-03
Number of perturbations                 ...     66
Perturbation type                       ... REAL

----------------------------
POPLE LINEAR EQUATION SOLVER
----------------------------

  ITERATION   0:   ||err||_max =   5.3956e-01 (  88.3 sec   0/ 66 done)
  ITERATION   1:   ||err||_max =   6.7717e-02 (  95.8 sec   0/ 66 done)
  ITERATION   2:   ||err||_max =   1.9858e-02 ( 113.1 sec  16/ 66 done)
  ITERATION   3:   ||err||_max =   6.8550e-03 (  89.8 sec  26/ 66 done)
  ITERATION   4:   ||err||_max =   2.1639e-03 (  71.8 sec  37/ 66 done)
  ITERATION   5:   ||err||_max =   1.0582e-03 (  53.8 sec  64/ 66 done)
  ITERATION   6:   ||err||_max =   2.7761e-04 (   5.7 sec  66/ 66 done)

CP-SCF equations solved in 522.8 sec
Response densities calculated in   0.3 sec

Maximum memory used throughout the entire SCFRESP-calculation: 344.1 MB

------------------------------------------------------------------------------
                              ORCA PROPERTY CALCULATIONS
------------------------------------------------------------------------------

GBWName                                 ... vacuum_censo.gbw
Number of atoms                         ...     22
Number of basis functions               ...    513
Max core memory                         ...   1024 MB

Electric properties:
Dipole moment                           ... YES
Quadrupole moment                       ...  NO
Static polarizability (Dipole/Dipole)   ...  NO
Static polarizability (Dipole/Quad.)    ...  NO
Static polarizability (Quad./Quad.)     ...  NO
Static polarizability (Velocity)        ...  NO

Atomic electric properties:
Dipole moment                           ...  NO
Quadrupole moment                       ...  NO
Static polarizability                   ...  NO

Choice of electric origin               ... Center of mass
Position of electric origin             ...    -0.006379     0.001869     0.000069

General magnetic properties:
Magnetizability                         ...  NO

EPR properties:
g-Tensor (aka g-matrix)                 ...  NO
Zero-Field splitting spin-orbit         ...  NO
Zero-field splitting spin-spin          ...  NO
Hyperfine couplings                     ...  NO (   0 nuclei)
Quadrupole couplings                    ...  NO (   0 nuclei)
Contact density                         ...  NO (   0 nuclei)

NMR properties:
Chemical shifts                         ...  NO (   0 nuclei)
Spin-rotation constants                 ...  NO (   0 nuclei)
Spin-spin couplings                     ...  NO (   0 nuclei,    0 pairs)

Choice of magnetic origin               ... GIAO
Position of magnetic origin             ...     0.000000     0.000000     0.000000

Properties with geometric perturbations:
SCF Hessian                             ... YES
IR spectrum                             ... YES
VCD spectrum                            ...  NO
X-ray spectroscopy properties:
SCF XES/XAS/RIXS spectra                ...  NO


-------------
DIPOLE MOMENT
-------------

Method             : SCF
Type of density    : Electron Density
Multiplicity       :   1
Irrep              :   0
Energy             : -1072.0293393540905527 Eh
Relativity type    : 
Basis              : AO
                                X                 Y                 Z
Electronic contribution:    -14.976391498       2.008882949      -0.006117581
Nuclear contribution   :     15.731897025      -2.240583834       0.007028918
                        -----------------------------------------
Total Dipole Moment    :      0.755505527      -0.231700885       0.000911337
                        -----------------------------------------
Magnitude (a.u.)       :      0.790237136
Magnitude (Debye)      :      2.008623173



--------------------
Rotational spectrum 
--------------------
 
Rotational constants in cm-1:             0.061688             0.009169             0.007983 
Rotational constants in MHz :          1849.368674           274.887094           239.315717 

Dipole components along the rotational axes: 
x,y,z [a.u.] :     0.755755     0.230887     0.000898 
x,y,z [Debye]:     1.920976     0.586868     0.002283 

 

Dipole moment calculation done in   0.0 sec 

-----------
SCF HESSIAN
-----------

Occupied/Occupied contributions to the Hessian:
   => Occupied/Occupied contributions              ... done (  0.1 sec)
Perturbed density contributions to the Hessian:
   => Perturbed density contributions              ... done (  0.3 sec)
Explicit contributions to the Hessian:
   => Nuclear repulsion Hessian                    ... done (  0.0 sec)
   => HCore and overlap Hessian                    ... done ( 65.3 sec)
   => RI-J Hessian                                 ... done ( 47.3 sec)
   => XC-Hessian                                   ... done (222.4 sec)
   => Van der Waals-Hessian                        ... done (  4.6 sec)
   => GCP-Hessian                                  ... done (  0.1 sec)
   => Explicit contributions done
Dipole derivatives                                 ... done (  0.5 sec)
Mass weighting the Hessian           ... done
Calculating normal modes             ... done
Scaling frequencies                  ... done

-----------------------
VIBRATIONAL FREQUENCIES
-----------------------

Scaling factor for frequencies =  1.000000000  (already applied!)

     0:       0.00 cm**-1
     1:       0.00 cm**-1
     2:       0.00 cm**-1
     3:       0.00 cm**-1
     4:       0.00 cm**-1
     5:       0.00 cm**-1
     6:      34.79 cm**-1
     7:     103.14 cm**-1
     8:     167.30 cm**-1
     9:     167.98 cm**-1
    10:     240.88 cm**-1
    11:     284.95 cm**-1
    12:     289.17 cm**-1
    13:     343.17 cm**-1
    14:     348.71 cm**-1
    15:     452.80 cm**-1
    16:     456.97 cm**-1
    17:     458.23 cm**-1
    18:     481.76 cm**-1
    19:     556.77 cm**-1
    20:     565.43 cm**-1
    21:     586.20 cm**-1
    22:     589.50 cm**-1
    23:     650.84 cm**-1
    24:     674.94 cm**-1
    25:     705.93 cm**-1
    26:     728.78 cm**-1
    27:     745.56 cm**-1
    28:     752.38 cm**-1
    29:     808.32 cm**-1
    30:     843.63 cm**-1
    31:     855.10 cm**-1
    32:     859.78 cm**-1
    33:     876.06 cm**-1
    34:     916.78 cm**-1
    35:     918.58 cm**-1
    36:     932.85 cm**-1
    37:     935.91 cm**-1
    38:    1052.17 cm**-1
    39:    1084.08 cm**-1
    40:    1119.44 cm**-1
    41:    1142.66 cm**-1
    42:    1176.19 cm**-1
    43:    1196.09 cm**-1
    44:    1211.03 cm**-1
    45:    1239.61 cm**-1
    46:    1269.37 cm**-1
    47:    1299.57 cm**-1
    48:    1308.93 cm**-1
    49:    1344.54 cm**-1
    50:    1368.86 cm**-1
    51:    1436.81 cm**-1
    52:    1490.47 cm**-1
    53:    1509.85 cm**-1
    54:    1525.70 cm**-1
    55:    1610.99 cm**-1
    56:    1616.92 cm**-1
    57:    1651.91 cm**-1
    58:    1661.47 cm**-1
    59:    3173.10 cm**-1
    60:    3181.68 cm**-1
    61:    3187.38 cm**-1
    62:    3189.07 cm**-1
    63:    3196.73 cm**-1
    64:    3204.82 cm**-1
    65:    3207.01 cm**-1


------------
NORMAL MODES
------------

These modes are the Cartesian displacements weighted by the diagonal matrix
M(i,i)=1/sqrt(m[i]) where m[i] is the mass of the displaced atom
Thus, these vectors are normalized but *not* orthogonal

                  0          1          2          3          4          5    
      0       0.000000   0.000000   0.000000   0.000000   0.000000   0.000000
      1       0.000000   0.000000   0.000000   0.000000   0.000000   0.000000
      2       0.000000   0.000000   0.000000   0.000000   0.000000   0.000000
      3       0.000000   0.000000   0.000000   0.000000   0.000000   0.000000
      4       0.000000   0.000000   0.000000   0.000000   0.000000   0.000000
      5       0.000000   0.000000   0.000000   0.000000   0.000000   0.000000
      6       0.000000   0.000000   0.000000   0.000000   0.000000   0.000000
      7       0.000000   0.000000   0.000000   0.000000   0.000000   0.000000
      8       0.000000   0.000000   0.000000   0.000000   0.000000   0.000000
      9       0.000000   0.000000   0.000000   0.000000   0.000000   0.000000
     10       0.000000   0.000000   0.000000   0.000000   0.000000   0.000000
     11       0.000000   0.000000   0.000000   0.000000   0.000000   0.000000
     12       0.000000   0.000000   0.000000   0.000000   0.000000   0.000000
     13       0.000000   0.000000   0.000000   0.000000   0.000000   0.000000
     14       0.000000   0.000000   0.000000   0.000000   0.000000   0.000000
     15       0.000000   0.000000   0.000000   0.000000   0.000000   0.000000
     16       0.000000   0.000000   0.000000   0.000000   0.000000   0.000000
     17       0.000000   0.000000   0.000000   0.000000   0.000000   0.000000
     18       0.000000   0.000000   0.000000   0.000000   0.000000   0.000000
     19       0.000000   0.000000   0.000000   0.000000   0.000000   0.000000
     20       0.000000   0.000000   0.000000   0.000000   0.000000   0.000000
     21       0.000000   0.000000   0.000000   0.000000   0.000000   0.000000
     22       0.000000   0.000000   0.000000   0.000000   0.000000   0.000000
     23       0.000000   0.000000   0.000000   0.000000   0.000000   0.000000
     24       0.000000   0.000000   0.000000   0.000000   0.000000   0.000000
     25       0.000000   0.000000   0.000000   0.000000   0.000000   0.000000
     26       0.000000   0.000000   0.000000   0.000000   0.000000   0.000000
[...]
     47      -0.000384  -0.000013   0.000354   0.000572  -0.000002  -0.000000
     48      -0.331983   0.000532  -0.243236   0.453440  -0.002144  -0.000609
     49      -0.272368   0.000319  -0.192537   0.369099  -0.001697  -0.000500
     50      -0.000404   0.000001  -0.000297   0.000555  -0.000002  -0.000002
     51      -0.095693  -0.001430   0.105672  -0.073530   0.000615  -0.000262
     52       0.567818   0.007791  -0.612639   0.412925  -0.003821   0.001704
     53      -0.000075  -0.000001   0.000083  -0.000062   0.000000  -0.000001
     54       0.077668  -0.000504   0.081639   0.049460  -0.000096   0.000154
     55      -0.569491   0.004670  -0.617565  -0.390503   0.001437  -0.001468
     56       0.000072  -0.000000   0.000075   0.000043   0.000000   0.000000
     57      -0.001063   0.150840   0.001768   0.000767   0.007567   0.054648
     58       0.006529  -0.928655  -0.011372  -0.004642  -0.043329  -0.317486
     59      -0.000003   0.000354   0.000005   0.000001   0.000014   0.000117
     60      -0.000371   0.253907   0.003609   0.001362  -0.152524  -0.721049
     61      -0.000293   0.205649   0.002952   0.001157  -0.120823  -0.573682
     62       0.000001  -0.000276  -0.000004  -0.000003   0.000163   0.000777
     63       0.000172   0.003021  -0.000072   0.000790   0.134245  -0.026677
     64      -0.001181  -0.022200   0.001174  -0.005490  -0.966724   0.196642
     65       0.000000   0.000006  -0.000001   0.000002   0.000348  -0.000074


-----------
IR SPECTRUM
-----------

 Mode   freq       eps      Int      T**2         TX        TY        TZ
       cm**-1   L/(mol*cm) km/mol    a.u.
----------------------------------------------------------------------------
  6:     34.79   0.000079    0.40  0.000707  (-0.000034  0.000207 -0.026585)
  7:    103.14   0.000089    0.45  0.000269  ( 0.000006 -0.000078 -0.016392)
  8:    167.30   0.000014    0.07  0.000025  (-0.000779  0.000530 -0.004936)
  9:    167.98   0.000033    0.17  0.000062  (-0.005773  0.005334  0.000512)
 10:    240.88   0.000004    0.02  0.000005  ( 0.000140  0.000056 -0.002302)
 11:    284.95   0.000071    0.36  0.000078  ( 0.000232  0.000054  0.008833)
 12:    289.17   0.000181    0.92  0.000196  ( 0.008628  0.011012  0.000052)
 13:    343.17   0.000646    3.27  0.000588  (-0.017824  0.016429 -0.000041)
 14:    348.71   0.000012    0.06  0.000011  (-0.000014 -0.000021  0.003263)
 15:    452.80   0.000160    0.81  0.000110  (-0.000110  0.000112 -0.010493)
 16:    456.97   0.001368    6.91  0.000934  ( 0.001054 -0.000465  0.030541)
 17:    458.23   0.000479    2.42  0.000326  (-0.016705  0.006590  0.001998)
 18:    481.76   0.000356    1.80  0.000231  (-0.014694  0.003858  0.000104)
 19:    556.77   0.000004    0.02  0.000002  ( 0.000003  0.000019 -0.001558)
 20:    565.43   0.000362    1.83  0.000200  (-0.012697  0.006193  0.000068)
 21:    586.20   0.000983    4.97  0.000523  ( 0.022126 -0.005799  0.000344)
 22:    589.50   0.001046    5.29  0.000554  ( 0.000288 -0.000044 -0.023531)
 23:    650.84   0.000342    1.73  0.000164  ( 0.010642 -0.007128 -0.000020)
 24:    674.94   0.000010    0.05  0.000005  (-0.000044 -0.000033  0.002191)
 25:    705.93   0.000003    0.02  0.000002  (-0.000096  0.000226 -0.001209)
 26:    728.78   0.002251   11.37  0.000964  ( 0.026090 -0.016823 -0.000033)
 27:    745.56   0.000086    0.44  0.000036  (-0.001408 -0.005830  0.000371)
 28:    752.38   0.014814   74.86  0.006144  (-0.000117 -0.000019 -0.078386)
 29:    808.32   0.005219   26.38  0.002015  ( 0.000049  0.000080 -0.044889)
 30:    843.63   0.000142    0.72  0.000053  ( 0.000021 -0.000037  0.007247)
 31:    855.10   0.010044   50.76  0.003665  ( 0.060246 -0.005985 -0.000061)
 32:    859.78   0.004750   24.00  0.001724  (-0.000116  0.000052 -0.041520)
 33:    876.06   0.006261   31.64  0.002230  ( 0.038133  0.027861 -0.000031)
 34:    916.78   0.000111    0.56  0.000038  (-0.000054 -0.000029 -0.006155)
 35:    918.58   0.001011    5.11  0.000343  ( 0.000033  0.000019 -0.018532)
 36:    932.85   0.011551   58.37  0.003864  ( 0.061941 -0.005231 -0.000021)
 37:    935.91   0.000000    0.00  0.000000  (-0.000019 -0.000105 -0.000302)
 38:   1052.17   0.001627    8.22  0.000483  (-0.021723 -0.003274 -0.000031)
 39:   1084.08   0.007205   36.41  0.002074  ( 0.044046 -0.011578 -0.000000)
 40:   1119.44   0.000324    1.64  0.000090  ( 0.006070  0.007308 -0.000002)
 41:   1142.66   0.004950   25.02  0.001352  (-0.011180  0.035027 -0.000008)
 42:   1176.19   0.000397    2.00  0.000105  (-0.010153 -0.001470 -0.000012)
 43:   1196.09   0.000438    2.21  0.000114  ( 0.010322 -0.002757 -0.000008)
 44:   1211.03   0.006351   32.09  0.001637  (-0.032176  0.024520 -0.000001)
 45:   1239.61   0.001510    7.63  0.000380  ( 0.019464 -0.001071  0.000077)
 46:   1269.37   0.001585    8.01  0.000390  ( 0.019606  0.002267  0.000030)
 47:   1299.57   0.016565   83.71  0.003978  ( 0.062984  0.003272  0.000017)
 48:   1308.93   0.111175  561.83  0.026505  ( 0.160115  0.029475  0.000028)
 49:   1344.54   0.012748   64.42  0.002959  (-0.054274 -0.003632 -0.000010)
 50:   1368.86   0.000196    0.99  0.000045  (-0.006288  0.002290  0.000001)
 51:   1436.81   0.001927    9.74  0.000419  (-0.016465 -0.012141  0.000002)
 52:   1490.47   0.001323    6.68  0.000277  ( 0.008696  0.014189 -0.000003)
 53:   1509.85   0.143903  727.23  0.029743  ( 0.172126  0.010729  0.000000)
 54:   1525.70   0.006354   32.11  0.001300  (-0.033741 -0.012690 -0.000084)
 55:   1610.99   0.001320    6.67  0.000256  (-0.015930  0.001390  0.000003)
 56:   1616.92   0.010403   52.57  0.002008  ( 0.041303  0.017376  0.000003)
 57:   1651.91   0.000720    3.64  0.000136  (-0.010020  0.005967 -0.000020)
 58:   1661.47   0.001393    7.04  0.000262  (-0.013728 -0.008557  0.000010)
 59:   3173.10   0.000162    0.82  0.000016  ( 0.001392 -0.003735  0.000000)
 60:   3181.68   0.001458    7.37  0.000143  ( 0.011821  0.001799  0.000014)
 61:   3187.38   0.000220    1.11  0.000022  (-0.003641  0.002884  0.000003)
 62:   3189.07   0.001079    5.46  0.000106  (-0.001614  0.010150 -0.000002)
 63:   3196.73   0.001605    8.11  0.000157  (-0.012372 -0.001891 -0.000010)
 64:   3204.82   0.000151    0.76  0.000015  ( 0.003116 -0.002227 -0.000001)
 65:   3207.01   0.000080    0.41  0.000008  ( 0.000773  0.002687 -0.000001)

* The epsilon (eps) is given for a Dirac delta lineshape.
** The dipole moment derivative (T) already includes vibrational overlap.

The first frequency considered to be a vibration is 6
The total number of vibrations considered is 60


--------------------------
THERMOCHEMISTRY AT 298.15K
--------------------------

Temperature         ...   298.15 K
Pressure            ...     1.00 atm
Total Mass          ...   218.64 AMU
Quasi RRHO          ...     True
Cut-Off Frequency   ...     1.00 cm^-1

Throughout the following assumptions are being made:
  (1) The electronic state is orbitally nondegenerate
  (2) There are no thermally accessible electronically excited states
  (3) Hindered rotations indicated by low frequency modes are not
      treated as such but are treated as vibrations and this may
      cause some error
  (4) All equations used are the standard statistical mechanics
      equations for an ideal gas
  (5) All vibrations are strictly harmonic

freq.      34.79  E(vib)   ...       0.54 
freq.     103.14  E(vib)   ...       0.46 
freq.     167.30  E(vib)   ...       0.39 
freq.     167.98  E(vib)   ...       0.38 
freq.     240.88  E(vib)   ...       0.31 
freq.     284.95  E(vib)   ...       0.28 
freq.     289.17  E(vib)   ...       0.27 
freq.     343.17  E(vib)   ...       0.23 
freq.     348.71  E(vib)   ...       0.23 
freq.     452.80  E(vib)   ...       0.16 
freq.     456.97  E(vib)   ...       0.16 
freq.     458.23  E(vib)   ...       0.16 
freq.     481.76  E(vib)   ...       0.15 
freq.     556.77  E(vib)   ...       0.12 
freq.     565.43  E(vib)   ...       0.11 
freq.     586.20  E(vib)   ...       0.11 
freq.     589.50  E(vib)   ...       0.10 
freq.     650.84  E(vib)   ...       0.08 
freq.     674.94  E(vib)   ...       0.08 
freq.     705.93  E(vib)   ...       0.07 
freq.     728.78  E(vib)   ...       0.06 
freq.     745.56  E(vib)   ...       0.06 
freq.     752.38  E(vib)   ...       0.06 
freq.     808.32  E(vib)   ...       0.05 
freq.     843.63  E(vib)   ...       0.04 
freq.     855.10  E(vib)   ...       0.04 
freq.     859.78  E(vib)   ...       0.04 
freq.     876.06  E(vib)   ...       0.04 
freq.     916.78  E(vib)   ...       0.03 
freq.     918.58  E(vib)   ...       0.03 
freq.     932.85  E(vib)   ...       0.03 
freq.     935.91  E(vib)   ...       0.03 
freq.    1052.17  E(vib)   ...       0.02 
freq.    1084.08  E(vib)   ...       0.02 
freq.    1119.44  E(vib)   ...       0.01 
freq.    1142.66  E(vib)   ...       0.01 
freq.    1176.19  E(vib)   ...       0.01 
freq.    1196.09  E(vib)   ...       0.01 
freq.    1211.03  E(vib)   ...       0.01 
freq.    1239.61  E(vib)   ...       0.01 
freq.    1269.37  E(vib)   ...       0.01 
freq.    1299.57  E(vib)   ...       0.01 
freq.    1308.93  E(vib)   ...       0.01 
freq.    1344.54  E(vib)   ...       0.01 
freq.    1368.86  E(vib)   ...       0.01 
freq.    1436.81  E(vib)   ...       0.00 
freq.    1490.47  E(vib)   ...       0.00 
freq.    1509.85  E(vib)   ...       0.00 
freq.    1525.70  E(vib)   ...       0.00 
freq.    1610.99  E(vib)   ...       0.00 
freq.    1616.92  E(vib)   ...       0.00 
freq.    1651.91  E(vib)   ...       0.00 
freq.    1661.47  E(vib)   ...       0.00 
freq.    3173.10  E(vib)   ...       0.00 
freq.    3181.68  E(vib)   ...       0.00 
freq.    3187.38  E(vib)   ...       0.00 
freq.    3189.07  E(vib)   ...       0.00 
freq.    3196.73  E(vib)   ...       0.00 
freq.    3204.82  E(vib)   ...       0.00 
freq.    3207.01  E(vib)   ...       0.00 

------------
INNER ENERGY
------------

The inner energy is: U= E(el) + E(ZPE) + E(vib) + E(rot) + E(trans)
    E(el)   - is the total energy from the electronic structure calculation
              = E(kin-el) + E(nuc-el) + E(el-el) + E(nuc-nuc)
    E(ZPE)  - the the zero temperature vibrational energy from the frequency calculation
    E(vib)  - the the finite temperature correction to E(ZPE) due to population
              of excited vibrational states
    E(rot)  - is the rotational thermal energy
    E(trans)- is the translational thermal energy

Summary of contributions to the inner energy U:
Electronic energy                ...  -1072.03165930 Eh
Zero point energy                ...      0.15717005 Eh      98.63 kcal/mol
Thermal vibrational correction   ...      0.00807327 Eh       5.07 kcal/mol
Thermal rotational correction    ...      0.00141627 Eh       0.89 kcal/mol
Thermal translational correction ...      0.00141627 Eh       0.89 kcal/mol
-----------------------------------------------------------------------
Total thermal energy                  -1071.86358344 Eh


Summary of corrections to the electronic energy:
(perhaps to be used in another calculation)
Total thermal correction                  0.01090581 Eh       6.84 kcal/mol
Non-thermal (ZPE) correction              0.15717005 Eh      98.63 kcal/mol
-----------------------------------------------------------------------
Total correction                          0.16807586 Eh     105.47 kcal/mol


--------
ENTHALPY
--------

The enthalpy is H = U + kB*T
                kB is Boltzmann's constant
Total thermal energy              ...  -1071.86358344 Eh 
Thermal Enthalpy correction       ...      0.00094421 Eh       0.59 kcal/mol
-----------------------------------------------------------------------
Total Enthalpy                    ...  -1071.86263923 Eh


Note: Only C1 symmetry has been detected, increase convergence thresholds 
      if your molecule has a higher symmetry. Symmetry factor of 1.0 is   
      used for the rotational entropy correction. 
 

Note: Rotational entropy computed according to Herzberg 
Infrared and Raman Spectra, Chapter V,1, Van Nostrand Reinhold, 1945 
Point Group:  C1, Symmetry Number:   1  
Rotational constants in cm-1:     0.061688     0.009169     0.007983 

Vibrational entropy computed according to the QRRHO of S. Grimme
Chem.Eur.J. 2012 18 9955 using a reference frequency of 100.0 cm-1


-------
ENTROPY
-------

The entropy contributions are T*S = T*(S(el)+S(vib)+S(rot)+S(trans))
     S(el)   - electronic entropy
     S(vib)  - vibrational entropy
     S(rot)  - rotational entropy
     S(trans)- translational entropy
The entropies will be listed as multiplied by the temperature to get
units of energy

Electronic entropy                ...      0.00000000 Eh      0.00 kcal/mol
Vibrational entropy               ...      0.01326694 Eh      8.33 kcal/mol
Rotational entropy                ...      0.01532132 Eh      9.61 kcal/mol
Translational entropy             ...      0.01997912 Eh     12.54 kcal/mol
-----------------------------------------------------------------------
Final entropy term                ...      0.04856738 Eh     30.48 kcal/mol

In case the symmetry of your molecule has not been determined correctly
or in case you have a reason to use a different symmetry number we print 
out the resulting rotational entropy values for sn=1,12:

 non-linear molecules -----------------------------------
|  sn= 1 | S(rot)=       0.01532132 Eh      9.61 kcal/mol|
|  sn= 2 | S(rot)=       0.01466686 Eh      9.20 kcal/mol|
|  sn= 3 | S(rot)=       0.01428403 Eh      8.96 kcal/mol|
|  sn= 4 | S(rot)=       0.01401241 Eh      8.79 kcal/mol|
|  sn= 5 | S(rot)=       0.01380172 Eh      8.66 kcal/mol|
|  sn= 6 | S(rot)=       0.01362957 Eh      8.55 kcal/mol|
|  sn= 7 | S(rot)=       0.01348403 Eh      8.46 kcal/mol|
|  sn= 8 | S(rot)=       0.01335795 Eh      8.38 kcal/mol|
|  sn= 9 | S(rot)=       0.01324674 Eh      8.31 kcal/mol|
|  sn=10 | S(rot)=       0.01314726 Eh      8.25 kcal/mol|
|  sn=11 | S(rot)=       0.01305727 Eh      8.19 kcal/mol|
|  sn=12 | S(rot)=       0.01297512 Eh      8.14 kcal/mol|
 linear molecules ---------------------------------------
|  Dinfh | S(rot)=       0.00988665 Eh      6.20 kcal/mol|
|  Cinfv | S(rot)=       0.01054111 Eh      6.61 kcal/mol|
 --------------------------------------------------------


-------------------
GIBBS FREE ENERGY
-------------------

The Gibbs free energy is G = H - T*S

Total enthalpy                    ...  -1071.86263923 Eh 
Total entropy correction          ...     -0.04856738 Eh    -30.48 kcal/mol
-----------------------------------------------------------------------
Final Gibbs free energy         ...  -1071.91120661 Eh

For completeness - the Gibbs free energy minus the electronic energy
G-E(el)                           ...      0.12045269 Eh     75.59 kcal/mol


Maximum memory used throughout the entire PROP-calculation: 108.0 MB

--------------------------------
SUGGESTED CITATIONS FOR THIS RUN
--------------------------------

Below you find a list of papers that are relevant to this ORCA run
We neither can nor want to force you to cite these papers, but we appreciate if you do
You receive ORCA, which is the product of decades of hard work by many enthusiastic individuals, for free
The only thing we kindly ask in return is that you cite our papers,
We deeply appreciate it, if you show your appreciation for ORCA by not just citing the generic ORCA reference.

Please note that relegating all ORCA citations to the supporting information does *not* help us.
SI sections are not indexed - citations you put there will not count into any citation statistics
But we need these citations in order to attract the funding resources that allow us to do what we are doing

Therefore, if you are a happy ORCA user, please consider citing a few of the papers listed below in the main body of your paper

In addition to the list printed below, the program has created the file vacuum_censo.bibtex that contains the list in bibtex format
You can import this file easily into all common literature databanks and citation aid programs


List of essential papers. We consider these as the minimum necessary citations

  1. Neese,F.
     Software update: the ORCA program system, version 5.0
     WIRES Comput. Molec. Sci., 2022 12(1)e1606
     doi.org/10.1002/wcms.1606
  2. Grimme,S.; Hansen,A.; Ehlert,S.; Mewes,J.
     r2SCAN-3c: A 'Swiss army knife' composite electronic-structure method
     J. Chem. Phys., 2021 154 064103
     doi.org/10.1063/5.0040021

List of papers to cite with high priority. The work reported in these papers was absolutely
necessary for this run to complete.
Our perspective: the developers of density functionals and basis sets usually get cited in chemistry papers
Good! But without the algorithms to do something with them, the functionals or basis sets would not do anything.
Hence, in our opinion, the algorithm design and method developments papers are equally worthy of getting cited

  1. Neese,F.
     An improvement of the resolution of the identity approximation for the formation of the Coulomb matrix
     J. Comp. Chem., 2003 24(14)1740-1747
     doi.org/10.1002/jcc.10318
  2. Bykov,D.; Petrenko,T.; Izsak,R.; Kossmann,S.; Becker,U.; Valeev,E.; Neese,F.
     Efficient implementation of the analytic second derivatives of Hartree-Fock and hybrid DFT energies: a detailed analysis of different approximations
     Molec. Phys., 2015 113 1961-1977
     doi.org/10.1080/00268976.2015.1025114
  3. Neese,F.
     The SHARK Integral Generation and Digestion System
     J. Comp. Chem., 2022  1-16
     doi.org/10.1002/jcc.26942
  4. Lehtola,S.; Steigemann,C.; Oliveira,M.; Marques,M.
     Recent developments in Libxc - A comprehensive library of functionals for density functional theory
     Software X, 2018 7 
     doi.org/10.1016/j.softx.2017.11.002
  5. Caldeweyher,E.; Bannwarth,C.; Grimme,S.
     Extension of the D3 dispersion coefficient model
     J. Chem. Phys., 2017 147 034112-XXXX
     doi.org/10.1063/1.4993215
  6. Caldeweyher,E.; Ehlert,S.; Hansen,A.; Neugebauer,H.; Spicher,S.; Bannwarth,C.; Grimme,S.
     A generally applicable atomic-charge dependent London dispersion correction
     J. Chem. Phys., 2019 150 154122-XXXX
     doi.org/10.1063/1.5090222
  7. Caldeweyher,E.; Mewes,J.; Ehlert,S.; Grimme,S.
     Extension and evaluation of the D4 London-dispersion model for periodic systems
     Phys. Chem. Chem. Phys., 2020 22(16)8499-8512
     doi.org/10.1039/D0CP00502A

List of suggested additional citations. These are papers that are important in the 'surrounding' of 
of this run, or papers that preceded the highly important papers. If you like your results we are grateful for a citation.

  1. Neese,F.
     The ORCA program system
     WIRES Comput. Molec. Sci., 2012 2(1)73-78
     doi.org/10.1002/wcms.81
  2. Neese,F.
     Software update: the ORCA program system, version 4.0
     WIRES Comput. Molec. Sci., 2018 8(1)1-6
     doi.org/10.1002/wcms.1327
  3. Neese,F.; Wennmohs,F.; Becker,U.; Riplinger,C.
     The ORCA quantum chemistry program package
     J. Chem. Phys., 2020 152 Art. No. L224108
     doi.org/10.1063/5.0004608

List of optional additional citations

  1. Neese,F.
     Approximate second-order SCF convergence for spin unrestricted wavefunctions
     Chem. Phys. Lett., 2000 325(1-3)93-98
     doi.org/10.1016/s0009-2614(00)00662-x

Timings for individual modules:

Sum of individual times          ...     2025.907 sec (=  33.765 min)
Startup calculation              ...        2.335 sec (=   0.039 min)   0.1 %
SCF iterations                   ...       83.412 sec (=   1.390 min)   4.1 %
Property integrals               ...     1074.211 sec (=  17.904 min)  53.0 %
SCF Response                     ...      525.066 sec (=   8.751 min)  25.9 %
Property calculations            ...      340.883 sec (=   5.681 min)  16.8 %
                             ****ORCA TERMINATED NORMALLY****
TOTAL RUN TIME: 0 days 0 hours 33 minutes 46 seconds 713 msec
