      -----------------------------------------------------------      
     |                   =====================                   |     
     |                           x T B                           |     
     |                   =====================                   |     
     |                         S. Grimme                         |     
     |          Mulliken Center for Theoretical Chemistry        |     
     |                    University of Bonn                     |     
      -----------------------------------------------------------      

   * xtb version 6.7.1 (edcfbbe) compiled by 'albert@albert-system' on 2024-07-22

   xtb is free software: you can redistribute it and/or modify it under
   the terms of the GNU Lesser General Public License as published by
   the Free Software Foundation, either version 3 of the License, or
   (at your option) any later version.
   
   xtb is distributed in the hope that it will be useful,
   but WITHOUT ANY WARRANTY; without even the implied warranty of
   MERCHANTABILITY or FITNESS FOR A PARTICULAR PURPOSE.  See the
   GNU Lesser General Public License for more details.
   
   Cite this work as:
   * C. Bannwarth, E. Caldeweyher, S. Ehlert, A. Hansen, P. Pracht,
     J. Seibert, S. Spicher, S. Grimme, WIREs Comput. Mol. Sci., 2020, 11,
     e01493. DOI: 10.1002/wcms.1493
   
   for GFN2-xTB:
   * C. Bannwarth, S. Ehlert and S. Grimme., J. Chem. Theory Comput., 2019,
     15, 1652-1671. DOI: 10.1021/acs.jctc.8b01176
   for GFN1-xTB:
   * S. Grimme, C. Bannwarth, P. Shushkov, J. Chem. Theory Comput., 2017,
     13, 1989-2009. DOI: 10.1021/acs.jctc.7b00118
   for GFN0-xTB:
   * P. Pracht, E. Caldeweyher, S. Ehlert, S. Grimme, ChemRxiv, 2019, preprint.
     DOI: 10.26434/chemrxiv.8326202.v1
   for GFN-FF:
   * S. Spicher and S. Grimme, Angew. Chem. Int. Ed., 2020, 59, 15665-15673.
     DOI: 10.1002/anie.202004239
   
   for ALPB and GBSA implicit solvation:
   * S. Ehlert, M. Stahn, S. Spicher, S. Grimme, J. Chem. Theory Comput.,
     2021, 17, 4250-4261. DOI: 10.1021/acs.jctc.1c00471
   
   for ddCOSMO and CPCM-X implicit solvation:
   * M. Stahn, S. Ehlert, S. Grimme, J. Phys. Chem. A,
     2023, XX, XXXX-XXXX. DOI: 10.1021/acs.jpca.3c04382
   
   for DFT-D4:
   * E. Caldeweyher, C. Bannwarth and S. Grimme, J. Chem. Phys., 2017,
     147, 034112. DOI: 10.1063/1.4993215
   * E. Caldeweyher, S. Ehlert, A. Hansen, H. Neugebauer, S. Spicher,
     C. Bannwarth and S. Grimme, J. Chem. Phys., 2019, 150, 154122.
     DOI: 10.1063/1.5090222
   * E. Caldeweyher, J.-M. Mewes, S. Ehlert and S. Grimme, Phys. Chem. Chem. Phys.
     2020, 22, 8499-8512. DOI: 10.1039/D0CP00502A
   
   for sTDA-xTB:
   * S. Grimme and C. Bannwarth, J. Chem. Phys., 2016, 145, 054103.
     DOI: 10.1063/1.4959605
   
   in the mass-spec context:
   * V. Asgeirsson, C. Bauer and S. Grimme, Chem. Sci., 2017, 8, 4879.
     DOI: 10.1039/c7sc00601b
   * J. Koopman and S. Grimme, ACS Omega 2019, 4, 12, 15120-15133.
     DOI: 10.1021/acsomega.9b02011
   
   for metadynamics refer to:
   * S. Grimme, J. Chem. Theory Comput., 2019, 155, 2847-2862
     DOI: 10.1021/acs.jctc.9b00143
   
   for SPH calculations refer to:
   * S. Spicher and S. Grimme, J. Chem. Theory Comput., 2021, 17, 1701-1714
     DOI: 10.1021/acs.jctc.0c01306
   
   for ONIOM refer to:
   * C. Plett, A. Katbashev, S. Ehlert, S. Grimme, M. Bursch,
     Phys. Chem. Chem. Phys., 2023, 25, 17860-17868. DOI: 10.1039/D3CP02178E
   
   for DIPRO refer to:
   * J. Kohn, N. Gildemeister, S. Grimme, D. Fazzi, A. Hansen,
     J. Chem. Phys., 2023, just accepted.
   
   for PTB refer to:
   * S. Grimme, M. Mueller, A. Hansen, J. Chem. Phys., 2023, 158, 124111.
     DOI: 10.1063/5.0137838
   
   with help from (in alphabetical order)
   P. Atkinson, C. Bannwarth, F. Bohle, G. Brandenburg, E. Caldeweyher
   M. Checinski, S. Dohm, S. Ehlert, S. Ehrlich, I. Gerasimov, C. Hölzer
   A. Katbashev, J. Kohn, J. Koopman, C. Lavigne, S. Lehtola, F. März, M. Müller,
   F. Musil, H. Neugebauer, J. Pisarek, C. Plett, P. Pracht, F. Pultar,
   J. Seibert, P. Shushkov, S. Spicher, M. Stahn, M. Steiner, T. Strunk,
   J. Stückrath, T. Rose, and J. Unsleber
   
 * started run on 2025/04/15 at 19:51:26.271     
   ID    Z sym.   atoms
    1    6 C      1, 2
    2    8 O      3, 4
    3    1 H      5-10

           -------------------------------------------------
          |                Calculation Setup                |
           -------------------------------------------------

          program call               : /software/projects/pawsey0265/mwang1/xtb/bin/xtb xtb_rrho.coord --gfn2 --ohess vtight --chrg 0 --enso --norestart -I rrho-xcontrol-inp --parallel 1
          hostname                   : nid002810
          coordinate file            : xtb_rrho.coord
          omp threads                :                     1


           -------------------------------------------------
          |                 G F N 2 - x T B                 |
           -------------------------------------------------

        Reference                      10.1021/acs.jctc.8b01176
      * Hamiltonian:
        H0-scaling (s, p, d)           1.850000    2.230000    2.230000
        zeta-weighting                 0.500000
      * Dispersion:
        s8                             2.700000
        a1                             0.520000
        a2                             5.000000
        s9                             5.000000
      * Repulsion:
        kExp                           1.500000    1.000000
        rExp                           1.000000
      * Coulomb:
        alpha                          2.000000
        third order                    shell-resolved
        anisotropic                    true
        a3                             3.000000
        a5                             4.000000
        cn-shift                       1.200000
        cn-exp                         4.000000
        max-rad                        5.000000


          ...................................................
          :                      SETUP                      :
          :.................................................:
          :  # basis functions                  22          :
          :  # atomic orbitals                  22          :
          :  # shells                           14          :
          :  # electrons                        26          :
          :  max. iterations                   250          :
          :  Hamiltonian                  GFN2-xTB          :
          :  restarted?                      false          :
          :  GBSA solvation                  false          :
          :  PC potential                    false          :
          :  electronic temp.          300.0000000     K    :
          :  accuracy                    1.0000000          :
          :  -> integral cutoff          0.2500000E+02      :
          :  -> integral neglect         0.1000000E-07      :
          :  -> SCF convergence          0.1000000E-05 Eh   :
          :  -> wf. convergence          0.1000000E-03 e    :
          :  Broyden damping             0.4000000          :
          :  net charge                          0          :
          :  unpaired electrons                  0          :
          ...................................................

 iter      E             dE          RMSdq      gap      omega  full diag
   1    -15.5516379 -0.155516E+02  0.430E+00   11.80       0.0  T
   2    -15.5719402 -0.203023E-01  0.229E+00   11.42       1.0  T
   3    -15.5724963 -0.556098E-03  0.797E-01   11.45       1.0  T
   4    -15.5726527 -0.156353E-03  0.126E-01   11.44       1.0  T
   5    -15.5726615 -0.880418E-05  0.324E-02   11.47       1.0  T
   6    -15.5726645 -0.298881E-05  0.159E-02   11.46       2.0  T
   7    -15.5726649 -0.398327E-06  0.445E-03   11.46       7.1  T
   8    -15.5726649 -0.373028E-07  0.164E-03   11.46      19.3  T
   9    -15.5726649 -0.446257E-08  0.310E-04   11.46     101.9  T
  10    -15.5726649 -0.237669E-09  0.821E-05   11.46     385.1  T

   *** convergence criteria satisfied after 10 iterations ***

         #    Occupation            Energy/Eh            Energy/eV
      -------------------------------------------------------------
         1        2.0000           -0.7020209             -19.1030
       ...           ...                  ...                  ...
         7        2.0000           -0.5467170             -14.8769
         8        2.0000           -0.5323525             -14.4860
         9        2.0000           -0.5088276             -13.8459
        10        2.0000           -0.4743976             -12.9090
        11        2.0000           -0.4666055             -12.6970
        12        2.0000           -0.4363555             -11.8738
        13        2.0000           -0.4131884             -11.2434 (HOMO)
        14                          0.0080736               0.2197 (LUMO)
        15                          0.0572032               1.5566
        16                          0.1050648               2.8590
        17                          0.1116330               3.0377
        18                          0.1421363               3.8677
       ...                                ...                  ...
        22                          0.2520966               6.8599
      -------------------------------------------------------------
                  HL-Gap            0.4212620 Eh           11.4631 eV
             Fermi-level           -0.2025574 Eh           -5.5119 eV

 SCC (total)                   0 d,  0 h,  0 min,  0.012 sec
 SCC setup                      ...        0 min,  0.000 sec (  1.359%)
 Dispersion                     ...        0 min,  0.000 sec (  0.463%)
 classical contributions        ...        0 min,  0.000 sec (  0.206%)
 integral evaluation            ...        0 min,  0.001 sec (  4.480%)
 iterations                     ...        0 min,  0.010 sec ( 82.809%)
 molecular gradient             ...        0 min,  0.001 sec (  9.404%)
 printout                       ...        0 min,  0.000 sec (  1.119%)

         :::::::::::::::::::::::::::::::::::::::::::::::::::::
         ::                     SUMMARY                     ::
         :::::::::::::::::::::::::::::::::::::::::::::::::::::
         :: total energy             -15.451207591769 Eh    ::
         :: gradient norm              0.027451871251 Eh/a0 ::
         :: HOMO-LUMO gap             11.463123283314 eV    ::
         ::.................................................::
         :: SCC energy               -15.572663651850 Eh    ::
         :: -> isotropic ES            0.048302049751 Eh    ::
         :: -> anisotropic ES          0.002264288470 Eh    ::
         :: -> anisotropic XC         -0.000614635136 Eh    ::
         :: -> dispersion             -0.003676483142 Eh    ::
         :: repulsion energy           0.121456060081 Eh    ::
         :: add. restraining           0.000000000000 Eh    ::
         :: total charge              -0.000000000000 e     ::
         :::::::::::::::::::::::::::::::::::::::::::::::::::::

      ----------------------------------------------------------- 
     |                   =====================                   |
     |                        A N C O P T                        |
     |                   =====================                   |
     |               Approximate Normal Coordinate               |
     |                Rational Function Optimizer                |
      ----------------------------------------------------------- 
      ----------------------------------------------------------- 
     |                   =====================                   |
     |                        A N C O P T                        |
     |                   =====================                   |
     |               Approximate Normal Coordinate               |
     |                Rational Function Optimizer                |
      ----------------------------------------------------------- 

          ...................................................
          :                      SETUP                      :
          :.................................................:
          :   optimization level         verytight          :
          :   max. optcycles                   200          :
          :   ANC micro-cycles                  20          :
          :   degrees of freedom                24          :
          :.................................................:
          :   RF solver                   davidson          :
          :   write xtbopt.log                true          :
          :   linear?                        false          :
          :   energy convergence         0.1000000E-06 Eh   :
          :   grad. convergence          0.2000000E-03 Eh/α :
          :   maxmium RF displ.          1.0000000          :
          :   Hlow (freq-cutoff)         0.1000000E-01      :
          :   Hmax (freq-cutoff)         5.0000000          :
          :   S6 in model hess.         20.0000000          :
          ...................................................

generating ANC from exact Hessian ...
Using Lindh-Hessian (1995)
 Shifting diagonal of input Hessian by   2.163325035883921E-003
 Lowest  eigenvalues of input Hessian
    0.000000    0.000000    0.000000    0.000000    0.000000    0.000000
    0.010000    0.015118    0.024042    0.043575    0.050978    0.062734
    0.063768    0.080943    0.098011    0.106654    0.120999    0.134441
 Highest eigenvalues
    1.096678    1.149836    1.234028    1.290904    1.428990    1.443999
 

........................................................................
.............................. CYCLE    1 ..............................
........................................................................

 iter      E             dE          RMSdq      gap      omega  full diag
   1    -15.5726649 -0.155727E+02  0.206E-05   11.46       0.0  T
   2    -15.5726649 -0.563105E-12  0.125E-05   11.46    2525.3  T
   3    -15.5726649 -0.131450E-12  0.473E-06   11.46    6687.4  T
     SCC iter.                  ...        0 min,  0.000 sec
     gradient                   ...        0 min,  0.001 sec
 * total energy  :   -15.4512076 Eh     change       -0.4799183E-10 Eh
   gradient norm :     0.0274529 Eh/α   predicted     0.0000000E+00 (-100.00%)
   displ. norm   :     0.1063658 α      lambda       -0.1101916E-02
   maximum displ.:     0.0616749 α      in ANC's #2, #1, #10, ...

........................................................................
.............................. CYCLE    2 ..............................
........................................................................

 iter      E             dE          RMSdq      gap      omega  full diag
   1    -15.5752335 -0.155752E+02  0.118E-01   11.75       0.0  T
   2    -15.5752359 -0.240252E-05  0.702E-02   11.75       1.0  T
   3    -15.5752366 -0.642263E-06  0.707E-03   11.75       4.5  T
   4    -15.5752367 -0.889768E-07  0.322E-03   11.75       9.8  T
   5    -15.5752367 -0.117313E-07  0.161E-03   11.75      19.6  T
   6    -15.5752367 -0.176990E-08  0.412E-04   11.75      76.7  T
   7    -15.5752367 -0.264352E-09  0.128E-04   11.75     246.1  T
     SCC iter.                  ...        0 min,  0.001 sec
     gradient                   ...        0 min,  0.001 sec
 * total energy  :   -15.4519232 Eh     change       -0.7155965E-03 Eh
   gradient norm :     0.0123765 Eh/α   predicted    -0.5571923E-03 ( -22.14%)
   displ. norm   :     0.0855419 α      lambda       -0.3044350E-03
   maximum displ.:     0.0590808 α      in ANC's #2, #1, #5, ...

........................................................................
.............................. CYCLE    3 ..............................
........................................................................

 iter      E             dE          RMSdq      gap      omega  full diag
   1    -15.5762183 -0.155762E+02  0.647E-02   11.96       0.0  T
   2    -15.5762194 -0.114208E-05  0.396E-02   11.96       1.0  T
   3    -15.5762196 -0.219125E-06  0.509E-03   11.96       6.2  T
   4    -15.5762197 -0.570638E-07  0.184E-03   11.96      17.2  T
   5    -15.5762197 -0.744461E-08  0.900E-04   11.96      35.1  T
   6    -15.5762197 -0.436478E-09  0.170E-04   11.96     185.9  T
     SCC iter.                  ...        0 min,  0.001 sec
     gradient                   ...        0 min,  0.001 sec
 * total energy  :   -15.4521032 Eh     change       -0.1799750E-03 Eh
   gradient norm :     0.0037122 Eh/α   predicted    -0.1533315E-03 ( -14.80%)
   displ. norm   :     0.0397559 α      lambda       -0.4814245E-04
   maximum displ.:     0.0233258 α      in ANC's #2, #5, #1, ...

........................................................................
.............................. CYCLE    4 ..............................
........................................................................

 iter      E             dE          RMSdq      gap      omega  full diag
   1    -15.5761610 -0.155762E+02  0.365E-02   12.02       0.0  T
   2    -15.5761611 -0.154915E-06  0.221E-02   12.02       1.4  T
   3    -15.5761612 -0.247459E-07  0.207E-03   12.02      15.3  T
   4    -15.5761612 -0.131815E-07  0.788E-04   12.02      40.1  T
   5    -15.5761612 -0.861773E-09  0.299E-04   12.02     105.8  T
     SCC iter.                  ...        0 min,  0.000 sec
     gradient                   ...        0 min,  0.001 sec
 * total energy  :   -15.4521361 Eh     change       -0.3288722E-04 Eh
   gradient norm :     0.0022558 Eh/α   predicted    -0.2410813E-04 ( -26.69%)
   displ. norm   :     0.0313083 α      lambda       -0.2043153E-04
   maximum displ.:     0.0181762 α      in ANC's #5, #2, #1, ...

........................................................................
.............................. CYCLE    5 ..............................
........................................................................

 iter      E             dE          RMSdq      gap      omega  full diag
   1    -15.5760060 -0.155760E+02  0.293E-02   12.05       0.0  T
   2    -15.5760061 -0.782875E-07  0.179E-02   12.05       1.8  T
   3    -15.5760061 -0.257687E-07  0.150E-03   12.05      21.0  T
   4    -15.5760062 -0.558121E-08  0.728E-04   12.05      43.4  T
   5    -15.5760062 -0.282371E-09  0.220E-04   12.05     143.5  T
     SCC iter.                  ...        0 min,  0.000 sec
     gradient                   ...        0 min,  0.001 sec
 * total energy  :   -15.4521489 Eh     change       -0.1285395E-04 Eh
   gradient norm :     0.0016292 Eh/α   predicted    -0.1022740E-04 ( -20.43%)
   displ. norm   :     0.0259778 α      lambda       -0.5474703E-05
   maximum displ.:     0.0147109 α      in ANC's #2, #5, #3, ...

........................................................................
.............................. CYCLE    6 ..............................
........................................................................

 iter      E             dE          RMSdq      gap      omega  full diag
   1    -15.5759637 -0.155760E+02  0.202E-02   12.05       0.0  T
   2    -15.5759637 -0.408901E-07  0.125E-02   12.05       2.5  T
   3    -15.5759638 -0.193657E-07  0.955E-04   12.05      33.1  T
   4    -15.5759638 -0.103474E-08  0.448E-04   12.05      70.6  T
     SCC iter.                  ...        0 min,  0.000 sec
     gradient                   ...        0 min,  0.001 sec
 * total energy  :   -15.4521535 Eh     change       -0.4560782E-05 Eh
   gradient norm :     0.0008911 Eh/α   predicted    -0.2738471E-05 ( -39.96%)
   displ. norm   :     0.0069317 α      lambda       -0.1429472E-05
   maximum displ.:     0.0059527 α      in ANC's #2, #11, #10, ...

........................................................................
.............................. CYCLE    7 ..............................
........................................................................

 iter      E             dE          RMSdq      gap      omega  full diag
   1    -15.5761240 -0.155761E+02  0.677E-03   12.05       0.0  T
   2    -15.5761240 -0.790979E-08  0.399E-03   12.05       7.9  T
   3    -15.5761240 -0.125656E-08  0.440E-04   12.05      71.8  T
   4    -15.5761240 -0.322693E-09  0.160E-04   12.05     197.5  T
     SCC iter.                  ...        0 min,  0.000 sec
     gradient                   ...        0 min,  0.001 sec
 * total energy  :   -15.4521546 Eh     change       -0.1167590E-05 Eh
   gradient norm :     0.0001201 Eh/α   predicted    -0.7128571E-06 ( -38.95%)
   displ. norm   :     0.0039370 α      lambda       -0.9447716E-07
   maximum displ.:     0.0032456 α      in ANC's #2, #1, #9, ...

........................................................................
.............................. CYCLE    8 ..............................
........................................................................

 iter      E             dE          RMSdq      gap      omega  full diag
   1    -15.5761398 -0.155761E+02  0.228E-03   12.04       0.0  T
   2    -15.5761398 -0.616142E-09  0.136E-03   12.04      23.2  T
   3    -15.5761398 -0.222979E-09  0.139E-04   12.04     227.4  T
   4    -15.5761398 -0.174314E-10  0.446E-05   12.04     708.5  T
     SCC iter.                  ...        0 min,  0.000 sec
     gradient                   ...        0 min,  0.001 sec
 * total energy  :   -15.4521547 Eh     change       -0.8041683E-07 Eh
   gradient norm :     0.0000625 Eh/α   predicted    -0.4682637E-07 ( -41.77%)
   displ. norm   :     0.0019468 α      lambda       -0.2113633E-07
   maximum displ.:     0.0016746 α      in ANC's #1, #2, #7, ...

   *** GEOMETRY OPTIMIZATION CONVERGED AFTER 8 ITERATIONS ***

------------------------------------------------------------------------
 total energy gain   :        -0.0009471 Eh       -0.5943 kcal/mol
 total RMSD          :         0.0836213 a0        0.0443 Å
 total power (kW/mol):        -0.3108334 (step) -124.4953 (real)
------------------------------------------------------------------------

 ANCopt (total)                0 d,  0 h,  0 min,  0.020 sec
 optimizer setup                ...        0 min,  0.000 sec (  2.326%)
 model hessian                  ...        0 min,  0.001 sec (  5.448%)
 ANC generation                 ...        0 min,  0.000 sec (  0.990%)
 coordinate transformation      ...        0 min,  0.000 sec (  0.198%)
 single point calculation       ...        0 min,  0.015 sec ( 76.755%)
 optimization log               ...        0 min,  0.002 sec ( 10.664%)
 hessian update                 ...        0 min,  0.000 sec (  0.215%)
 rational function              ...        0 min,  0.000 sec (  1.801%)

================
 final structure:
================
$coord
       -1.35330460352312       -1.13638827974093        0.55645788595476      C
        1.31389406661921       -1.15921589479028       -0.56536421495968      C
        2.66702879584363        1.01934300184295        0.16058131428570      O
       -2.71675138348561        0.98917995911413       -0.25516285490743      O
       -1.22271534641600       -1.15201268741465        2.63765020959055      H
       -2.40565309541224       -2.80433462404203       -0.04966990760903      H
        1.20629651870521       -1.07981838969335       -2.62473709036834      H
        2.31032814761088       -2.88911237231908       -0.00338886896458      H
        2.91002393329741        0.99093203716133        1.96664480289436      H
       -1.54900374968153        2.39417981571692       -0.31033209834395      H
$end
 
 Bond Distances (Angstroems)
 ---------------------------
C1-C2=1.5312         C1-O4=1.4036         C1-H5=1.1035         C1-H6=1.0918         C2-C1=1.5312         C2-O3=1.4104         
C2-H7=1.0921         C2-H8=1.0975         O3-C2=1.4104         O3-H9=0.9645         O4-C1=1.4036         O4-H10=0.9672        
H5-C1=1.1035         H6-C1=1.0918         H7-C2=1.0921         H8-C2=1.0975         H9-O3=0.9645         H10-O4=0.9672        
 C  H  Rav=1.0962 sigma=0.0048  Rmin=1.0918  Rmax=1.1035     4
 C  C  Rav=1.5312 sigma=0.0000  Rmin=1.5312  Rmax=1.5312     1
 O  H  Rav=0.9658 sigma=0.0014  Rmin=0.9645  Rmax=0.9672     2
 O  C  Rav=1.4070 sigma=0.0034  Rmin=1.4036  Rmax=1.4104     2
 
 selected bond angles (degree)
 --------------------
O4-C1-C2=111.19                H5-C1-C2=109.22                H5-C1-O4=110.09                H6-C1-C2=110.48                
H6-C1-O4=107.20                H6-C1-H5=108.61                O3-C2-C1=110.85                H7-C2-C1=109.79                
H7-C2-O3=105.47                H8-C2-C1=110.14                H8-C2-O3=111.35                H8-C2-H7=109.12                
H9-O3-C2=108.96                H10-O4-C1=107.27               
 
 selected dihedral angles (degree)
 ---------------------------------
O3-C2-C1-O4= 59.72            O3-C2-C1-H5=298.03            O3-C2-C1-H6=178.63            H7-C2-C1-O4=303.59            
H7-C2-C1-H5=181.89            H7-C2-C1-H6= 62.50            H8-C2-C1-O4=183.41            H8-C2-C1-H5= 61.71            
H8-C2-C1-H6=302.31            H9-O3-C2-C1= 64.77            H9-O3-C2-H7=183.54            H9-O3-C2-H8=301.77            
H10-O4-C1-C2=322.02           H10-O4-C1-H5= 83.21           H10-O4-C1-H6=201.17           
           -------------------------------------------------
          |                Final Singlepoint                |
           -------------------------------------------------

          ...................................................
          :                      SETUP                      :
          :.................................................:
          :  # basis functions                  22          :
          :  # atomic orbitals                  22          :
          :  # shells                           14          :
          :  # electrons                        26          :
          :  max. iterations                   250          :
          :  Hamiltonian                  GFN2-xTB          :
          :  restarted?                      false          :
          :  GBSA solvation                  false          :
          :  PC potential                    false          :
          :  electronic temp.          300.0000000     K    :
          :  accuracy                    1.0000000          :
          :  -> integral cutoff          0.2500000E+02      :
          :  -> integral neglect         0.1000000E-07      :
          :  -> SCF convergence          0.1000000E-05 Eh   :
          :  -> wf. convergence          0.1000000E-03 e    :
          :  Broyden damping             0.4000000          :
          :  net charge                          0          :
          :  unpaired electrons                  0          :
          ...................................................

 iter      E             dE          RMSdq      gap      omega  full diag
   1    -15.5761398 -0.155761E+02  0.171E-05   12.04       0.0  T
   2    -15.5761398 -0.191847E-12  0.108E-05   12.04    2921.6  T
   3    -15.5761398 -0.763833E-13  0.302E-06   12.04   10467.7  T

   *** convergence criteria satisfied after 3 iterations ***

         #    Occupation            Energy/Eh            Energy/eV
      -------------------------------------------------------------
         1        2.0000           -0.7052963             -19.1921
       ...           ...                  ...                  ...
         7        2.0000           -0.5492499             -14.9459
         8        2.0000           -0.5321270             -14.4799
         9        2.0000           -0.5101830             -13.8828
        10        2.0000           -0.4798217             -13.0566
        11        2.0000           -0.4638762             -12.6227
        12        2.0000           -0.4328717             -11.7790
        13        2.0000           -0.4121698             -11.2157 (HOMO)
        14                          0.0304379               0.8283 (LUMO)
        15                          0.0768614               2.0915
        16                          0.0942613               2.5650
        17                          0.1157003               3.1484
        18                          0.1450561               3.9472
       ...                                ...                  ...
        22                          0.2585923               7.0367
      -------------------------------------------------------------
                  HL-Gap            0.4426077 Eh           12.0440 eV
             Fermi-level           -0.1908660 Eh           -5.1937 eV

 SCC (total)                   0 d,  0 h,  0 min,  0.002 sec
 SCC setup                      ...        0 min,  0.000 sec (  3.784%)
 Dispersion                     ...        0 min,  0.000 sec (  0.952%)
 classical contributions        ...        0 min,  0.000 sec (  0.426%)
 integral evaluation            ...        0 min,  0.000 sec ( 22.604%)
 iterations                     ...        0 min,  0.000 sec ( 16.602%)
 molecular gradient             ...        0 min,  0.001 sec ( 49.868%)
 printout                       ...        0 min,  0.000 sec (  4.887%)

         :::::::::::::::::::::::::::::::::::::::::::::::::::::
         ::                     SUMMARY                     ::
         :::::::::::::::::::::::::::::::::::::::::::::::::::::
         :: total energy             -15.452154713336 Eh    ::
         :: gradient norm              0.000062509489 Eh/a0 ::
         :: HOMO-LUMO gap             12.043968821983 eV    ::
         ::.................................................::
         :: SCC energy               -15.576138579856 Eh    ::
         :: -> isotropic ES            0.047742654550 Eh    ::
         :: -> anisotropic ES          0.001842479769 Eh    ::
         :: -> anisotropic XC         -0.001208298435 Eh    ::
         :: -> dispersion             -0.003690798853 Eh    ::
         :: repulsion energy           0.123983866520 Eh    ::
         :: add. restraining           0.000000000000 Eh    ::
         :: total charge               0.000000000000 e     ::
         :::::::::::::::::::::::::::::::::::::::::::::::::::::

           ------------------------------------------------- 
          |                Numerical Hessian                |
           ------------------------------------------------- 
step length          :   0.00500
SCC accuracy         :   0.30000
Hessian scale factor :   1.00000
frozen atoms in %    :   0.00000    0
RMS gradient         :   0.00006
estimated CPU  time      0.00 min
estimated wall time      0.00 min

writing file <hessian>.

 projected vibrational frequencies (cm⁻¹)
eigval :       -0.00    -0.00    -0.00    -0.00    -0.00     0.00
eigval :      115.32   305.82   344.61   405.33   530.42   883.95
eigval :      912.68  1027.57  1070.89  1109.32  1159.29  1182.23
eigval :     1298.89  1305.31  1331.38  1352.21  1461.81  1477.84
eigval :     2836.58  2904.87  2986.83  2996.15  3487.09  3532.89
           -------------------------------------------------
          |                Property Printout                |
           -------------------------------------------------

    * Orbital Energies and Occupations

         #    Occupation            Energy/Eh            Energy/eV
      -------------------------------------------------------------
         1        2.0000           -0.7052963             -19.1921
         2        2.0000           -0.6899488             -18.7745
         3        2.0000           -0.6432326             -17.5032
         4        2.0000           -0.6181726             -16.8213
         5        2.0000           -0.5844397             -15.9034
         6        2.0000           -0.5637650             -15.3408
         7        2.0000           -0.5492499             -14.9459
         8        2.0000           -0.5321270             -14.4799
         9        2.0000           -0.5101830             -13.8828
        10        2.0000           -0.4798218             -13.0566
        11        2.0000           -0.4638762             -12.6227
        12        2.0000           -0.4328717             -11.7790
        13        2.0000           -0.4121699             -11.2157 (HOMO)
        14                          0.0304379               0.8283 (LUMO)
        15                          0.0768614               2.0915
        16                          0.0942613               2.5650
        17                          0.1157003               3.1484
        18                          0.1450561               3.9472
        19                          0.1635286               4.4498
        20                          0.2006303               5.4594
        21                          0.2368888               6.4461
        22                          0.2585923               7.0367
      -------------------------------------------------------------
                  HL-Gap            0.4426077 Eh           12.0440 eV
             Fermi-level           -0.1908660 Eh           -5.1937 eV

     #   Z          covCN         q      C6AA      α(0)
     1   6 C        3.672     0.069    19.648     6.353
     2   6 C        3.673     0.064    19.729     6.366
     3   8 O        1.655    -0.440    21.649     6.281
     4   8 O        1.655    -0.440    21.641     6.280
     5   1 H        0.923     0.020     2.729     2.584
     6   1 H        0.924     0.048     2.347     2.396
     7   1 H        0.924     0.063     2.163     2.300
     8   1 H        0.924     0.023     2.693     2.566
     9   1 H        0.805     0.289     0.755     1.365
    10   1 H        0.805     0.304     0.710     1.323

 Mol. C6AA /au·bohr⁶  :        681.601234
 Mol. C8AA /au·bohr⁸  :      13702.652089
 Mol. α(0) /au        :         37.812951


Wiberg/Mayer (AO) data.
largest (>0.10) Wiberg bond orders for each atom

 ---------------------------------------------------------------------------
     #   Z sym  total        # sym  WBO       # sym  WBO       # sym  WBO
 ---------------------------------------------------------------------------
     1   6 C    3.964 --     4 O    1.010     2 C    0.989     6 H    0.972
                             5 H    0.966
     2   6 C    3.955 --     3 O    1.000     1 C    0.989     8 H    0.971
                             7 H    0.971
     3   8 O    1.968 --     2 C    1.000     9 H    0.901
     4   8 O    1.958 --     1 C    1.010    10 H    0.887
     5   1 H    1.000 --     1 C    0.966
     6   1 H    0.998 --     1 C    0.972
     7   1 H    0.996 --     2 C    0.971
     8   1 H    0.999 --     2 C    0.971
     9   1 H    0.916 --     3 O    0.901
    10   1 H    0.908 --     4 O    0.887
 ---------------------------------------------------------------------------

Topologies differ in total number of bonds
Writing topology from bond orders to xtbtopo.mol

molecular dipole:
                 x           y           z       tot (Debye)
 q only:        0.371      -0.315       0.403
   full:        0.553      -0.415       0.637       2.391
molecular quadrupole (traceless):
                xx          xy          yy          xz          yz          zz
 q only:       -4.297      -0.273       2.339       1.421       0.749       1.958
  q+dip:       -6.024      -0.488       2.143       1.868       0.968       3.881
   full:       -6.000      -0.356       2.634       2.018       0.948       3.367

           -------------------------------------------------
          |                Geometry Summary                 |
           -------------------------------------------------

      molecular mass/u    :       62.0679261
   center of mass at/Å    :       -0.0000826      -0.0001103       0.0000749
  moments of inertia/u·Å² :        0.3262798E+02   0.9149388E+02   0.1090190E+03
rotational constants/cm⁻¹ :        0.5166618E+00   0.1842487E+00   0.1546303E+00

 * 9 selected distances

     #   Z          #   Z                                           value/Å
     1   6 C        2   6 C                                       1.5312304 (max)
     2   6 C        3   8 O                                       1.4104425
     1   6 C        4   8 O                                       1.4036426
     1   6 C        5   1 H                                       1.1035166
     1   6 C        6   1 H                                       1.0918087
     2   6 C        7   1 H                                       1.0920683
     2   6 C        8   1 H                                       1.0974834
     3   8 O        9   1 H                                       0.9644565 (min)
     4   8 O       10   1 H                                       0.9672085

 * 4 distinct bonds (by element types)

   Z      Z             #   av. dist./Å        max./Å        min./Å
   1 H    6 C           4     1.0962192     1.1035166     1.0918087
   6 C    6 C           1     1.5312304     1.5312304     1.5312304
   1 H    8 O           2     0.9658325     0.9672085     0.9644565
   6 C    8 O           2     1.4070426     1.4104425     1.4036426

           -------------------------------------------------
          |               Frequency Printout                |
           -------------------------------------------------
 projected vibrational frequencies (cm⁻¹)
eigval :       -0.00    -0.00    -0.00    -0.00    -0.00     0.00
eigval :      115.32   305.82   344.61   405.33   530.42   883.95
eigval :      912.68  1027.57  1070.89  1109.32  1159.29  1182.23
eigval :     1298.89  1305.31  1331.38  1352.21  1461.81  1477.84
eigval :     2836.58  2904.87  2986.83  2996.15  3487.09  3532.89
 reduced masses (amu)
   1: 11.85   2: 13.32   3: 12.06   4: 11.71   5: 12.96   6: 12.82   7: 11.08   8:  9.31
   9:  2.58  10:  2.74  11:  8.90  12:  6.18  13:  8.78  14:  5.05  15:  9.97  16: 10.60
  17:  4.48  18:  3.62  19:  3.22  20:  2.95  21:  3.63  22:  4.08  23:  1.83  24:  1.86
  25:  1.72  26:  1.73  27:  1.70  28:  1.72  29:  1.87  30:  1.87
 IR intensities (km·mol⁻¹)
   1:  4.29   2:  1.31   3:  0.25   4:  0.66   5:  0.28   6:  1.38   7:  3.69   8: 27.58
   9:106.41  10:198.28  11: 31.99  12: 16.66  13: 12.43  14: 40.14  15: 66.73  16: 89.56
  17:  8.56  18: 34.12  19:  8.47  20: 30.58  21: 61.79  22: 70.31  23:  1.81  24:  1.70
  25: 79.59  26: 66.20  27: 28.49  28: 24.29  29: 28.23  30:  8.10
 Raman intensities (Ä⁴*amu⁻¹)
   1:  0.00   2:  0.00   3:  0.00   4:  0.00   5:  0.00   6:  0.00   7:  0.00   8:  0.00
   9:  0.00  10:  0.00  11:  0.00  12:  0.00  13:  0.00  14:  0.00  15:  0.00  16:  0.00
  17:  0.00  18:  0.00  19:  0.00  20:  0.00  21:  0.00  22:  0.00  23:  0.00  24:  0.00
  25:  0.00  26:  0.00  27:  0.00  28:  0.00  29:  0.00  30:  0.00
 output can be read by thermo (or use thermo option).
 writing <g98.out> molden fake output.
 recommended (thermochemical) frequency scaling factor: 1.0
           -------------------------------------------------
          |             Thermodynamic Functions             |
           -------------------------------------------------

Molecule has no symmetry elements
It seems to be the C1 point group
c1  symmetry found (for desy threshold:  0.10E+00) used in thermo

          ...................................................
          :                      SETUP                      :
          :.................................................:
          :  # frequencies                          24      :
          :  # imaginary freq.                       0      :
          :  linear?                             false      :
          :  only rotor calc.                    false      :
          :  symmetry                               c1      :
          :  rotational number                       1      :
          :  scaling factor                  1.0000000      :
          :  rotor cutoff                    0.0000000 cm⁻¹ :
          :  imag. cutoff                 -100.0000000 cm⁻¹ :
          :.................................................:

    mode    ω/cm⁻¹     T·S(HO)/kcal·mol⁻¹    T·S(FR)/kcal·mol⁻¹   T·S(vib)
   ------------------------------------------------------------------------
       1    115.32    -0.94731 (100.00%)    -0.80842 (  0.00%)    -0.94731
   ------------------------------------------------------------------------

   temp. (K)  partition function   enthalpy   heat capacity  entropy
                                   cal/mol     cal/K/mol   cal/K/mol   J/K/mol
 298.15  VIB   5.02                 1428.622     10.928      7.998
         ROT  0.436E+05              888.752      2.981     24.209
         INT  0.219E+06             2317.374     13.909     32.208
         TR   0.473E+27             1481.254      4.968     38.279
         TOT                        3798.6281    18.8768    70.4868   294.9169

       T/K    H(0)-H(T)+PV         H(T)/Eh          T*S/Eh         G(T)/Eh
   ------------------------------------------------------------------------
    298.15    0.605350E-02    0.881114E-01    0.334906E-01    0.546209E-01
   ------------------------------------------------------------------------

         :::::::::::::::::::::::::::::::::::::::::::::::::::::
         ::                  THERMODYNAMIC                  ::
         :::::::::::::::::::::::::::::::::::::::::::::::::::::
         :: total free energy         -15.397533833096 Eh   ::
         ::.................................................::
         :: total energy              -15.452154713336 Eh   ::
         :: zero point energy           0.082057949671 Eh   ::
         :: G(RRHO) w/o ZPVE           -0.027437069431 Eh   ::
         :: G(RRHO) contrib.            0.054620880240 Eh   ::
         :::::::::::::::::::::::::::::::::::::::::::::::::::::

optimized geometry written to: xtbopt.coord


           -------------------------------------------------
          | TOTAL ENERGY              -15.452154713336 Eh   |
          | TOTAL ENTHALPY            -15.364043264507 Eh   |
          | TOTAL FREE ENERGY         -15.397533833096 Eh   |
          | GRADIENT NORM               0.000062506079 Eh/α |
          | HOMO-LUMO GAP              12.043969340002 eV   |
           -------------------------------------------------

------------------------------------------------------------------------
 * finished run on 2025/04/15 at 19:51:26.872     
------------------------------------------------------------------------
 total:
 * wall-time:     0 d,  0 h,  0 min,  0.600 sec
 *  cpu-time:     0 d,  0 h,  0 min,  0.159 sec
 * ratio c/w:     0.264 speedup
 SCF:
 * wall-time:     0 d,  0 h,  0 min,  0.012 sec
 *  cpu-time:     0 d,  0 h,  0 min,  0.010 sec
 * ratio c/w:     0.868 speedup
 ANC optimizer:
 * wall-time:     0 d,  0 h,  0 min,  0.025 sec
 *  cpu-time:     0 d,  0 h,  0 min,  0.021 sec
 * ratio c/w:     0.856 speedup
 analytical hessian:
 * wall-time:     0 d,  0 h,  0 min,  0.117 sec
 *  cpu-time:     0 d,  0 h,  0 min,  0.115 sec
 * ratio c/w:     0.984 speedup

