24
 energy: -43.356780207705 gnorm: 0.044086746318 xtb: 6.7.1 (edcfbbe)
C           -2.36986120843041       -1.23140910549885       -0.26680420533851
C           -1.07203324526271       -0.63716805945645        0.26110760936764
H           -1.09834900114358       -0.61120842711219        1.36547759373354
C           -0.79593953264462        0.78131479368110       -0.25686362586491
H           -0.84853018331863        0.77269275486285       -1.36017656602731
C            0.60294134581376        1.19451192203610        0.17223327868537
H            0.60996284599547        1.25601043513549        1.27552529824146
C            1.65607922972763        0.18223794988622       -0.25505867995834
H            1.69358572526757        0.12438711623847       -1.35595182220013
C            1.25435870795114       -1.19163235049270        0.26805298716104
H            1.23779283820273       -1.18095691959289        1.37567019547352
O           -0.05790873011688       -1.52129539253334       -0.21057071209168
O            2.13817137362981       -2.13509030923779       -0.23143270819704
O            2.92284193065968        0.51742156928095        0.28954334921856
O            0.98212775956631        2.44914783297373       -0.38843808399318
O           -1.67484966985559        1.75783143360603        0.29379114880861
O           -3.45267342995166       -0.39202668019527        0.16174792717588
H           -2.48142641610905       -2.25169625745940        0.12526589984134
H           -2.31207751475080       -1.27960902007256       -1.36415000963886
H            1.93971495519926       -2.98629806101852        0.18184193058702
H            3.05407026108907        1.45747183223616        0.11201012210641
H            0.30991844786221        3.08910926552004       -0.12282048110313
H           -2.57728809023931        1.42362593269184        0.19120768129189
H           -4.26515567192432       -0.71128544400434       -0.24358685353045
24
 energy: -43.358893164105 gnorm: 0.020088392360 xtb: 6.7.1 (edcfbbe)
C           -2.37403502219861       -1.21580101184992       -0.26845883869716
C           -1.06341154525238       -0.63816307643408        0.26103528968758
H           -1.09122062426300       -0.60830403721725        1.36236066400277
C           -0.78958669477808        0.78325994069572       -0.25512033027903
H           -0.84962681158783        0.77842420072026       -1.35548829683823
C            0.61331969108445        1.20504969646204        0.17630007267011
H            0.61796858584606        1.27987177868128        1.27697980692594
C            1.66332806713753        0.18189714645275       -0.24738252530853
H            1.71302882564342        0.13060029661858       -1.34507734488799
C            1.25780980972648       -1.19780345066951        0.26921753529817
H            1.25439227954123       -1.18361938209421        1.37569221454284
O           -0.05443184793964       -1.52888053827116       -0.18393475181972
O            2.12778259704247       -2.14371168556360       -0.23135793610459
O            2.91776728950265        0.52096154769705        0.29328019255403
O            0.97892033929259        2.45339588761889       -0.38115807187734
O           -1.67651097883803        1.74419612114713        0.28402201249920
O           -3.45651638519792       -0.38914397909536        0.14262971807264
H           -2.49320472329916       -2.23162555713535        0.12568912110472
H           -2.31912594349378       -1.26947147078991       -1.36227575609283
H            1.92105681995186       -2.99972144133445        0.16358980024239
H            3.05354392395069        1.45764427796691        0.09863450515229
H            0.28754440991870        3.08248745498239       -0.13984032169745
H           -2.57476177425718        1.39151808121584        0.20763840084051
H           -4.26855756031544       -0.72697398832935       -0.24935388624159
24
 energy: -43.359687651287 gnorm: 0.005788851325 xtb: 6.7.1 (edcfbbe)
C           -2.37542690347109       -1.20556838191005       -0.27311308027003
C           -1.05876132670402       -0.63695355141928        0.26510230323040
H           -1.09629122827402       -0.59974074348997        1.36561884772104
C           -0.78803971622505        0.78567794911540       -0.25393283632813
H           -0.84209029457886        0.78123672184906       -1.35389351839540
C            0.61813429937259        1.21456946155148        0.17961353551576
H            0.62062665051649        1.29435297782328        1.27937483265244
C            1.67019687589996        0.18483319207719       -0.23818654986558
H            1.72662730743542        0.13832496912973       -1.33496131558484
C            1.25644233794058       -1.19875483915678        0.27549250200271
H            1.27360862632980       -1.18047317831334        1.38376134311298
O           -0.05483151399123       -1.53219969135380       -0.15530678892369
O            2.11362365042417       -2.14245532088987       -0.23537277577938
O            2.91434876412141        0.51933108830317        0.30629985361620
O            0.97804026479801        2.45347262896733       -0.37933960780111
O           -1.68173755719056        1.73288917794128        0.27550839032601
O           -3.45170172559039       -0.38186809642846        0.12377962491336
H           -2.49617214454921       -2.22055563454084        0.12200429113310
H           -2.30898556310761       -1.26107247468133       -1.36541569421819
H            1.89166309801818       -3.00932093241182        0.12680354409803
H            3.06546179867881        1.45009614041506        0.09025774672968
H            0.26279808665919        3.07214610252278       -0.17641669515540
H           -2.57502697891055        1.35658733386496        0.23639620151242
H           -4.26703408038493       -0.73846808749049       -0.24645288049369
24
 energy: -43.359899345557 gnorm: 0.007627349067 xtb: 6.7.1 (edcfbbe)
C           -2.37394890395197       -1.20322694045922       -0.27523169190982
C           -1.05849625672258       -0.63429750683383        0.27024528124666
H           -1.10597427951155       -0.58968784154704        1.37112603753737
C           -0.78766537039434        0.78695716835058       -0.25238516339023
H           -0.83378839935963        0.77771818579746       -1.35351199582891
C            0.61827502573202        1.21968188326990        0.18219128560792
H            0.62025010070069        1.30026407575251        1.28244924599048
C            1.67181860797190        0.18747902018194       -0.23182137185279
H            1.72943766942940        0.14187968108832       -1.32906057297816
C            1.25648240260286       -1.19795562588084        0.28051037512239
H            1.28636011891940       -1.17958516818348        1.39009487186064
O           -0.05562947897332       -1.53202383614773       -0.13904305784238
O            2.10841554759611       -2.13951904069271       -0.24120446372187
O            2.91318615151526        0.51666060944715        0.31887928560344
O            0.97646012548331        2.45444750164433       -0.38266074428274
O           -1.68501860467163        1.73202741681615        0.26967767683818
O           -3.44980841514687       -0.37939342504761        0.11567927065415
H           -2.49416183421855       -2.21979116671141        0.11730463190273
H           -2.29703434549046       -1.25857805329733       -1.36771279098397
H            1.87033475289274       -3.01412846409607        0.09445308324697
H            3.07742248478085        1.44263130010326        0.09129018993108
H            0.24943298327882        3.06752717851967       -0.20417359899494
H           -2.57393969591233        1.34241955914272        0.25189314289116
H           -4.26693765933306       -0.74541969974205       -0.24136765289866
24
 energy: -43.360064229912 gnorm: 0.007518079793 xtb: 6.7.1 (edcfbbe)
C           -2.37071519398452       -1.20244910586987       -0.27659785395417
C           -1.05984232011389       -0.63026286952414        0.27825016646774
H           -1.11957793328770       -0.57726169273262        1.37945521142348
C           -0.78663558937877        0.78743498467300       -0.25081550215355
H           -0.82256925566710        0.77011127040302       -1.35361204020039
C            0.61716393523325        1.22426998370000        0.18570147142782
H            0.61904702429597        1.30774889474981        1.28647030813048
C            1.67267255303900        0.19090683396880       -0.22330807456898
H            1.73299368611690        0.14643276819302       -1.32111876661952
C            1.25737087523439       -1.19607330510099        0.28681326072262
H            1.30268715340879       -1.18168998806874        1.39720339401189
O           -0.05698085201139       -1.53144785402314       -0.12003550214447
O            2.10432103412017       -2.13495484021433       -0.25043723109520
O            2.91231003240605        0.51398779857860        0.33680581972370
O            0.97391132683812        2.45592534527273       -0.38766602635121
O           -1.68894064187031        1.73475180233388        0.25907956021471
O           -3.44905909823882       -0.37989099934157        0.11094244614726
H           -2.48971827870740       -2.22165576957841        0.11067585532557
H           -2.28392470786376       -1.25487062109347       -1.36966331613472
H            1.84100079137357       -3.01706812657867        0.04957890234758
H            3.09357299213766        1.43324344649941        0.09658632680044
H            0.23556838705073        3.06188448755841       -0.23695427549131
H           -2.57153314676156        1.33281936082781        0.26139269374153
H           -4.26765004615230       -0.75580499315787       -0.23112555402259
24
 energy: -43.360143050046 gnorm: 0.004734287155 xtb: 6.7.1 (edcfbbe)
C           -2.36855379501490       -1.20235014658337       -0.27636485941231
C           -1.06123389659928       -0.62761954174854        0.28268719874538
H           -1.12661611695241       -0.57093455366749        1.38349770250983
C           -0.78492548670876        0.78679191456152       -0.25144611321081
H           -0.81555320104856        0.76356552237230       -1.35477025989142
C            0.61622788274910        1.22592966842636        0.18774670937236
H            0.61707943051230        1.31312041586775        1.28834772007025
C            1.67306208284606        0.19285252183066       -0.21710457324675
H            1.73823498742010        0.14988634632449       -1.31481225334048
C            1.25862073818368       -1.19490687584149        0.28995025441036
H            1.31288621767665       -1.18601834917947        1.39986715278155
O           -0.05756099580752       -1.53136866492722       -0.11002706149227
O            2.10257619122474       -2.13276603337767       -0.25741923371889
O            2.91146778735716        0.51347304892997        0.35014648446747
O            0.97261811217823        2.45720908581985       -0.38964877139383
O           -1.69074648504126        1.73813089528678        0.24837629234942
O           -3.44980934964045       -0.38271176458838        0.11325579135182
H           -2.48576415516159       -2.22334469115036        0.10661967159032
H           -2.28042899332329       -1.25032626473032       -1.36976987155609
H            1.82140080939882       -3.01569317237437        0.02095401867039
H            3.10282328350733        1.42809765380905        0.10290813134024
H            0.22818127366538        3.05775803822768       -0.25490561636745
H           -2.56961305358134        1.33167476938421        0.25944072232578
H           -4.26890054062312       -0.76436301119729       -0.21990796260618
24
 energy: -43.360195834853 gnorm: 0.002260186499 xtb: 6.7.1 (edcfbbe)
C           -2.36720229018812       -1.20172804797555       -0.27512270852721
C           -1.06190454173703       -0.62540333672843        0.28444427454408
H           -1.12898464524569       -0.56684490052097        1.38441792884526
C           -0.78244748156443        0.78572539987491       -0.25473862115283
H           -0.80963553649898        0.75723287390074       -1.35780362310468
C            0.61562534987652        1.22662317633240        0.18897197284734
H            0.61326005390199        1.31804720510276        1.28894668580036
C            1.67423308860672        0.19434760364890       -0.21046449301252
H            1.74731150684802        0.15340692732296       -1.30753883874285
C            1.26031495803869       -1.19424590103378        0.29197300443063
H            1.32012423170224       -1.19225851667089        1.40074130306909
O           -0.05700190474410       -1.53125111743552       -0.10456893463953
O            2.10170145213694       -2.13181273719658       -0.26309046800082
O            2.91020636045221        0.51463210900839        0.36439947927333
O            0.97239333240348        2.45856030877499       -0.38949107061332
O           -1.69158370823473        1.74129580281678        0.23489560048495
O           -3.45091475194572       -0.38659226187074        0.12071985771573
H           -2.48135579907198       -2.22417061357768        0.10396752513668
H           -2.28339327413356       -1.24405365108664       -1.36879952391991
H            1.80266005237102       -3.01331371253538       -0.00426580818911
H            3.10900923145731        1.42526747475059        0.11089431466051
H            0.22185147480372        3.05342814119898       -0.26855520897964
H           -2.56843044440662        1.33258603900735        0.25245421815987
H           -4.27036398761083       -0.77339145363294       -0.20476559233670
24
 energy: -43.360219910232 gnorm: 0.002058284560 xtb: 6.7.1 (edcfbbe)
C           -2.36710904461430       -1.20110881666807       -0.27337067796272
C           -1.06143501920990       -0.62431668271323        0.28347603186491
H           -1.12693076181649       -0.56485043244395        1.38292322694193
C           -0.78062108764650        0.78490969895531       -0.25897384042472
H           -0.80545663346775        0.75327930614817       -1.36156189033109
C            0.61537619985951        1.22689972405462        0.18905679407286
H            0.60907919873694        1.32057756713229        1.28852715157377
C            1.67594512151573        0.19528296604819       -0.20559425137802
H            1.75590884805674        0.15576456495612       -1.30200173739316
C            1.26148933183648       -1.19415694668262        0.29274029195985
H            1.32219895566634       -1.19681931313148        1.40077869219778
O           -0.05575668197115       -1.53086085085626       -0.10451841390055
O            2.10176238037565       -2.13165512424140       -0.26534042926475
O            2.90897034061306        0.51655968752494        0.37534340772388
O            0.97285510614833        2.45934349939873       -0.38868645502910
O           -1.69189652484844        1.74251395777642        0.22396891085321
O           -3.45121953130732       -0.38949603589791        0.12967050857549
H           -2.47805453109963       -2.22451847843080        0.10332669992316
H           -2.28936362973045       -1.23921095397214       -1.36735039265992
H            1.78964182947022       -3.01229942719280       -0.02098931916239
H            3.11095334074895        1.42522644839274        0.11817059976182
H            0.21873232263026        3.05071808924825       -0.27530534690459
H           -2.56855757354972        1.33336171421964        0.24468311280172
H           -4.27103922917949       -0.77905735015013       -0.19135140009063
24
 energy: -43.360235292298 gnorm: 0.001716146081 xtb: 6.7.1 (edcfbbe)
C           -2.36773842865068       -1.20080532992274       -0.27145001434333
C           -1.06045713282111       -0.62404382314656        0.28134917755732
H           -1.12296668557518       -0.56409907513286        1.38069542093635
C           -0.77957381194769        0.78430319198736       -0.26301325486571
H           -0.80219622181121        0.75071206040783       -1.36528470486848
C            0.61519248244517        1.22697593430595        0.18848743127837
H            0.60530570914440        1.32121075020743        1.28772655499590
C            1.67758438118941        0.19583310610358       -0.20256935888951
H            1.76251281873002        0.15724778450271       -1.29847381981960
C            1.26197602714481       -1.19441194010431        0.29251473544870
H            1.32084011475108       -1.19943429536808        1.40042630892293
O           -0.05459645174544       -1.53033140359904       -0.10772288156608
O            2.10236458708556       -2.13185956430272       -0.26555164944724
O            2.90784347198218        0.51826572545380        0.38316353192444
O            0.97363316942638        2.45957129477172       -0.38814456610645
O           -1.69196791588896        1.74260772270821        0.21583853156705
O           -3.45097645943938       -0.39165576786592        0.13881209149062
H           -2.47570070288644       -2.22510067455611        0.10343746465855
H           -2.29588280182260       -1.23578329873365       -1.36581888101085
H            1.78210583990114       -3.01163593881783       -0.03116954411519
H            3.11032953212087        1.42652468646219        0.12518384029595
H            0.21831948040017        3.04961561023520       -0.27767147335217
H           -2.56928318403748        1.33410081832848        0.23722228724786
H           -4.27119509047797       -0.78172076244999       -0.18036595419066
24
 energy: -43.360251055603 gnorm: 0.001283138200 xtb: 6.7.1 (edcfbbe)
C           -2.36881816911602       -1.20062520241670       -0.26840783011137
C           -1.05850711852152       -0.62395220249559        0.27782187091912
H           -1.11649288252478       -0.56320847918927        1.37743804422631
C           -0.77851761908783        0.78373845178637       -0.26870582764507
H           -0.79701295026426        0.74710399287306       -1.37089990079542
C            0.61493795472263        1.22753934552240        0.18732540326718
H            0.60018244671415        1.32182846175176        1.28650930054286
C            1.68003893967168        0.19672016858480       -0.19873596719580
H            1.77092741445291        0.15930236094348       -1.29413423170423
C            1.26212311608442       -1.19481990702624        0.29201491482593
H            1.31616431902588       -1.20190893679568        1.40041556327340
O           -0.05295745470062       -1.52912627328545       -0.11409180553833
O            2.10399036515044       -2.13173993380486       -0.26417183213241
O            2.90629029997592        0.52005289082633        0.39388129370069
O            0.97502123303002        2.45960671544762       -0.38833917661997
O           -1.69231261547708        1.74227329365099        0.20478386124128
O           -3.44997144832973       -0.39460965388530        0.15257435859376
H           -2.47233504211446       -2.22642578815269        0.10374642510892
H           -2.30498665245102       -1.23166395897771       -1.36344379239807
H            1.77199026259938       -3.01194960181538       -0.04649782666342
H            3.10869856406786        1.42882596142507        0.13706506158560
H            0.21877862110440        3.04944030464404       -0.28102473415028
H           -2.57043924719529        1.33400154988632        0.22697290206443
H           -4.27131960960002       -0.78431674802274       -0.16447480064633
24
 energy: -43.360256594996 gnorm: 0.001487860664 xtb: 6.7.1 (edcfbbe)
C           -2.36974232236516       -1.20101641592275       -0.26634871633335
C           -1.05755431781020       -0.62413494295094        0.27525636844312
H           -1.11256630214292       -0.56318875723707        1.37523563158446
C           -0.77824196692792        0.78344731618089       -0.27219774540867
H           -0.79379492664612        0.74486774724846       -1.37463458603385
C            0.61454292644951        1.22775486837717        0.18601230792868
H            0.59769415289172        1.32162669413537        1.28535853029399
C            1.68089839997739        0.19707349545718       -0.19780947372258
H            1.77446984232128        0.16074996567747       -1.29313349778951
C            1.26129007331597       -1.19519278992303        0.29034595572974
H            1.31126933828427       -1.20241590288507        1.39938683030579
O           -0.05283169674414       -1.52844410132218       -0.11984160567635
O            2.10513194180282       -2.13164342070171       -0.26340565434704
O            2.90522448157284        0.51962801585884        0.39924014697426
O            0.97602133422713        2.45934123701281       -0.38944692464507
O           -1.69284847255606        1.74221068787619        0.19826906075643
O           -3.44907542102611       -0.39625623763137        0.16160105661785
H           -2.47056305921954       -2.22773981957189        0.10435939954865
H           -2.31068350138246       -1.23021557293099       -1.36181768817815
H            1.77101464471186       -3.01073332760952       -0.05209444374286
H            3.10663937314217        1.43005224393589        0.14769791556049
H            0.22189705543296        3.05101239575569       -0.28037971584137
H           -2.57084595271331        1.33366943533431        0.22003579974481
H           -4.27187289737892       -0.78436600268914       -0.15406767802069
24
 energy: -43.360259498754 gnorm: 0.001119333453 xtb: 6.7.1 (edcfbbe)
C           -2.36970598305971       -1.20103682224440       -0.26525476160290
C           -1.05690911066819       -0.62373103297322        0.27448330044199
H           -1.11148244727160       -0.56197873242085        1.37460239399052
C           -0.77765439591213        0.78336033227132       -0.27431870235023
H           -0.79068154179842        0.74255093594133       -1.37699262540842
C            0.61436629120639        1.22870601392467        0.18546179494555
H            0.59620182146315        1.32371152594970        1.28483317138289
C            1.68163089260127        0.19778924488785       -0.19576334649325
H            1.77778120818143        0.16231305141540       -1.29103265824166
C            1.26095342256162       -1.19499523048839        0.29054785212285
H            1.30943395953773       -1.20323159164590        1.39993413244303
O           -0.05256314258326       -1.52780301786442       -0.12108850536661
O            2.10600116203715       -2.13059011301709       -0.26288575922318
O            2.90451336289704        0.51895225103802        0.40497156013457
O            0.97652418806598        2.45947246223232       -0.39112700272337
O           -1.69375727522291        1.74248124529576        0.19243254961488
O           -3.44835900678535       -0.39749357375796        0.16624172045359
H           -2.46882905092637       -2.22841240040608        0.10427208176222
H           -2.31282642512988       -1.22901362937977       -1.36092177158278
H            1.76464062654136       -3.01159595477541       -0.06358972620095
H            3.10732457213607        1.42993175803209        0.15570725023239
H            0.22169307047467        3.05171178405523       -0.28502976583268
H           -2.57032731487980        1.33103245090240        0.21801859386708
H           -4.27249615624920       -0.78604414549796       -0.14588050261673
24
 energy: -43.360260620622 gnorm: 0.000406603157 xtb: 6.7.1 (edcfbbe)
C           -2.36983546801757       -1.20089647796598       -0.26543631100248
C           -1.05702560933240       -0.62372540604379        0.27426992903612
H           -1.11142016376860       -0.56201587425223        1.37431881803658
C           -0.77758630137859        0.78329160613973       -0.27453642407648
H           -0.79106475732942        0.74284990613182       -1.37706030935215
C            0.61438987324170        1.22855077106134        0.18521233477576
H            0.59616067278742        1.32388793446022        1.28449835593796
C            1.68152266695532        0.19763296609551       -0.19592217741044
H            1.77803167121179        0.16222624669813       -1.29110687578473
C            1.26090964245939       -1.19506508566129        0.29036590139685
H            1.30965195423595       -1.20334557351347        1.39960767412998
O           -0.05262589819925       -1.52800333155599       -0.12109924752696
O            2.10588715311557       -2.13073573721915       -0.26307902091421
O            2.90440570177763        0.51880279489953        0.40475457967078
O            0.97659331009509        2.45939584408688       -0.39134080779197
O           -1.69377488615097        1.74237206467513        0.19247664230956
O           -3.44852012028419       -0.39716131429881        0.16564918246850
H           -2.46916884863447       -2.22805971317344        0.10449501629949
H           -2.31306662439225       -1.22918878583197       -1.36106197613191
H            1.76581874311341       -3.01118471097942       -0.06234104513612
H            3.10687938719827        1.43004845114848        0.15616529197889
H            0.22197506051839        3.05178132248489       -0.28461066748629
H           -2.57000607345575        1.33050213923568        0.21926702015622
H           -4.27265835854942       -0.78587322514716       -0.14586460983416
24
 energy: -43.360261082153 gnorm: 0.000319127803 xtb: 6.7.1 (edcfbbe)
C           -2.36996660581897       -1.20086730341384       -0.26542045253506
C           -1.05699717066059       -0.62362968158689        0.27367154418290
H           -1.11095981454220       -0.56180007679997        1.37368898582509
C           -0.77749116851708        0.78321032971883       -0.27540871106427
H           -0.79092560569700        0.74276806758797       -1.37783603498568
C            0.61432778712650        1.22850066546188        0.18461652730143
H            0.59569827520674        1.32439079310407        1.28380816330822
C            1.68163221689217        0.19759106403186       -0.19571072211459
H            1.77913774600991        0.16222234183052       -1.29076886006626
C            1.26083214549772       -1.19511046010201        0.29023613557244
H            1.30931721592221       -1.20365670748730        1.39940649199663
O           -0.05256797655019       -1.52806767400121       -0.12163827615298
O            2.10603075150102       -2.13074781000715       -0.26300332968588
O            2.90409439789881        0.51886729503954        0.40585395656993
O            0.97677377019838        2.45923802114992       -0.39221861340376
O           -1.69398943791064        1.74238701184986        0.19124440230835
O           -3.44846076308563       -0.39707269715886        0.16617138883290
H           -2.46915216378737       -2.22794621053808        0.10473749192950
H           -2.31388652752256       -1.22922359984467       -1.36105783020359
H            1.76544714012407       -3.01103185536278       -0.06327875924048
H            3.10605948880481        1.43054588979627        0.15844334511773
H            0.22295798614918        3.05203107314827       -0.28439444158164
H           -2.56958629878388        1.32976504397287        0.22028675590657
H           -4.27285266123836       -0.78627670891448       -0.14380788406872
24
 energy: -43.360261207189 gnorm: 0.000280314638 xtb: 6.7.1 (edcfbbe)
C           -2.37004822508212       -1.20080785098309       -0.26544070267925
C           -1.05694059673984       -0.62349753417860        0.27322852946850
H           -1.11068448031108       -0.56156166263055        1.37325904908534
C           -0.77739156642077        0.78323664865822       -0.27605338899607
H           -0.79065802459532        0.74277280095707       -1.37847924198953
C            0.61434419687627        1.22854180540732        0.18430537683872
H            0.59522681760084        1.32470091089756        1.28346328648719
C            1.68180521556136        0.19758768642895       -0.19541151595252
H            1.78000978872545        0.16227805404676       -1.29040742039777
C            1.26076708321565       -1.19520415883308        0.29012983986794
H            1.30904661861209       -1.20396514273073        1.39931975278789
O           -0.05255640014170       -1.52799888607087       -0.12206756102357
O            2.10600440758729       -2.13084416196133       -0.26312262834672
O            2.90389124478643        0.51892957677648        0.40693377945455
O            0.97717256296600        2.45913245244779       -0.39264068644342
O           -1.69402200953208        1.74247274803531        0.19034917180304
O           -3.44839635417414       -0.39710196466401        0.16670825524573
H           -2.46905726149536       -2.22790885889466        0.10469839699410
H           -2.31443752993843       -1.22908354255168       -1.36109567447709
H            1.76496726043500       -3.01105005975144       -0.06417000681946
H            3.10554490680027        1.43087930838219        0.16014068429413
H            0.22306373739093        3.05214919265287       -0.28519579550506
H           -2.56920343926059        1.32926207344244        0.22124431314901
H           -4.27297522564913       -0.78683262340831       -0.14207453909688
24
 energy: -43.360261265146 gnorm: 0.000094454325 xtb: 6.7.1 (edcfbbe)
C           -2.37004112352130       -1.20079918355795       -0.26548618180079
C           -1.05692216809906       -0.62345742695182        0.27314636640315
H           -1.11068649972586       -0.56146214935206        1.37318914704111
C           -0.77743136017921        0.78326812381530       -0.27616866020712
H           -0.79065879861233        0.74274590883252       -1.37861259797978
C            0.61432973975717        1.22855995007649        0.18420032634122
H            0.59519917520377        1.32471722433475        1.28336451924639
C            1.68185276341510        0.19758891559271       -0.19536911455860
H            1.78016422376713        0.16222965687267       -1.29035635493577