
                                 *****************
                                 * O   R   C   A *
                                 *****************

                                            #,                                       
                                            ###                                      
                                            ####                                     
                                            #####                                    
                                            ######                                   
                                           ########,                                 
                                     ,,################,,,,,                         
                               ,,#################################,,                 
                          ,,##########################################,,             
                       ,#########################################, ''#####,          
                    ,#############################################,,   '####,        
                  ,##################################################,,,,####,       
                ,###########''''           ''''###############################       
              ,#####''   ,,,,##########,,,,          '''####'''          '####       
            ,##' ,,,,###########################,,,                        '##       
           ' ,,###''''                  '''############,,,                           
         ,,##''                                '''############,,,,        ,,,,,,###''
      ,#''                                            '''#######################'''  
     '                                                          ''''####''''         
             ,#######,   #######,   ,#######,      ##                                
            ,#'     '#,  ##    ##  ,#'     '#,    #''#        ,####,   ,####,        
            ##       ##  ##   ,#'  ##            #'  '#       #'       #'  '#        
            ##       ##  #######   ##           ,######,      #####,   #    #        
            '#,     ,#'  ##    ##  '#,     ,#' ,#      #,     #,   #   #,  ,#        
             '#######'   ##     ##  '#######'  #'      '#     '####' # '####'        



                #########################################################
                #                        -***-                          #
                #          Department of theory and spectroscopy        #
                #                                                       #
                #                      Frank Neese                      #
                #                                                       #
                #     Directorship, Architecture, Infrastructure        #
                #                    SHARK, DRIVERS                     #
                #        Core code/Algorithms in most modules           #
                #                                                       #
                #        Max Planck Institute fuer Kohlenforschung      #
                #                Kaiser Wilhelm Platz 1                 #
                #                 D-45470 Muelheim/Ruhr                 #
                #                      Germany                          #
                #                                                       #
                #                  All rights reserved                  #
                #                        -***-                          #
                #########################################################


                         Program Version 6.0.1  -  RELEASE   -


 With contributions from (in alphabetic order):
[Max-Planck-Institut fuer Kohlenforschung]                               
  Daniel Aravena         : Magnetic Suceptibility                        
  Michael Atanasov       : Ab Initio Ligand Field Theory (pilot matlab implementation)
  Alexander A. Auer      : GIAO ZORA, VPT2 properties, NMR spectrum      
  Ute Becker             : All parallelization in ORCA, NUMFREQ, NUMCALC 
  Giovanni Bistoni       : ED, misc. LED, open-shell LED, HFLD           
  Martin Brehm           : Molecular dynamics                            
  Dmytro Bykov           : pre 5.0 version of the SCF Hessian            
  Marcos Casanova-Páez   : Triplet and SCS-CIS(D). UHF-(DLPNO)-IP/EA/STEOM-CCSD. UHF-CVS-IP/STEOM-CCSD   
  Vijay G. Chilkuri      : MRCI spin determinant printing, contributions to CSF-ICE 
  Pauline Colinet        : FMM embedding                                 
  Dipayan Datta          : RHF DLPNO-CCSD density                        
  Achintya Kumar Dutta   : EOM-CC, STEOM-CC                              
  Nicolas Foglia         : Exact transition moments, OPA infrastructure, MCD improvements    
  Dmitry Ganyushin       : Spin-Orbit,Spin-Spin,Magnetic field MRCI      
  Miquel Garcia-Rates    : C-PCM and meta-GGA Hessian, CCSD/C-PCM, Gaussian charge scheme 
  Tiago L. C. Gouveia    : GS-ROHF, GS-ROCIS                             
  Yang Guo               : DLPNO-NEVPT2, F12-NEVPT2, CIM, IAO-localization        
  Andreas Hansen         : Spin unrestricted coupled pair/coupled cluster methods 
  Ingolf Harden          : AUTO-CI MPn and infrastructure                
  Benjamin Helmich-Paris : MC-RPA, TRAH-(SCF,CASSCF), AVAS, COSX integrals, SCF dyn. polar. 
  Lee Huntington         : MR-EOM, pCC                                   
  Robert Izsak           : Overlap fitted RIJCOSX, COSX-SCS-MP3, EOM     
  Riya Kayal             : Wick's Theorem for AUTO-CI, AUTO-CI UHF-CCSDT 
  Emily Kempfer          : AUTO-CI, RHF CISDT and CCSDT                  
  Christian Kollmar      : KDIIS, OOCD, Brueckner-CCSD(T), CCSD density, CASPT2, CASPT2-K, improved NEVPT2 
  Axel Koslowski         : Symmetry handling                             
  Simone Kossmann        : meta-GGA functionals, TD-DFT gradient, OOMP2, (MP2 Hessian; deprecated post 5.0) 
  Lucas Lang             : DCDCAS                                        
  Marvin Lechner         : AUTO-CI (C++ implementation), FIC-MRCC        
  Spencer Leger          : CASSCF response                               
  Dagmar Lenk            : GEPOL surface, SMD, ORCA-2-JSON               
  Dimitrios Liakos       : Extrapolation schemes; Compound Job, initial MDCI parallelization 
  Dimitrios Manganas     : Further ROCIS development; embedding schemes. LFT, Crystal Embedding 
  Dimitrios Pantazis     : SARC Basis sets                               
  Anastasios Papadopoulos: AUTO-CI, single reference methods and gradients 
  Taras Petrenko         : pre 6.0 DFT Hessian and TD-DFT gradient, (ASA, deprecated), ECA, 1-Electron XAS/XES, NRVS 
  Peter Pinski           : DLPNO-MP2, DLPNO-MP2 Gradient                 
  Christoph Reimann      : Effective Core Potentials                     
  Marius Retegan         : Local ZFS, SOC                                
  Christoph Riplinger    : Optimizer, TS searches, QM/MM, DLPNO-CCSD(T), (RO)-DLPNO pert. Triples 
  Michael Roemelt        : Original ROCIS implementation                 
  Masaaki Saitow         : Open-shell DLPNO-CCSD energy and density      
  Barbara Sandhoefer     : DKH picture change effects                    
  Kantharuban Sivalingam : CASSCF convergence/infrastructure, NEVPT2 and variants, FIC-MRCI 
  Bernardo de Souza      : ESD, SOC TD-DFT                               
  Georgi L. Stoychev     : AutoAux, RI-MP2 NMR, DLPNO-MP2 response, X2C  
  Van Anh Tran           : RI-MP2 g-tensors                              
  Willem Van den Heuvel  : Paramagnetic NMR                              
  Zikuan Wang            : NOTCH, Electric field optimization            
  Frank Wennmohs         : Technical directorship and infrastructure     
  Hang Xu                : AUTO-CI-Response properties                   
                                                                         
[FACCTs GmbH]                                                            
  Markus Bursch, Miquel Garcia-Rates, Christoph Riplinger, Bernardo de Souza, Georgi L. Stoychev 
                                                                 
  APM, Basis sets (HGBS, AHGBS, def-TZVP (Ac-Lr), def2-XVPD (La-Lu)), CI-OPT, improved COSX, DLPNO-Multilevel,           
  DOCKER, DRACO, updates on ESD, GOAT, IRC, LR-CPCM, MBIS, meta-GGA TD-DFT gradient, ML-optimized integration grids, 
  MM, NACMEs, nearIR, NEB, NEB-TS, NL-DFT gradient (VV10), 2- and 3-layer-ONIOM, interface openCOSMO-RS, QMMM,   
  Crystal-QMMM, SF, symmetry and pop. for TD-DFT, r2SCAN hybrids, SOLVATOR                                   
                                                                         
[Other institutions]                                                     
  V. Asgeirsson          : NEB                                           
  Christoph Bannwarth    : sTDA-DFT, sTD-DFT, PBEh-3c, B97-3c, D3        
  Sebastian Ehlert       : rSCAN, r2SCAN, r2SCAN-3c, D4, dhf basis sets  
  Marvin Friede          : D4 for Fr, Ra, Ac-Lr                          
  Lars Goerigk           : TD-DFT with DH, B97 family of functionals     
  Stefan Grimme          : VdW corrections, initial TS optimization, DFT functionals, gCP, sTDA/sTD-DF 
  Waldemar Hujo          : DFT-NL                                        
  H. Jonsson             : NEB                                           
  Holger Kruse           : gCP                                           
  Marcel Mueller         : wB97X-3c, vDZP basis set                      
  Hagen Neugebauer       : wr2SCAN                                       
  Tobias Risthaus        : range-separated hybrid DFT                    
  Lukas Wittmann         : regularized MP2, r2SCAN double-hybrids, wr2SCAN        
                                                                         
We gratefully acknowledge several colleagues who have allowed us to      
interface, adapt or use parts of their codes:                            
  Ed Valeev, F. Pavosevic, A. Kumar             : LibInt (2-el integral package), F12 methods 
  Garnet Chan, S. Sharma, J. Yang, R. Olivares  : DMRG                   
  Ulf Ekstrom                                   : XCFun DFT Library      
  Mihaly Kallay                                 : mrcc  (arbitrary order and MRCC methods)
  Frank Weinhold                                : gennbo (NPA and NBO analysis)           
  Simon Mueller                                 : openCOSMO-RS                            
  Christopher J. Cramer and Donald G. Truhlar   : smd solvation model                     
  S Lehtola, MJT Oliveira, MAL Marques          : LibXC Library                           
  Liviu Ungur et al                             : ANISO software                          


 Your calculation uses the libint2 library for the computation of 2-el integrals
 For citations please refer to: http://libint.valeyev.net

 Your ORCA version has been built with support for libXC version: 6.2.2
 For citations please refer to: https://libxc.gitlab.io

 This ORCA versions uses:
   CBLAS   interface :  Fast vector & matrix operations
   LAPACKE interface :  Fast linear algebra routines
   SCALAPACK package :  Parallel linear algebra routines
   Shared memory     :  Shared parallel matrices
   BLAS/LAPACK       :  OpenBLAS 0.3.27  USE64BITINT DYNAMIC_ARCH NO_AFFINITY Zen SINGLE_THREADED
        Core in use  :  Zen
   Copyright (c) 2011-2014, The OpenBLAS Project


Your calculation utilizes the geometrical counterpoise correction gCP
Please cite in your paper:
H.Kruse, S. Grimme J.Chem.Phys., 136, (2012), 154101 
   

Your calculation utilizes the atom-pairwise dispersion correction
based on EEQ partial charges (D4)


================================================================================

----- Orbital basis set information -----
Your calculation utilizes the basis: def2-SV(P)
   F. Weigend and R. Ahlrichs, Phys. Chem. Chem. Phys. 7, 3297 (2005).

----- AuxJ basis set information -----
Your calculation utilizes the auxiliary basis: def2/J
   F. Weigend, Phys. Chem. Chem. Phys. 8, 1057 (2006).

================================================================================
                                        WARNINGS
                       Please study these warnings very carefully!
================================================================================


================================================================================
                                       INPUT FILE
================================================================================
NAME = sp.inp
|  1> ! pbe def2-sv(p) def2/J RI DEFGRID1 loosescf d4 GCP(DFT/SV(P)) printgap
|  2> %output
|  3>     printlevel normal
|  4> end
|  5> * xyz 0 1
|  6> C -2.3289604064 1.1062984634 0.5632371364
|  7> N -1.6017562156 0.0256416143 -0.0561758221
|  8> C -2.3482242083 -1.1265612006 -0.4906335519
|  9> C -0.2277517797 0.0055682627 -0.0228965705
| 10> C 0.5011802756 1.169041231 0.2605405381
| 11> C 1.8811384445 1.1566771621 0.2764734152
| 12> C 2.584660473 -0.0054328306 0.0098720327
| 13> C 1.8781211953 -1.1614320714 -0.2725403512
| 14> C 0.4974860104 -1.1638071413 -0.2874618321
| 15> H -3.3561013304 0.7958536171 0.7447035307
| 16> H -2.347915718 1.9968531332 -0.0756398706
| 17> H -1.8837351767 1.3774713441 1.524304973
| 18> H -1.91984512 -1.5268194833 -1.4109579295
| 19> H -3.3738761634 -0.8293026095 -0.7033445254
| 20> H -2.3672798365 -1.9243447702 0.2637850119
| 21> H -0.0117651016 2.0971421801 0.4554569412
| 22> H 2.4138121817 2.0714510561 0.4955166086
| 23> H 3.6639499581 -0.0097781075 0.022326067
| 24> H 2.4080434512 -2.080939893 -0.4781104962
| 25> H -0.0149442704 -2.089781897 -0.4934172452
| 26> *
| 27> 
| 28>                          ****END OF INPUT****
================================================================================

                       ****************************
                       * Single Point Calculation *
                       ****************************

---------------------------------
CARTESIAN COORDINATES (ANGSTROEM)
---------------------------------
  C     -2.328960    1.106298    0.563237
  N     -1.601756    0.025642   -0.056176
  C     -2.348224   -1.126561   -0.490634
  C     -0.227752    0.005568   -0.022897
  C      0.501180    1.169041    0.260541
  C      1.881138    1.156677    0.276473
  C      2.584660   -0.005433    0.009872
  C      1.878121   -1.161432   -0.272540
  C      0.497486   -1.163807   -0.287462
  H     -3.356101    0.795854    0.744704
  H     -2.347916    1.996853   -0.075640
  H     -1.883735    1.377471    1.524305
  H     -1.919845   -1.526819   -1.410958
  H     -3.373876   -0.829303   -0.703345
  H     -2.367280   -1.924345    0.263785
  H     -0.011765    2.097142    0.455457
  H      2.413812    2.071451    0.495517
  H      3.663950   -0.009778    0.022326
  H      2.408043   -2.080940   -0.478110
  H     -0.014944   -2.089782   -0.493417

----------------------------
CARTESIAN COORDINATES (A.U.)
----------------------------
  NO LB      ZA    FRAG     MASS         X           Y           Z
   0 C     6.0000    0    12.011   -4.401097    2.090601    1.064364
   1 N     7.0000    0    14.007   -3.026881    0.048456   -0.106157
   2 C     6.0000    0    12.011   -4.437501   -2.128892   -0.927163
   3 C     6.0000    0    12.011   -0.430388    0.010522   -0.043268
   4 C     6.0000    0    12.011    0.947093    2.209168    0.492350
   5 C     6.0000    0    12.011    3.554836    2.185803    0.522459
   6 C     6.0000    0    12.011    4.884300   -0.010267    0.018655
   7 C     6.0000    0    12.011    3.549135   -2.194789   -0.515027
   8 C     6.0000    0    12.011    0.940112   -2.199277   -0.543224
   9 H     1.0000    0     1.008   -6.342112    1.503945    1.407286
  10 H     1.0000    0     1.008   -4.436918    3.773506   -0.142939
  11 H     1.0000    0     1.008   -3.559744    2.603044    2.880519
  12 H     1.0000    0     1.008   -3.627981   -2.885271   -2.666324
  13 H     1.0000    0     1.008   -6.375702   -1.567155   -1.329129
  14 H     1.0000    0     1.008   -4.473511   -3.636485    0.498481
  15 H     1.0000    0     1.008   -0.022233    3.963024    0.860689
  16 H     1.0000    0     1.008    4.561444    3.914475    0.936391
  17 H     1.0000    0     1.008    6.923862   -0.018478    0.042190
  18 H     1.0000    0     1.008    4.550543   -3.932406   -0.903498
  19 H     1.0000    0     1.008   -0.028241   -3.949115   -0.932423

--------------------------------
INTERNAL COORDINATES (ANGSTROEM)
--------------------------------
 C      0   0   0     0.000000000000     0.00000000     0.00000000
 N      1   0   0     1.442330604883     0.00000000     0.00000000
 C      2   1   0     1.439978926850   117.88609496     0.00000000
 C      2   1   3     1.374553977807   120.30012259   190.73668455
 C      4   2   1     1.401908657417   120.83211105   341.99484151
 C      5   4   2     1.380105530272   120.98411305   180.90914924
 C      6   5   4     1.384384042406   120.89237276     0.14273821
 C      7   6   5     1.383939576081   118.75326147   359.90720731
 C      8   7   6     1.380717858700   120.93993258   359.88047482
 H      1   2   3     1.088266756182   109.49623312     8.83476704
 H      1   2   3     1.096180073626   111.53823100   249.08172830
 H      1   2   3     1.093348811192   110.97810582   127.93023639
 H      3   2   1     1.091197643036   110.14879404   144.29977858
 H      3   2   1     1.088839088769   109.19598832    26.13908154
 H      3   2   1     1.098166248933   112.52034487   265.68811466
 H      5   4   2     1.078182144124   120.23699987   359.93677140
 H      6   5   4     1.080986821391   119.17453259   179.80764080
 H      7   6   5     1.079370083451   120.61745279   179.92361278
 H      8   7   6     1.081004771403   119.93688602   180.33938407
 H      9   8   7     1.078161246317   118.60673036   181.16040117

---------------------------
INTERNAL COORDINATES (A.U.)
---------------------------
 C      0   0   0     0.000000000000     0.00000000     0.00000000
 N      1   0   0     2.725609837801     0.00000000     0.00000000
 C      2   1   0     2.721165810364   117.88609496     0.00000000
 C      2   1   3     2.597530574347   120.30012259   190.73668455
 C      4   2   1     2.649223427291   120.83211105   341.99484151
 C      5   4   2     2.608021488124   120.98411305   180.90914924
 C      6   5   4     2.616106704318   120.89237276     0.14273821
 C      7   6   5     2.615266784688   118.75326147   359.90720731
 C      8   7   6     2.609178621157   120.93993258   359.88047482
 H      1   2   3     2.056526129834   109.49623312     8.83476704
 H      1   2   3     2.071480132614   111.53823100   249.08172830
 H      1   2   3     2.066129822002   110.97810582   127.93023639
 H      3   2   1     2.062064703319   110.14879404   144.29977858
 H      3   2   1     2.057607681681   109.19598832    26.13908154
 H      3   2   1     2.075233459999   112.52034487   265.68811466
 H      5   4   2     2.037468974879   120.23699987   359.93677140
 H      6   5   4     2.042769046807   119.17453259   179.80764080
 H      7   6   5     2.039713854870   120.61745279   179.92361278
 H      8   7   6     2.042802967415   119.93688602   180.33938407
 H      9   8   7     2.037429483746   118.60673036   181.16040117

---------------------
BASIS SET INFORMATION
---------------------
There are 3 groups of distinct atoms

 Group   1 Type C   : 7s4p1d contracted to 3s2p1d pattern {511/31/1}
 Group   2 Type N   : 7s4p1d contracted to 3s2p1d pattern {511/31/1}
 Group   3 Type H   : 4s contracted to 2s pattern {31}

Atom   0C    basis set group =>   1
Atom   1N    basis set group =>   2
Atom   2C    basis set group =>   1
Atom   3C    basis set group =>   1
Atom   4C    basis set group =>   1
Atom   5C    basis set group =>   1
Atom   6C    basis set group =>   1
Atom   7C    basis set group =>   1
Atom   8C    basis set group =>   1
Atom   9H    basis set group =>   3
Atom  10H    basis set group =>   3
Atom  11H    basis set group =>   3
Atom  12H    basis set group =>   3
Atom  13H    basis set group =>   3
Atom  14H    basis set group =>   3
Atom  15H    basis set group =>   3
Atom  16H    basis set group =>   3
Atom  17H    basis set group =>   3
Atom  18H    basis set group =>   3
Atom  19H    basis set group =>   3
---------------------------------
AUXILIARY/J BASIS SET INFORMATION
---------------------------------
There are 3 groups of distinct atoms

 Group   1 Type C   : 12s5p4d2f1g contracted to 6s4p3d1f1g pattern {711111/2111/211/2/1}
 Group   2 Type N   : 12s5p4d2f1g contracted to 6s4p3d1f1g pattern {711111/2111/211/2/1}
 Group   3 Type H   : 5s2p1d contracted to 3s1p1d pattern {311/2/1}

Atom   0C    basis set group =>   1
Atom   1N    basis set group =>   2
Atom   2C    basis set group =>   1
Atom   3C    basis set group =>   1
Atom   4C    basis set group =>   1
Atom   5C    basis set group =>   1
Atom   6C    basis set group =>   1
Atom   7C    basis set group =>   1
Atom   8C    basis set group =>   1
Atom   9H    basis set group =>   3
Atom  10H    basis set group =>   3
Atom  11H    basis set group =>   3
Atom  12H    basis set group =>   3
Atom  13H    basis set group =>   3
Atom  14H    basis set group =>   3
Atom  15H    basis set group =>   3
Atom  16H    basis set group =>   3
Atom  17H    basis set group =>   3
Atom  18H    basis set group =>   3
Atom  19H    basis set group =>   3
------------------------------------------------------------------------------
                             ORCA STARTUP CALCULATIONS
                           -- RI-GTO INTEGRALS CHOSEN --
------------------------------------------------------------------------------
------------------------------------------------------------------------------
                   ___                                                        
                  /   \      - P O W E R E D   B Y -                         
                 /     \                                                     
                 |  |  |   _    _      __       _____    __    __             
                 |  |  |  | |  | |    /  \     |  _  \  |  |  /  |          
                  \  \/   | |  | |   /    \    | | | |  |  | /  /          
                 / \  \   | |__| |  /  /\  \   | |_| |  |  |/  /          
                |  |  |   |  __  | /  /__\  \  |    /   |      \           
                |  |  |   | |  | | |   __   |  |    \   |  |\   \          
                \     /   | |  | | |  |  |  |  | |\  \  |  | \   \       
                 \___/    |_|  |_| |__|  |__|  |_| \__\ |__|  \__/        
                                                                              
                      - O R C A' S   B I G   F R I E N D -                    
                                      &                                       
                       - I N T E G R A L  F E E D E R -                       
                                                                              
 v1 FN, 2020, v2 2021, v3 2022-2024                                           
------------------------------------------------------------------------------


----------------------
SHARK INTEGRAL PACKAGE
----------------------

Number of atoms                             ...     20
Number of basis functions                   ...    148
Number of shells                            ...     76
Maximum angular momentum                    ...      2
Integral batch strategy                     ... SHARK/LIBINT Hybrid
RI-J (if used) integral strategy            ... SPLIT-RIJ (Revised 2003 algorithm where possible)
Printlevel                                  ...      1
Contraction scheme used                     ... SEGMENTED contraction
Prescreening option                         ... SCHWARTZ
   Thresh                                   ... 1.000e-09
   Tcut                                     ... 1.000e-10
   Tpresel                                  ... 1.000e-10 
Coulomb Range Separation                    ... NOT USED
Exchange Range Separation                   ... NOT USED
Multipole approximations                    ... NOT USED
Finite Nucleus Model                        ... NOT USED
CABS basis                                  ... NOT available
Auxiliary Coulomb fitting basis             ... AVAILABLE
   # of basis functions in Aux-J            ...    562
   # of shells in Aux-J                     ...    190
   Maximum angular momentum in Aux-J        ...      4
Auxiliary J/K fitting basis                 ... NOT available
Auxiliary Correlation fitting basis         ... NOT available
Auxiliary 'external' fitting basis          ... NOT available

Checking pre-screening integrals            ... done (  0.0 sec) Dimension = 76
Check shell pair data                       ... done (  0.0 sec)
Shell pair information
Shell pair cut-off parameter TPreSel        ...   1.0e-10
Total number of shell pairs                 ...      2926
Shell pairs after pre-screening             ...      2745
Total number of primitive shell pairs       ...     11778
Primitive shell pairs kept                  ...      7730
          la=0 lb=0:   1124 shell pairs
          la=1 lb=0:    847 shell pairs
          la=1 lb=1:    171 shell pairs
          la=2 lb=0:    404 shell pairs
          la=2 lb=1:    158 shell pairs
          la=2 lb=2:     41 shell pairs

Calculating one electron integrals          ... done (  0.0 sec)
Calculating RI/J V-Matrix + Cholesky decomp.... done (  0.0 sec)
Calculating Nuclear repulsion               ... done (  0.0 sec) ENN=    431.557812941536 Eh

Diagonalization of the overlap matrix:
Smallest eigenvalue                        ... 2.599e-04
Time for diagonalization                   ...    0.002 sec
Threshold for overlap eigenvalues          ... 1.000e-07
Number of eigenvalues below threshold      ... 0
Time for construction of square roots      ...    0.003 sec
Total time needed                          ...    0.006 sec

-------------------
DFT GRID GENERATION
-------------------

General Integration Accuracy     IntAcc      ... 4.159
Radial Grid Type                 RadialGrid  ... OptM3 with GC (2021)
Angular Grid (max. ang.)         AngularGrid ... 3 (Lebedev-194)
Angular grid pruning method      GridPruning ... 4 (adaptive)
Weight generation scheme         WeightScheme... mBecke (2022)
Basis function cutoff            BFCut       ... 1.0000e-10
Integration weight cutoff        WCut        ... 1.0000e-14
Partially contracted basis set               ... off
Rotationally invariant grid construction     ... off
Angular grids for H and He will be reduced by one unit

Total number of grid points                  ...    44692
Total number of batches                      ...      709
Average number of points per batch           ...       63
Average number of grid points per atom       ...     2235
Initializing property integral containers    ... done (  0.0 sec)

SHARK setup successfully completed in   0.5 seconds

Maximum memory used throughout the entire STARTUP-calculation: 22.1 MB
-------------------------------------------------------------------------------
                                 ORCA GUESS
                   Start orbitals & Density for SCF / CASSCF
-------------------------------------------------------------------------------

------------
SCF SETTINGS
------------
Hamiltonian:
 Density Functional     Method          .... DFT(GTOs)
 Exchange Functional    Exchange        .... PBE
   PBE kappa parameter   XKappa         ....  0.804000
   PBE mue parameter    XMuePBE         ....  0.219520
 Correlation Functional Correlation     .... PBE
   PBE beta parameter  CBetaPBE         ....  0.066725
 LDA part of GGA corr.  LDAOpt          .... PW91-LDA
 Gradients option       PostSCFGGA      .... off
   NL short-range parameter             ....  6.400000
 RI-approximation to the Coulomb term is turned on
   Number of AuxJ basis functions       .... 562


General Settings:
 Integral files         IntName         .... sp
 Hartree-Fock type      HFTyp           .... RHF
 Total Charge           Charge          ....    0
 Multiplicity           Mult            ....    1
 Number of Electrons    NEL             ....   66
 Basis Dimension        Dim             ....  148
 Nuclear Repulsion      ENuc            ....    431.5578129415 Eh

Convergence Acceleration:
 AO-DIIS                CNVDIIS         .... on
   Start iteration      DIISMaxIt       ....    12
   Startup error        DIISStart       ....  0.200000
   # of expansion vecs  DIISMaxEq       ....     5
   Bias factor          DIISBfac        ....   1.050
   Max. coefficient     DIISMaxC        ....  10.000
 MO-DIIS                CNVKDIIS        .... off
 Trust-Rad. Augm. Hess. CNVTRAH         .... auto
   Auto Start mean grad. ratio tolernc. ....  1.125000
   Auto Start start iteration           ....    50
   Auto Start num. interpolation iter.  ....    10
   Max. Number of Micro iterations      ....    24
   Max. Number of Macro iterations      .... Maxiter - #DIIS iter
   Number of Davidson start vectors     ....     2
   Converg. threshold    (grad. norm)   ....   1.000e-04
   Grad. Scal. Fac. for Micro threshold ....   0.100
   Minimum threshold for Micro iter.    ....   1.000e-02
   NR start threshold (gradient norm)   ....   1.000e-04
   Initial trust radius                 ....   0.400
   Minimum AH scaling param. (alpha)    ....   1.000
   Maximum AH scaling param. (alpha)    .... 1000.000
   Quad. conv. algorithm                .... NR
   White noise on init. David. guess    .... on
   Maximum white noise                  ....   0.010
   Pseudo random numbers                .... off
   Inactive MOs                         .... canonical
   Orbital update algorithm             .... Taylor
   Preconditioner                       .... Diag
   Full preconditioner red. dimension   ....   250
 SOSCF                  CNVSOSCF        .... on
   Start iteration      SOSCFMaxIt      ....   150
   Startup grad/error   SOSCFStart      ....  0.003300
   Hessian update       SOSCFHessUp     .... L-BFGS
 Level Shifting         CNVShift        .... on
   Level shift para.    LevelShift      ....    0.2500
   Turn off err/grad.   ShiftErr        ....    0.0010
 Zerner damping         CNVZerner       .... off
 Static damping         CNVDamp         .... on
   Fraction old density DampFac         ....    0.7000
   Max. Damping (<1)    DampMax         ....    0.9800
   Min. Damping (>=0)   DampMin         ....    0.0000
   Turn off err/grad.   DampErr         ....    0.1000

SCF Procedure:
 Maximum # iterations   MaxIter         ....   125
 SCF integral mode      SCFMode         .... Direct
   Integral package                     .... SHARK and LIBINT hybrid scheme
 Reset frequency        DirectResetFreq ....    20
 Integral Threshold     Thresh          ....  1.000e-09 Eh
 Primitive CutOff       TCut            ....  1.000e-10 Eh

Convergence Tolerance:
 Convergence Check Mode ConvCheckMode   .... Total+1el-Energy
 Convergence forced     ConvForced      .... 0
 Energy Change          TolE            ....  1.000e-05 Eh
 1-El. energy change                    ....  1.000e-02 Eh
 Orbital Gradient       TolG            ....  1.000e-04
 Orbital Rotation angle TolX            ....  1.000e-04
 DIIS Error             TolErr          ....  5.000e-04

------------------------------
INITIAL GUESS: MODEL POTENTIAL
------------------------------
Loading Hartree-Fock densities                     ... done
Calculating cut-offs                               ... done
Initializing the effective Hamiltonian             ... done
Setting up the integral package (SHARK)            ... done
Starting the Coulomb interaction                   ... done (   0.1 sec)
Making the grid                                    ... done (   0.2 sec)
Mapping shells                                     ... done
Starting the XC term evaluation                    ... done (   0.1 sec)
  promolecular density results
     # of electrons  =     65.995709379
     EX              =    -50.744594223
     EC              =     -2.181065504
     EX+EC           =    -52.925659727
Transforming the Hamiltonian                       ... done (   0.0 sec)
Diagonalizing the Hamiltonian                      ... done (   0.0 sec)
Back transforming the eigenvectors                 ... done (   0.0 sec)
Now organizing SCF variables                       ... done
                      ------------------
                      INITIAL GUESS DONE (   0.4 sec)
                      ------------------
             **** ENERGY FILE WAS UPDATED (sp.en.tmp) ****
Finished Guess after   0.5 sec
Maximum memory used throughout the entire GUESS-calculation: 17.3 MB

-------------------------------------------------------------------------------------------
                                      ORCA LEAN-SCF
                              memory conserving SCF solver
-------------------------------------------------------------------------------------------

----------------------------------------D-I-I-S--------------------------------------------
Iteration    Energy (Eh)           Delta-E    RMSDP     MaxDP     DIISErr   Damp  Time(sec)
-------------------------------------------------------------------------------------------
               ***  Starting incremental Fock matrix formation  ***
    1    -365.2542294532532878     0.00e+00  3.86e-03  5.97e-02  1.36e-01  0.700   0.5
    2    -365.3437999866097243    -8.96e-02  2.81e-03  3.56e-02  6.09e-02  0.700   0.5
                               ***Turning on AO-DIIS***
    3    -365.3778672481224703    -3.41e-02  1.15e-03  1.33e-02  2.07e-02  0.700   0.5
    4    -365.3972470776324144    -1.94e-02  1.96e-03  2.36e-02  9.17e-03  0.000   0.4
    5    -365.4400874676666717    -4.28e-02  4.60e-04  5.69e-03  5.00e-03  0.000   0.5
                              *** Initializing SOSCF ***
---------------------------------------S-O-S-C-F--------------------------------------
Iteration    Energy (Eh)           Delta-E    RMSDP     MaxDP     MaxGrad    Time(sec)
--------------------------------------------------------------------------------------
    6    -365.4404856993844533    -3.98e-04  1.73e-04  2.30e-03  1.09e-03     0.4
               *** Restarting incremental Fock matrix formation ***
    7    -365.4405097632521802    -2.41e-05  1.34e-04  2.24e-03  3.56e-04     0.5
    8    -365.4405050720177996     4.69e-06  5.02e-05  1.67e-03  6.93e-04     0.4
                 **** Energy Check signals convergence ****

               *****************************************************
               *                     SUCCESS                       *
               *           SCF CONVERGED AFTER   8 CYCLES          *
               *****************************************************

             **** ENERGY FILE WAS UPDATED (sp.en.tmp) ****

----------------
TOTAL SCF ENERGY
----------------

Total Energy       :       -365.44050507201780 Eh           -9944.14169 eV

Components:
Nuclear Repulsion  :        431.55781294153564 Eh           11743.28511 eV
Electronic Energy  :       -796.99831801355344 Eh          -21687.42680 eV
One Electron Energy:      -1347.78654224445222 Eh          -36675.13634 eV
Two Electron Energy:        550.78822423089878 Eh           14987.70954 eV

Virial components:
Potential Energy   :       -727.60590915178818 Eh          -19799.16336 eV
Kinetic Energy     :        362.16540407977044 Eh            9855.02166 eV
Virial Ratio       :          2.00904310835699

DFT components:
N(Alpha)           :       32.999939621230 electrons
N(Beta)            :       32.999939621230 electrons
N(Total)           :       65.999879242460 electrons
E(X)               :      -51.773339679795 Eh       
E(C)               :       -2.191890953692 Eh       
E(XC)              :      -53.965230633487 Eh       

---------------
SCF CONVERGENCE
---------------

  Last Energy change         ...   -4.6912e-06  Tolerance :   1.0000e-05
  Last MAX-Density change    ...    1.6673e-03  Tolerance :   1.0000e-03
  Last RMS-Density change    ...    5.0169e-05  Tolerance :   1.0000e-04
  Last DIIS Error            ...    1.0856e-03  Tolerance :   5.0000e-04
  Last Orbital Gradient      ...    6.9284e-04  Tolerance :   1.0000e-04
  Last Orbital Rotation      ...    1.7294e-03  Tolerance :   1.0000e-04


----------------
ORBITAL ENERGIES
----------------

  NO   OCC          E(Eh)            E(eV) 
   0   2.0000     -14.007370      -381.1599 
   1   2.0000      -9.921965      -269.9904 
   2   2.0000      -9.916663      -269.8461 
   3   2.0000      -9.916563      -269.8434 
   4   2.0000      -9.879162      -268.8257 
   5   2.0000      -9.879147      -268.8252 
   6   2.0000      -9.875145      -268.7163 
   7   2.0000      -9.874982      -268.7119 
   8   2.0000      -9.869816      -268.5713 
   9   2.0000      -0.861641       -23.4464 
  10   2.0000      -0.755287       -20.5524 
  11   2.0000      -0.668157       -18.1815 
  12   2.0000      -0.665588       -18.1116 
  13   2.0000      -0.644730       -17.5440 
  14   2.0000      -0.587379       -15.9834 
  15   2.0000      -0.529512       -14.4087 
  16   2.0000      -0.508299       -13.8315 
  17   2.0000      -0.475998       -12.9526 
  18   2.0000      -0.430775       -11.7220 
  19   2.0000      -0.418823       -11.3968 
  20   2.0000      -0.417970       -11.3735 
  21   2.0000      -0.390323       -10.6212 
  22   2.0000      -0.370912       -10.0930 
  23   2.0000      -0.365921        -9.9572 
  24   2.0000      -0.363152        -9.8819 
  25   2.0000      -0.351559        -9.5664 
  26   2.0000      -0.336819        -9.1653 
  27   2.0000      -0.321036        -8.7358 
  28   2.0000      -0.303581        -8.2609 
  29   2.0000      -0.285236        -7.7617 
  30   2.0000      -0.246171        -6.6987 
  31   2.0000      -0.215937        -5.8759 
  32   2.0000      -0.158353        -4.3090 
  33   0.0000      -0.021088        -0.5738 
  34   0.0000      -0.004430        -0.1205 
  35   0.0000       0.035521         0.9666 
  36   0.0000       0.059623         1.6224 
  37   0.0000       0.069215         1.8834 
  38   0.0000       0.072407         1.9703 
  39   0.0000       0.095790         2.6066 
  40   0.0000       0.107844         2.9346 
  41   0.0000       0.109998         2.9932 
  42   0.0000       0.112939         3.0732 
  43   0.0000       0.125475         3.4144 
*Only the first 10 virtual orbitals were printed.

                    ********************************
                    * MULLIKEN POPULATION ANALYSIS *
                    ********************************

-----------------------
MULLIKEN ATOMIC CHARGES
-----------------------
   0 C :   -0.173779
   1 N :   -0.252179
   2 C :   -0.174651
   3 C :    0.252080
   4 C :   -0.167448
   5 C :   -0.056584
   6 C :   -0.052790
   7 C :   -0.057098
   8 C :   -0.175151
   9 H :    0.111560
  10 H :    0.110342
  11 H :    0.115583
  12 H :    0.120182
  13 H :    0.112929
  14 H :    0.103656
  15 H :    0.027901
  16 H :    0.044171
  17 H :    0.039797
  18 H :    0.044140
  19 H :    0.027339
Sum of atomic charges:    0.0000000

--------------------------------
MULLIKEN REDUCED ORBITAL CHARGES
--------------------------------
  0 C s       :     3.091627  s :     3.091627
      pz      :     1.044570  p :     3.038605
      px      :     1.025561
      py      :     0.968475
      dz2     :     0.008741  d :     0.043547
      dxz     :     0.005541
      dyz     :     0.011687
      dx2y2   :     0.009888
      dxy     :     0.007689

  1 N s       :     3.388759  s :     3.388759
      pz      :     1.556577  p :     3.836229
      px      :     1.078542
      py      :     1.201110
      dz2     :     0.003128  d :     0.027192
      dxz     :     0.005296
      dyz     :     0.003922
      dx2y2   :     0.007513
      dxy     :     0.007333

  2 C s       :     3.090188  s :     3.090188
      pz      :     1.066911  p :     3.040582
      px      :     1.023192
      py      :     0.950480
      dz2     :     0.006840  d :     0.043881
      dxz     :     0.005169
      dyz     :     0.013675
      dx2y2   :     0.009783
      dxy     :     0.008414

  3 C s       :     2.908120  s :     2.908120
      pz      :     0.980398  p :     2.781171
      px      :     0.884904
      py      :     0.915870
      dz2     :     0.004527  d :     0.058629
      dxz     :     0.014816
      dyz     :     0.006385
      dx2y2   :     0.017560
      dxy     :     0.015341

  4 C s       :     3.276846  s :     3.276846
      pz      :     1.073988  p :     2.857960
      px      :     0.924240
      py      :     0.859732
      dz2     :     0.003214  d :     0.032641
      dxz     :     0.005646
      dyz     :     0.003117
      dx2y2   :     0.008326
      dxy     :     0.012339

  5 C s       :     3.181863  s :     3.181863
      pz      :     0.983523  p :     2.838456
      px      :     0.961797
      py      :     0.893136
      dz2     :     0.003089  d :     0.036265
      dxz     :     0.006991
      dyz     :     0.003725
      dx2y2   :     0.010158
      dxy     :     0.012302

  6 C s       :     3.173532  s :     3.173532
      pz      :     1.040994  p :     2.844668
      px      :     0.818987
      py      :     0.984686
      dz2     :     0.003679  d :     0.034591
      dxz     :     0.002446
      dyz     :     0.005993
      dx2y2   :     0.013650
      dxy     :     0.008823

  7 C s       :     3.181354  s :     3.181354
      pz      :     0.984466  p :     2.839481
      px      :     0.962504
      py      :     0.892511
      dz2     :     0.003176  d :     0.036264
      dxz     :     0.006979
      dyz     :     0.003631
      dx2y2   :     0.010186
      dxy     :     0.012292

  8 C s       :     3.278224  s :     3.278224
      pz      :     1.074434  p :     2.864260
      px      :     0.929730
      py      :     0.860095
      dz2     :     0.003151  d :     0.032667
      dxz     :     0.005643
      dyz     :     0.003164
      dx2y2   :     0.008402
      dxy     :     0.012306

  9 H s       :     0.888440  s :     0.888440

 10 H s       :     0.889658  s :     0.889658

 11 H s       :     0.884417  s :     0.884417

 12 H s       :     0.879818  s :     0.879818

 13 H s       :     0.887071  s :     0.887071

 14 H s       :     0.896344  s :     0.896344

 15 H s       :     0.972099  s :     0.972099

 16 H s       :     0.955829  s :     0.955829

 17 H s       :     0.960203  s :     0.960203

 18 H s       :     0.955860  s :     0.955860

 19 H s       :     0.972661  s :     0.972661


------------------------
MULLIKEN OVERLAP CHARGES
------------------------
B(  0-C ,  1-N ) :   0.7585 B(  0-C ,  2-C ) :  -0.1277 B(  0-C ,  3-C ) :  -0.1199 
B(  0-C ,  9-H ) :   0.7492 B(  0-C , 10-H ) :   0.7664 B(  0-C , 11-H ) :   0.7374 
B(  1-N ,  2-C ) :   0.7677 B(  1-N ,  3-C ) :   0.8443 B(  1-N ,  4-C ) :  -0.2380 
B(  1-N ,  8-C ) :  -0.2405 B(  1-N , 10-H ) :  -0.0728 B(  1-N , 11-H ) :  -0.0591 
B(  1-N , 12-H ) :  -0.0500 B(  1-N , 14-H ) :  -0.0795 B(  2-C ,  3-C ) :  -0.1169 
B(  2-C , 12-H ) :   0.7457 B(  2-C , 13-H ) :   0.7531 B(  2-C , 14-H ) :   0.7546 
B(  3-C ,  4-C ) :   0.1455 B(  3-C ,  5-C ) :   0.4706 B(  3-C ,  6-C ) :  -0.4830 
B(  3-C ,  7-C ) :   0.4743 B(  3-C ,  8-C ) :   0.1353 B(  3-C , 15-H ) :  -0.1920 
B(  3-C , 19-H ) :  -0.1948 B(  4-C ,  5-C ) :   0.2417 B(  4-C ,  6-C ) :   0.3927 
B(  4-C ,  7-C ) :  -0.4540 B(  4-C ,  8-C ) :   0.2921 B(  4-C , 15-H ) :   0.8799 
B(  4-C , 16-H ) :  -0.1831 B(  5-C ,  6-C ) :   0.1952 B(  5-C ,  7-C ) :   0.4358 
B(  5-C ,  8-C ) :  -0.4572 B(  5-C , 15-H ) :  -0.1813 B(  5-C , 16-H ) :   0.8857 
B(  5-C , 17-H ) :  -0.1845 B(  6-C ,  7-C ) :   0.1972 B(  6-C ,  8-C ) :   0.3935 
B(  6-C , 16-H ) :  -0.1858 B(  6-C , 17-H ) :   0.8886 B(  6-C , 18-H ) :  -0.1857 
B(  7-C ,  8-C ) :   0.2332 B(  7-C , 17-H ) :  -0.1842 B(  7-C , 18-H ) :   0.8846 
B(  7-C , 19-H ) :  -0.1803 B(  8-C , 18-H ) :  -0.1821 B(  8-C , 19-H ) :   0.8816 
B(  9-H , 10-H ) :  -0.0633 B( 10-H , 11-H ) :  -0.0970 B( 12-H , 14-H ) :  -0.0956 
B( 13-H , 14-H ) :  -0.0712 


                     *******************************
                     * LOEWDIN POPULATION ANALYSIS *
                     *******************************

----------------------
LOEWDIN ATOMIC CHARGES
----------------------
   0 C :   -0.249236
   1 N :   -0.070199
   2 C :   -0.249728
   3 C :    0.005758
   4 C :   -0.168069
   5 C :   -0.118066
   6 C :   -0.161781
   7 C :   -0.117938
   8 C :   -0.170443
   9 H :    0.120695
  10 H :    0.111732
  11 H :    0.117780
  12 H :    0.120620
  13 H :    0.119935
  14 H :    0.107220
  15 H :    0.121584
  16 H :    0.120180
  17 H :    0.118332
  18 H :    0.120148
  19 H :    0.121475

-------------------------------
LOEWDIN REDUCED ORBITAL CHARGES
-------------------------------
  0 C s       :     2.940024  s :     2.940024
      pz      :     1.101089  p :     3.208827
      px      :     1.077165
      py      :     1.030574
      dz2     :     0.019580  d :     0.100385
      dxz     :     0.012372
      dyz     :     0.027920
      dx2y2   :     0.023026
      dxy     :     0.017486

  1 N s       :     3.054554  s :     3.054554
      pz      :     1.543585  p :     3.950176
      px      :     1.162160
      py      :     1.244431
      dz2     :     0.005868  d :     0.065470
      dxz     :     0.011506
      dyz     :     0.007816
      dx2y2   :     0.019729
      dxy     :     0.020550

  2 C s       :     2.939379  s :     2.939379
      pz      :     1.119212  p :     3.209165
      px      :     1.074547
      py      :     1.015406
      dz2     :     0.015251  d :     0.101184
      dxz     :     0.011253
      dyz     :     0.032650
      dx2y2   :     0.022659
      dxy     :     0.019371

  3 C s       :     2.825162  s :     2.825162
      pz      :     0.978983  p :     3.019905
      px      :     0.950624
      py      :     1.090298
      dz2     :     0.010614  d :     0.149175
      dxz     :     0.031437
      dyz     :     0.014103
      dx2y2   :     0.049937
      dxy     :     0.043084

  4 C s       :     2.888012  s :     2.888012
      pz      :     1.066007  p :     3.192441
      px      :     1.078468
      py      :     1.047966
      dz2     :     0.007057  d :     0.087616
      dxz     :     0.012451
      dyz     :     0.006382
      dx2y2   :     0.026729
      dxy     :     0.034997

  5 C s       :     2.888081  s :     2.888081
      pz      :     0.984762  p :     3.134845
      px      :     1.084357
      py      :     1.065726
      dz2     :     0.007040  d :     0.095139
      dxz     :     0.015749
      dyz     :     0.007722
      dx2y2   :     0.030169
      dxy     :     0.034458

  6 C s       :     2.886657  s :     2.886657
      pz      :     1.039648  p :     3.183429
      px      :     1.057940
      py      :     1.085841
      dz2     :     0.008086  d :     0.091695
      dxz     :     0.004808
      dyz     :     0.014221
      dx2y2   :     0.036924
      dxy     :     0.027656

  7 C s       :     2.888109  s :     2.888109
      pz      :     0.984953  p :     3.134672
      px      :     1.084112
      py      :     1.065608
      dz2     :     0.007210  d :     0.095157
      dxz     :     0.015777
      dyz     :     0.007554
      dx2y2   :     0.030233
      dxy     :     0.034383

  8 C s       :     2.887872  s :     2.887872
      pz      :     1.067951  p :     3.194892
      px      :     1.078699
      py      :     1.048242
      dz2     :     0.006940  d :     0.087680
      dxz     :     0.012424
      dyz     :     0.006439
      dx2y2   :     0.026939
      dxy     :     0.034937

  9 H s       :     0.879305  s :     0.879305

 10 H s       :     0.888268  s :     0.888268

 11 H s       :     0.882220  s :     0.882220

 12 H s       :     0.879380  s :     0.879380

 13 H s       :     0.880065  s :     0.880065

 14 H s       :     0.892780  s :     0.892780

 15 H s       :     0.878416  s :     0.878416

 16 H s       :     0.879820  s :     0.879820

 17 H s       :     0.881668  s :     0.881668

 18 H s       :     0.879852  s :     0.879852

 19 H s       :     0.878525  s :     0.878525


---------------------------------
LOEWDIN BOND ORDERS (THRESH 0.050000)
---------------------------------
B(  0-C ,  1-N ) :   1.1010 B(  0-C ,  2-C ) :   0.0624 B(  0-C ,  3-C ) :   0.0673 
B(  0-C ,  9-H ) :   0.9358 B(  0-C , 10-H ) :   0.9351 B(  0-C , 11-H ) :   0.9311 
B(  1-N ,  2-C ) :   1.1067 B(  1-N ,  3-C ) :   1.2538 B(  1-N ,  4-C ) :   0.1052 
B(  1-N ,  8-C ) :   0.1062 B(  2-C ,  3-C ) :   0.0668 B(  2-C , 12-H ) :   0.9318 
B(  2-C , 13-H ) :   0.9360 B(  2-C , 14-H ) :   0.9325 B(  3-C ,  4-C ) :   1.3569 
B(  3-C ,  5-C ) :   0.0863 B(  3-C ,  6-C ) :   0.0904 B(  3-C ,  7-C ) :   0.0866 
B(  3-C ,  8-C ) :   1.3606 B(  4-C ,  5-C ) :   1.5304 B(  4-C ,  6-C ) :   0.0908 
B(  4-C ,  7-C ) :   0.1116 B(  4-C ,  8-C ) :   0.0850 B(  4-C , 15-H ) :   0.8778 
B(  5-C ,  6-C ) :   1.4857 B(  5-C ,  7-C ) :   0.0876 B(  5-C ,  8-C ) :   0.1108 
B(  5-C , 16-H ) :   0.8882 B(  6-C ,  7-C ) :   1.4892 B(  6-C ,  8-C ) :   0.0908 
B(  6-C , 17-H ) :   0.8904 B(  7-C ,  8-C ) :   1.5263 B(  7-C , 18-H ) :   0.8882 
B(  8-C , 19-H ) :   0.8774 

------------------------------------------
LOEWDIN REDUCED ORBITAL POPULATIONS PER MO
-------------------------------------------
THRESHOLD FOR PRINTING IS 0.1%%
                      0         1         2         3         4         5   
                 -14.00737  -9.92196  -9.91666  -9.91656  -9.87916  -9.87915
                   2.00000   2.00000   2.00000   2.00000   2.00000   2.00000
                  --------  --------  --------  --------  --------  --------
 0 C  s               0.0       0.0       8.9      90.8       0.0       0.0
 1 N  s              99.7       0.0       0.0       0.0       0.0       0.0
 1 N  px              0.0       0.2       0.0       0.1       0.0       0.0
 1 N  py              0.0       0.0       0.1       0.0       0.0       0.0
 2 C  s               0.0       0.0      90.8       8.9       0.0       0.0
 3 C  s               0.0      99.5       0.0       0.0       0.0       0.0
 5 C  s               0.0       0.0       0.0       0.0      54.8      44.6
 6 C  py              0.0       0.0       0.0       0.0       0.0       0.2
 7 C  s               0.0       0.0       0.0       0.0      44.7      54.7

                      6         7         8         9        10        11   
                  -9.87514  -9.87498  -9.86982  -0.86164  -0.75529  -0.66816
                   2.00000   2.00000   2.00000   2.00000   2.00000   2.00000
                  --------  --------  --------  --------  --------  --------
 0 C  s               0.0       0.0       0.0       7.9       1.3       8.0
 0 C  pz              0.0       0.0       0.0       0.9       0.1       0.0
 0 C  px              0.0       0.0       0.0       1.5       0.0       0.3
 0 C  py              0.0       0.0       0.0       3.0       0.3       0.2
 0 C  dyz             0.0       0.0       0.0       0.1       0.0       0.0
 0 C  dxy             0.0       0.0       0.0       0.1       0.0       0.0
 1 N  s               0.0       0.0       0.0      40.4       1.9       0.0
 1 N  pz              0.0       0.0       0.0       0.1       0.0       1.9
 1 N  px              0.0       0.0       0.0       0.1       2.4       0.2
 1 N  py              0.0       0.0       0.0       0.0       0.0       9.9
 1 N  dz2             0.0       0.0       0.0       0.1       0.0       0.0
 2 C  s               0.0       0.0       0.0       8.0       1.4      10.7
 2 C  pz              0.0       0.0       0.0       0.5       0.0       0.0
 2 C  px              0.0       0.0       0.0       1.5       0.0       0.2
 2 C  py              0.0       0.0       0.0       3.3       0.3       0.1
 2 C  dxy             0.0       0.0       0.0       0.2       0.0       0.0
 3 C  s               0.0       0.0       0.0      11.6       6.9       0.1
 3 C  pz              0.0       0.0       0.0       0.0       0.0       0.7
 3 C  px              0.0       0.0       0.0       5.5       6.0       0.0
 3 C  py              0.1       0.1       0.0       0.0       0.0       9.2
 3 C  dz2             0.0       0.0       0.0       0.2       0.1       0.0
 3 C  dx2y2           0.0       0.0       0.0       0.3       0.0       0.0
 4 C  s               0.0      99.5       0.0       1.7      10.6       9.4
 4 C  px              0.0       0.0       0.0       0.6       1.1       0.1
 4 C  py              0.0       0.0       0.0       0.8       1.4       0.1
 4 C  dz2             0.0       0.0       0.0       0.0       0.1       0.1
 5 C  s               0.0       0.1       0.0       0.2      12.0       4.9
 5 C  pz              0.0       0.0       0.0       0.0       0.1       0.0
 5 C  px              0.0       0.2       0.0       0.2       0.5       1.6
 5 C  py              0.0       0.0       0.1       0.0       1.8       0.3
 5 C  dz2             0.0       0.0       0.0       0.0       0.1       0.0
 6 C  s               0.0       0.0      99.5       0.1      12.0       0.1
 6 C  pz              0.0       0.0       0.0       0.0       0.0       0.2
 6 C  px              0.0       0.0       0.0       0.1       2.7       0.0
 6 C  py              0.0       0.0       0.0       0.0       0.0       3.3
 6 C  dz2             0.0       0.0       0.0       0.0       0.1       0.0
 6 C  dxy             0.0       0.0       0.0       0.0       0.0       0.1
 7 C  s               0.1       0.0       0.0       0.2      12.0       7.0
 7 C  px              0.1       0.0       0.0       0.2       0.5       0.9
 7 C  py              0.0       0.0       0.1       0.0       1.8       0.1
 7 C  dz2             0.0       0.0       0.0       0.0       0.1       0.1
 8 C  s              99.5       0.0       0.0       1.6      10.5       7.9
 8 C  px              0.0       0.0       0.0       0.6       1.1       0.4
 8 C  py              0.0       0.0       0.0       0.8       1.4       0.3
 8 C  dz2             0.0       0.0       0.0       0.0       0.1       0.1
 9 H  s               0.0       0.0       0.0       1.1       0.3       1.3
10 H  s               0.0       0.0       0.0       1.0       0.2       2.0
11 H  s               0.0       0.0       0.0       1.1       0.1       2.3
12 H  s               0.0       0.0       0.0       1.1       0.1       3.0
13 H  s               0.0       0.0       0.0       1.1       0.3       2.1
14 H  s               0.0       0.0       0.0       1.0       0.2       2.5
15 H  s               0.0       0.1       0.0       0.3       1.3       2.8
16 H  s               0.0       0.0       0.0       0.0       1.6       1.1
17 H  s               0.0       0.0       0.1       0.0       1.5       0.0
18 H  s               0.0       0.0       0.0       0.0       1.6       1.5
19 H  s               0.1       0.0       0.0       0.3       1.3       2.4

                     12        13        14        15        16        17   
                  -0.66559  -0.64473  -0.58738  -0.52951  -0.50830  -0.47600
                   2.00000   2.00000   2.00000   2.00000   2.00000   2.00000
                  --------  --------  --------  --------  --------  --------
 0 C  s               6.1      12.0       6.4       1.3       2.0       0.7
 0 C  pz              0.0       0.0       0.3       0.1       1.3       1.9
 0 C  px              0.4       0.0       1.8       0.9       0.8       0.6
 0 C  py              0.2       0.2       0.7       0.1       3.5       7.0
 1 N  s               0.1       0.0       5.0       0.0       3.8       0.9
 1 N  pz              0.1       2.1       0.0       0.0       0.0       0.0
 1 N  px             13.8       0.0       7.8       0.0       2.3      11.6
 1 N  py              0.1       8.2       0.0       0.4       0.0       0.0
 1 N  dx2y2           0.1       0.0       0.1       0.0       0.0       0.0
 1 N  dxy             0.0       0.2       0.0       0.1       0.0       0.0
 2 C  s               3.6      11.6       6.3       1.3       2.1       0.7
 2 C  pz              0.0       0.1       0.1       0.1       0.7       1.2
 2 C  px              0.5       0.0       1.8       0.9       0.9       0.5
 2 C  py              0.2       0.2       0.8       0.1       4.1       7.9
 2 C  dxy             0.0       0.0       0.1       0.0       0.1       0.0
 3 C  s              13.7       0.0       0.2       0.0       4.6       0.0
 3 C  pz              0.0       0.0       0.0       0.7       0.0       0.0
 3 C  px              0.1       0.0      11.2       0.0       1.2       7.9
 3 C  py              0.1       1.4       0.0      14.8       0.0       0.0
 3 C  dz2             0.1       0.0       0.0       0.0       0.0       0.0
 3 C  dx2y2           0.0       0.0       0.4       0.0       0.1       0.0
 3 C  dxy             0.0       0.2       0.0       0.1       0.0       0.0
 4 C  s               1.2       5.8       4.5       5.8       0.8       0.2
 4 C  pz              0.1       0.0       0.0       0.0       0.3       0.4
 4 C  px              4.5       2.2       0.1       6.2       4.1       0.8
 4 C  py              1.4       0.2       0.0       0.1       6.3       7.2
 4 C  dx2y2           0.1       0.1       0.0       0.0       0.1       0.0
 5 C  s               5.8       8.2       0.1       6.7       2.7       0.6
 5 C  pz              0.1       0.0       0.1       0.0       0.3       0.3
 5 C  px              2.3       0.8       5.9       4.6       2.2       1.2
 5 C  py              1.2       0.3       1.3       0.2       6.2       4.5
 5 C  dx2y2           0.1       0.1       0.1       0.0       0.0       0.0
 6 C  s              13.7       0.0       9.1       0.0       4.7       0.2
 6 C  pz              0.0       0.3       0.0       0.7       0.0       0.0
 6 C  px              0.2       0.0       0.7       0.0       1.1       3.7
 6 C  py              0.0       5.2       0.0      12.4       0.0       0.0
 6 C  dz2             0.1       0.0       0.0       0.0       0.0       0.0
 6 C  dxy             0.0       0.2       0.0       0.2       0.0       0.0
 7 C  s               3.5       8.3       0.1       6.8       2.6       0.6
 7 C  pz              0.1       0.0       0.1       0.0       0.4       0.2
 7 C  px              3.1       0.8       5.9       4.4       2.3       1.2
 7 C  py              1.4       0.3       1.3       0.2       6.1       4.6
 7 C  dx2y2           0.1       0.1       0.1       0.0       0.0       0.0
 8 C  s               3.0       5.7       4.6       5.6       0.9       0.2
 8 C  pz              0.1       0.0       0.0       0.0       0.3       0.5
 8 C  px              4.0       2.2       0.1       6.4       4.0       0.8
 8 C  py              1.2       0.3       0.0       0.1       6.4       7.3
 8 C  dx2y2           0.1       0.1       0.0       0.0       0.1       0.0
 9 H  s               2.2       2.5       3.8       0.9       1.4       0.0
10 H  s               1.2       2.9       2.3       0.3       1.6       1.6
11 H  s               0.9       3.0       2.1       0.3       2.0       3.0
12 H  s               0.4       3.0       2.0       0.3       2.0       3.3
13 H  s               1.5       2.5       3.7       0.9       1.4       0.0
14 H  s               0.7       2.7       2.3       0.4       1.7       1.5
15 H  s               0.2       0.9       1.4       3.6       1.1       3.5
16 H  s               1.2       2.0       0.0       4.0       2.6       2.9
17 H  s               2.8       0.0       3.3       0.0       2.8       1.4
18 H  s               0.7       2.0       0.1       4.1       2.5       2.8
19 H  s               0.6       0.9       1.4       3.4       1.1       3.6

                     18        19        20        21        22        23   
                  -0.43077  -0.41882  -0.41797  -0.39032  -0.37091  -0.36592
                   2.00000   2.00000   2.00000   2.00000   2.00000   2.00000
                  --------  --------  --------  --------  --------  --------
 0 C  s               0.6       0.2       0.1       0.0       0.1       0.1
 0 C  pz              1.5       5.1      12.7       0.0       5.9       4.5
 0 C  px             10.1       1.2       0.0       7.0       4.2       1.6
 0 C  py              3.4       1.1       7.9       0.5       0.1       0.7
 0 C  dxy             0.2       0.0       0.0       0.0       0.1       0.0
 1 N  s               0.0       0.1       0.1       0.1       0.0       0.0
 1 N  pz              4.0       1.6      17.3       0.0       1.2       0.2
 1 N  px              0.0       6.9       0.5       1.5       0.0       0.0
 1 N  py             17.0       0.3       3.3       0.0       6.2       1.8
 1 N  dx2y2           0.0       0.0       0.0       0.2       0.0       0.0
 1 N  dxy             0.0       0.0       0.0       0.0       0.2       0.0
 2 C  s               0.6       0.3       0.0       0.0       0.1       0.1
 2 C  pz              0.2       0.2      19.9       0.0       0.0       0.3
 2 C  px             10.4       0.8       0.1       7.1       4.5       1.1
 2 C  py              4.3       5.9       1.3       0.6       2.3       4.2
 2 C  dxy             0.2       0.0       0.0       0.0       0.1       0.0
 3 C  s               0.0       0.2       0.0       4.2       0.0       0.0
 3 C  pz              0.9       0.4       4.4       0.0       0.2       0.0
 3 C  px              0.0       3.3       0.3       0.0       0.0       0.0
 3 C  py              3.3       0.0       0.7       0.0      11.4       0.8
 3 C  dx2y2           0.0       0.7       0.1       0.0       0.0       0.0
 3 C  dxy             0.2       0.0       0.0       0.0       0.5       0.2
 4 C  s               0.8       1.8       0.3       0.8       0.3       0.4
 4 C  pz              0.0       0.0       1.0       0.3       0.3       0.6
 4 C  px              2.0       5.2       0.1       0.3       5.8       6.3
 4 C  py              1.8       1.1       0.1       4.1       3.8       7.5
 4 C  dx2y2           0.0       0.2       0.0       0.0       0.0       0.2
 4 C  dxy             0.0       0.0       0.0       0.5       0.0       0.0
 5 C  s               0.2       1.3       0.2       1.2       0.0       0.4
 5 C  pz              0.0       0.0       0.2       0.4       0.4       0.3
 5 C  px              5.8       1.1       0.0       2.3       4.2       6.4
 5 C  py              0.4       0.6       0.1       8.4       6.1       4.3
 5 C  dx2y2           0.0       0.1       0.0       0.0       0.0       0.2
 5 C  dxy             0.0       0.1       0.0       0.4       0.0       0.0
 6 C  s               0.0       2.1       0.2       1.8       0.0       0.0
 6 C  pz              0.4       0.0       0.0       0.0       0.6       0.0
 6 C  px              0.0      19.4       2.0       1.2       0.0       0.0
 6 C  py              5.9       0.0       0.3       0.0      11.3       0.1
 6 C  dx2y2           0.0       0.1       0.0       0.2       0.0       0.0
 6 C  dxy             0.0       0.0       0.0       0.0       0.1       0.3
 7 C  s               0.2       1.4       0.1       1.2       0.0       0.3
 7 C  pz              0.0       0.1       0.1       0.5       0.4       0.2
 7 C  px              5.8       0.6       0.6       1.8       4.8       6.8
 7 C  py              0.4       0.6       0.1       8.5       5.0       5.0
 7 C  dx2y2           0.0       0.1       0.0       0.0       0.0       0.2
 7 C  dxy             0.0       0.0       0.0       0.4       0.0       0.0
 8 C  s               0.8       2.0       0.1       0.8       0.2       0.4
 8 C  pz              0.0       0.2       0.8       0.2       0.4       0.4
 8 C  px              1.9       4.4       1.0       0.4       5.8       6.3
 8 C  py              1.9       0.9       0.1       4.1       4.7       6.8
 8 C  dx2y2           0.0       0.3       0.0       0.0       0.0       0.2
 8 C  dxy             0.0       0.0       0.0       0.5       0.0       0.0
 9 H  s               4.2       0.2       0.6       4.2       2.8       0.6
10 H  s               1.1       0.0       8.2       0.2       0.8       0.3
11 H  s               0.5       3.4       2.0       0.6       1.0       3.7
12 H  s               0.2       0.5       4.8       0.8       0.1       0.4
13 H  s               4.0       0.7       0.4       4.2       1.4       1.4
14 H  s               1.7       2.5       5.7       0.1       0.9       1.6
15 H  s               0.8       3.8       0.3       4.9       0.1       7.0
16 H  s               0.4       0.0       0.0       9.0       0.8       4.1
17 H  s               0.0      13.1       1.3       0.0       0.0       0.0
18 H  s               0.5       0.0       0.0       8.8       0.4       4.7
19 H  s               0.8       3.7       0.3       5.1       0.2       6.5

                     24        25        26        27        28        29   
                  -0.36315  -0.35156  -0.33682  -0.32104  -0.30358  -0.28524
                   2.00000   2.00000   2.00000   2.00000   2.00000   2.00000
                  --------  --------  --------  --------  --------  --------
 0 C  s               0.0       0.2       0.1       0.0       0.0       0.0
 0 C  pz             14.5       0.1       0.8       2.6       0.0       0.5
 0 C  px              0.8      13.4       7.5       1.3       0.3       0.0
 0 C  py              7.9       0.8      11.6       0.1       0.3       1.3
 0 C  dz2             0.0       0.1       0.1       0.0       0.0       0.0
 0 C  dxz             0.0       0.1       0.2       0.0       0.0       0.0
 0 C  dyz             0.2       0.0       0.0       0.0       0.0       0.0
 0 C  dx2y2           0.1       0.3       0.2       0.0       0.0       0.0
 1 N  s               0.0       0.0       0.0       0.0       0.4       0.0
 1 N  pz              0.2       0.0       0.3       0.7       0.0       0.7
 1 N  px              0.0       7.6       0.0       0.0       3.0       0.0
 1 N  py              1.0       0.0       2.5       0.2       0.0       0.4
 1 N  dz2             0.1       0.0       0.0       0.0       0.0       0.0
 1 N  dxz             0.0       0.0       0.1       0.1       0.0       0.0
 1 N  dyz             0.1       0.1       0.0       0.0       0.0       0.0
 1 N  dx2y2           0.0       0.5       0.0       0.0       0.0       0.0
 1 N  dxy             0.0       0.0       0.1       0.0       0.0       0.3
 2 C  s               0.1       0.3       0.1       0.0       0.0       0.0
 2 C  pz             25.2       0.3       1.7       2.5       0.0       0.6
 2 C  px              0.3      12.5       9.7       0.5       0.3       0.0
 2 C  py              1.9       0.3      10.6       0.0       0.3       1.3
 2 C  dz2             0.0       0.1       0.2       0.0       0.0       0.0
 2 C  dxz             0.0       0.0       0.2       0.0       0.0       0.0
 2 C  dyz             0.3       0.1       0.0       0.1       0.0       0.0
 2 C  dx2y2           0.1       0.2       0.2       0.0       0.0       0.0
 3 C  s               0.0       0.0       0.0       0.0       0.1       0.0
 3 C  pz              0.0       0.2       0.6      17.6       0.0       0.3
 3 C  px              0.0      10.1       0.0       0.0       1.7       0.0
 3 C  py              0.3       0.0       0.5       0.6       0.0      10.3
 3 C  dx2y2           0.0       0.0       0.0       0.0       0.8       0.0
 3 C  dxy             0.0       0.0       0.1       0.0       0.0       0.3
 4 C  s               0.0       0.0       0.0       0.0       0.2       0.1
 4 C  pz              0.1       0.0       0.4      13.9       0.0       0.3
 4 C  px              1.9       0.1       1.2       0.3      10.8       0.1
 4 C  py              0.1       4.7       0.7       0.5       0.1       8.6
 4 C  dx2y2           0.0       0.1       0.0       0.0       0.2       0.1
 4 C  dxy             0.0       0.1       0.0       0.0       0.0       0.8
 5 C  s               0.0       0.0       0.1       0.0       0.1       0.1
 5 C  pz              0.0       0.3       0.0      12.4       0.1       0.8
 5 C  px              1.9       0.3       0.9       0.2      11.5       0.1
 5 C  py              0.0       1.9       3.6       0.5       0.2       9.0
 5 C  dx2y2           0.0       0.0       0.0       0.0       0.6       0.1
 5 C  dxy             0.0       0.2       0.0       0.0       0.0       0.8
 6 C  s               0.0       0.5       0.0       0.0       0.1       0.0
 6 C  pz              0.0       0.0       0.5      11.2       0.1       0.4
 6 C  px              0.0       4.5       0.0       0.1      17.2       0.0
 6 C  py              0.6       0.0       0.8       0.6       0.0      11.6
 6 C  dx2y2           0.0       0.0       0.0       0.0       1.4       0.0
 6 C  dxy             0.0       0.0       0.1       0.0       0.0       0.3
 7 C  s               0.1       0.0       0.1       0.0       0.1       0.1
 7 C  pz              0.0       0.1       0.0      12.6       0.0       0.8
 7 C  px              1.4       0.3       0.8       0.0      11.5       0.1
 7 C  py              0.0       3.0       3.1       0.4       0.2       9.0
 7 C  dx2y2           0.0       0.0       0.0       0.0       0.6       0.1
 7 C  dxy             0.0       0.2       0.0       0.0       0.0       0.8
 8 C  s               0.0       0.1       0.0       0.0       0.2       0.1
 8 C  pz              0.1       0.3       0.3      14.0       0.1       0.3
 8 C  px              1.8       0.1       1.3       0.0      10.8       0.1
 8 C  py              0.2       3.6       1.1       0.7       0.0       8.6
 8 C  dx2y2           0.0       0.1       0.0       0.0       0.2       0.1
 8 C  dxy             0.0       0.1       0.0       0.0       0.0       0.8
 9 H  s               0.2       9.3       7.3       0.3       0.1       0.1
10 H  s              11.4       0.4       2.7       0.8       0.1       0.1
11 H  s               5.0       2.6       4.6       1.9       0.0       0.5
12 H  s               6.8       2.7       8.0       1.3       0.0       0.6
13 H  s               1.7       7.6       8.3       0.0       0.1       0.1
14 H  s              11.2       0.0       1.0       1.0       0.0       0.0
15 H  s               0.5       2.0       0.3       0.1       2.2       6.8
16 H  s               0.3       1.6       2.3       0.1       2.4       7.4
17 H  s               0.0       1.6       0.0       0.1      16.1       0.0
18 H  s               0.1       2.2       2.0       0.0       2.6       7.2
19 H  s               0.8       1.8       0.5       0.0       2.1       7.0

                     30        31        32        33        34        35   
                  -0.24617  -0.21594  -0.15835  -0.02109  -0.00443   0.03552
                   2.00000   2.00000   2.00000   0.00000   0.00000   0.00000
                  --------  --------  --------  --------  --------  --------
 0 C  s               0.0       0.0       0.0       0.0       0.1       9.6
 0 C  pz              1.8       0.1       0.3       0.3       0.1       0.1
 0 C  px              0.1       0.0       0.0       0.0       0.1       1.4
 0 C  py              0.7       0.0       0.1       0.0       0.2       0.9
 0 C  dz2             0.1       0.0       0.3       0.0       0.1       0.0
 0 C  dyz             0.2       0.0       0.4       0.0       0.2       0.0
 0 C  dx2y2           0.1       0.0       0.2       0.0       0.1       0.0
 1 N  s               0.0       0.0       0.1       0.0       0.0       0.4
 1 N  pz             14.1       0.0      32.6       0.0       5.2       0.0
 1 N  px              0.0       0.0       0.0       0.0       0.0       0.4
 1 N  py              3.8       0.0       6.9       0.0       1.3       0.0
 1 N  dxz             0.2       0.0       0.0       0.0       0.5       0.0
 2 C  s               0.0       0.0       0.0       0.0       0.0       9.8
 2 C  pz              1.8       0.1       0.2       0.3       0.2       0.1
 2 C  px              0.0       0.0       0.0       0.0       0.0       1.3
 2 C  py              0.5       0.0       0.2       0.0       0.1       0.9
 2 C  dz2             0.0       0.0       0.1       0.0       0.0       0.0
 2 C  dyz             0.3       0.0       0.6       0.0       0.2       0.0
 2 C  dx2y2           0.1       0.0       0.2       0.0       0.1       0.0
 3 C  s               0.0       0.0       0.0       0.0       0.0       0.3
 3 C  pz             19.7       0.0       3.1       0.0      25.8       0.0
 3 C  px              0.1       0.0       0.0       0.0       0.0       0.3
 3 C  py              0.6       0.0       0.3       0.0       1.3       0.0
 3 C  dz2             0.0       0.1       0.0       0.2       0.0       0.0
 3 C  dxz             0.1       0.0       1.1       0.0       0.0       0.0
 3 C  dyz             0.0       0.5       0.0       1.2       0.0       0.0
 3 C  dx2y2           0.0       0.0       0.0       0.1       0.0       0.3
 3 C  dxy             0.1       0.0       0.3       0.0       0.0       0.0
 4 C  s               0.0       0.0       0.0       0.0       0.0       1.3
 4 C  pz              0.3      23.5      11.5      21.8       3.9       0.1
 4 C  px              0.0       0.0       0.0       0.0       0.0       0.5
 4 C  py              0.2       1.2       0.3       1.1       0.3       0.8
 4 C  dz2             0.0       0.0       0.0       0.0       0.1       0.0
 4 C  dxz             0.3       0.2       0.0       0.6       0.7       0.0
 4 C  dyz             0.1       0.0       0.0       0.0       0.5       0.0
 4 C  dxy             0.0       0.0       0.0       0.0       0.1       0.1
 5 C  s               0.0       0.0       0.0       0.0       0.0       0.5
 5 C  pz             10.0      22.8       0.8      22.1       8.5       0.0
 5 C  px              0.0       0.0       0.0       0.0       0.0       0.2
 5 C  py              0.8       1.3       0.0       1.2       0.5       0.4
 5 C  dxz             0.1       0.2       0.4       0.6       0.5       0.0
 5 C  dyz             0.1       0.0       0.1       0.0       0.5       0.0
 5 C  dxy             0.0       0.0       0.0       0.0       0.0       0.2
 6 C  s               0.0       0.0       0.0       0.0       0.0       0.5
 6 C  pz             22.1       0.0      15.6       0.0      27.9       0.0
 6 C  px              0.0       0.0       0.0       0.0       0.0       0.2
 6 C  py              1.0       0.0       1.0       0.0       1.5       0.0
 6 C  dz2             0.0       0.1       0.0       0.2       0.0       0.0
 6 C  dxz             0.1       0.0       0.0       0.0       0.3       0.0
 6 C  dyz             0.0       0.5       0.0       1.3       0.0       0.0
 6 C  dx2y2           0.0       0.0       0.0       0.1       0.0       0.2
 7 C  s               0.0       0.0       0.0       0.0       0.0       0.5
 7 C  pz              9.8      22.8       0.8      22.6       8.0       0.0
 7 C  px              0.0       0.0       0.0       0.0       0.0       0.2
 7 C  py              0.8       1.3       0.0       1.3       0.4       0.3
 7 C  dxz             0.1       0.2       0.4       0.6       0.5       0.0
 7 C  dyz             0.1       0.0       0.1       0.0       0.5       0.0
 7 C  dxy             0.0       0.0       0.0       0.0       0.0       0.2
 8 C  s               0.0       0.0       0.0       0.0       0.0       1.4
 8 C  pz              0.4      23.5      11.5      21.2       4.3       0.1
 8 C  px              0.1       0.0       0.0       0.0       0.0       0.5
 8 C  py              0.2       1.1       0.3       1.0       0.3       0.8
 8 C  dxz             0.3       0.2       0.0       0.7       0.7       0.0
 8 C  dyz             0.1       0.0       0.0       0.0       0.5       0.0
 9 H  s               0.1       0.0       0.3       0.0       0.1      10.4
10 H  s               2.5       0.0       2.8       0.1       0.7       8.6
11 H  s               1.5       0.0       1.7       0.4       0.7       4.9
12 H  s               1.0       0.0       1.3       0.4       0.4       5.6
13 H  s               0.2       0.0       0.4       0.0       0.1      10.4
14 H  s               2.7       0.0       3.2       0.1       1.3       7.9
15 H  s               0.0       0.0       0.0       0.0       0.0       5.6
16 H  s               0.0       0.0       0.0       0.0       0.0       1.9
17 H  s               0.0       0.0       0.0       0.0       0.0       1.6
18 H  s               0.1       0.0       0.0       0.0       0.0       1.9
19 H  s               0.0       0.0       0.0       0.0       0.0       5.6

                     36        37        38        39        40        41   
                   0.05962   0.06922   0.07241   0.09579   0.10784   0.11000
                   0.00000   0.00000   0.00000   0.00000   0.00000   0.00000
                  --------  --------  --------  --------  --------  --------
 0 C  s               1.0       7.5       0.8       4.5       0.2       0.2
 0 C  pz              0.7       0.2       1.0       1.4       9.0       2.1
 0 C  px              2.9       0.1       9.2       1.4       3.6       0.9
 0 C  py              0.6       3.7       0.8       0.7       2.9       4.0
 0 C  dz2             0.0       0.0       0.1       0.2       0.6       0.0
 0 C  dxz             0.1       0.0       0.0       0.3       0.9       0.0
 0 C  dyz             0.1       0.0       0.0       0.0       0.0       0.8
 0 C  dx2y2           0.0       0.0       0.8       0.0       0.0       0.0
 0 C  dxy             0.1       0.0       0.3       0.0       0.0       0.1
 1 N  s               2.4       0.0       1.1       0.0       0.7       5.9
 1 N  pz              0.0       0.2       0.0       0.0       0.3       0.0
 1 N  px              0.4       0.0       1.4       0.0       0.1       0.0
 1 N  py              0.0       1.0       0.0       1.8       1.1       0.1
 1 N  dz2             0.0       0.0       0.2       0.0       0.1       0.0
 1 N  dyz             0.0       0.0       0.3       0.0       0.0       0.2
 1 N  dx2y2           0.1       0.0       1.2       0.0       0.0       0.1
 1 N  dxy             0.0       0.0       0.0       0.9       0.4       0.1
 2 C  s               1.2       6.1       2.2       4.6       0.0       0.2
 2 C  pz              0.2       0.2       0.7       2.0       1.3       2.1
 2 C  px              3.3       0.1       9.8       1.1       1.3       0.4
 2 C  py              0.7       3.0       1.2       0.5       1.7       8.7
 2 C  dz2             0.0       0.0       0.1       0.2       0.1       0.5
 2 C  dxz             0.0       0.0       0.0       0.3       0.2       0.2
 2 C  dyz             0.0       0.0       0.1       0.0       0.0       0.6
 2 C  dx2y2           0.1       0.0       0.7       0.0       0.0       0.0
 2 C  dxy             0.2       0.0       0.3       0.1       0.0       0.2
 3 C  s               0.3       0.0       1.3       0.0       0.2       0.9
 3 C  pz              0.0       0.0       0.0       0.4       1.3       0.1
 3 C  px              0.3       0.0       0.1       0.0       0.5       1.5
 3 C  py              0.0       0.4       0.0       0.8       0.1       0.0
 3 C  dz2             0.0       0.0       0.3       0.0       0.0       0.1
 3 C  dyz             0.0       0.0       0.1       0.0       0.0       0.1
 3 C  dx2y2           0.6       0.0       0.0       0.0       0.2       1.0
 3 C  dxy             0.0       0.0       0.0       1.2       0.1       0.0
 4 C  s               1.1       1.2       0.1       0.2       1.1       0.5
[...]
 7 C  dxz             2.7       6.3       1.0       0.1       0.3       0.3
 7 C  dyz             0.2       2.5       0.0       0.0       0.4       0.0
 7 C  dx2y2           3.4       0.0       0.5       5.6      12.3       0.0
 7 C  dxy             0.6       0.3       1.6       7.1       4.9       0.2
 8 C  s               0.2       0.0       0.3       2.5       0.8       0.3
 8 C  px              0.7       0.1       0.5       0.3       2.9       0.1
 8 C  py              0.4       0.0       0.0       0.8       0.1       0.2
 8 C  dz2             1.4       0.1       1.2       2.1       0.1       0.8
 8 C  dxz             0.7       8.0       0.7       0.2       0.3       0.3
 8 C  dyz             0.2       4.0       0.9       0.3       0.2       0.0
 8 C  dx2y2           3.3       1.1       4.1       0.2      12.9       0.0
 8 C  dxy             4.8       0.1       0.7      13.8       4.2       0.0
10 H  s               0.0       0.0       0.1       0.0       0.0       0.2
11 H  s               0.0       0.0       0.1       0.0       0.0       0.1
12 H  s               0.1       0.0       0.2       0.0       0.0       0.1
14 H  s               0.0       0.1       0.0       0.0       0.0       0.1
15 H  s               0.2       0.0       0.2       0.5       0.0       0.0
16 H  s               0.2       0.1       0.2       0.4       0.0       0.0
17 H  s               0.9       0.1       0.0       0.0       0.0       0.0
18 H  s               0.2       0.0       0.1       0.5       0.0       0.0
19 H  s               0.3       0.0       0.2       0.4       0.0       0.0

                    144       145       146       147   
                   2.84788   2.98156   3.19693   3.36488
                   0.00000   0.00000   0.00000   0.00000
                  --------  --------  --------  --------
 0 C  s               0.3       0.2       0.4       0.0
 0 C  pz              0.1       0.0       0.2       0.0
 0 C  px              0.1       0.3       0.1       0.0
 0 C  py              0.3       0.1       0.5       0.0
 0 C  dz2             0.1       0.3       0.0       0.0
 0 C  dxz             0.1       0.7       0.1       0.1
 0 C  dyz             0.5       0.0       1.5       0.0
 0 C  dx2y2           0.8       0.6       1.5       0.1
 0 C  dxy             0.7       1.5       0.7       0.1
 1 N  s               0.0       0.7       0.0       0.3
 1 N  pz              0.1       0.0       0.1       0.0
 1 N  px              0.0       3.0       0.0       1.1
 1 N  py              0.8       0.0       0.3       0.0
 1 N  dz2             0.1       4.5       0.1       0.3
 1 N  dxz             3.8       0.1       5.2       0.0
 1 N  dyz             0.2       3.0       0.0       0.4
 1 N  dx2y2           0.0      41.5       0.0       6.5
 1 N  dxy             7.6       0.1      36.5       0.0
 2 C  s               0.3       0.2       0.4       0.0
 2 C  pz              0.1       0.0       0.1       0.0
 2 C  px              0.1       0.3       0.1       0.0
 2 C  py              0.3       0.1       0.7       0.0
 2 C  dz2             0.1       0.2       0.1       0.0
 2 C  dxz             0.2       0.2       0.1       0.0
 2 C  dyz             0.3       0.0       0.8       0.0
 2 C  dx2y2           0.7       0.6       2.1       0.0
 2 C  dxy             0.7       1.8       0.9       0.2
 3 C  s               0.0       3.8       0.0       0.1
 3 C  pz              0.1       0.0       0.0       0.0
 3 C  px              0.0       3.1       0.0       0.9
 3 C  py              1.3       0.0       0.6       0.0
 3 C  dz2             0.0       3.0       0.0       0.0
 3 C  dxz             0.2       0.0       2.1       0.0
 3 C  dyz             0.0       0.0       0.0       1.2
 3 C  dx2y2           0.0       5.7       0.0      17.8
 3 C  dxy             0.3       0.0      23.6       0.0
 4 C  s               0.3       0.3       0.2       1.2
 4 C  px              1.5       0.4       0.8       0.0
 4 C  py              0.1       0.0       0.9       0.1
 4 C  dz2             0.0       0.4       0.0       0.5
 4 C  dxz             0.2       0.0       0.0       0.5
 4 C  dyz             0.3       0.1       0.2       0.0
 4 C  dx2y2           2.0       0.0       5.2       4.1
 4 C  dxy             3.7       0.2       0.6       8.2
 5 C  s               0.2       0.7       0.1       1.2
 5 C  px              2.0       0.1       0.6       0.0
 5 C  py              1.2       0.1       0.0       0.1
 5 C  dz2             0.0       0.7       0.0       0.6
 5 C  dxz             0.4       0.1       0.0       0.4
 5 C  dyz             0.7       0.0       0.0       0.0
 5 C  dx2y2           8.8       2.2       1.0       2.9
 5 C  dxy             6.2       2.2       0.1       8.1
 6 C  s               0.0       0.4       0.0       1.3
 6 C  pz              0.3       0.0       0.0       0.0
 6 C  px              0.0       0.0       0.0       0.1
 6 C  py              5.1       0.0       0.2       0.0
 6 C  dz2             0.0       0.2       0.0       0.3
 6 C  dxz             1.0       0.0       0.0       0.0
 6 C  dyz             0.0       0.7       0.0       1.1
 6 C  dx2y2           0.0       7.3       0.0       9.9
 6 C  dxy            17.9       0.0       0.6       0.0
 7 C  s               0.2       0.7       0.1       1.1
 7 C  px              2.0       0.1       0.5       0.0
 7 C  py              1.3       0.1       0.0       0.1
 7 C  dz2             0.0       0.7       0.0       0.5
 7 C  dxz             0.3       0.2       0.0       0.5
 7 C  dyz             0.6       0.0       0.0       0.0
 7 C  dx2y2           8.2       2.4       1.1       3.0
 7 C  dxy             6.9       2.0       0.0       7.9
 8 C  s               0.3       0.3       0.2       1.2
 8 C  px              1.4       0.4       0.8       0.0
 8 C  py              0.1       0.0       0.9       0.1
 8 C  dz2             0.0       0.4       0.0       0.6
 8 C  dxz             0.1       0.0       0.1       0.4
 8 C  dyz             0.2       0.1       0.3       0.0
 8 C  dx2y2           2.2       0.0       5.4       3.8
 8 C  dxy             3.8       0.2       0.5       8.3
15 H  s               0.0       0.0       0.0       0.5
16 H  s               0.0       0.1       0.0       0.5
17 H  s               0.0       0.4       0.0       0.4
18 H  s               0.0       0.1       0.0       0.5
19 H  s               0.0       0.0       0.0       0.5


                      *****************************
                      * MAYER POPULATION ANALYSIS *
                      *****************************

  NA   - Mulliken gross atomic population
  ZA   - Total nuclear charge
  QA   - Mulliken gross atomic charge
  VA   - Mayer's total valence
  BVA  - Mayer's bonded valence
  FA   - Mayer's free valence

  ATOM       NA         ZA         QA         VA         BVA        FA
  0 C      6.1738     6.0000    -0.1738     3.9312     3.9312    -0.0000
  1 N      7.2522     7.0000    -0.2522     3.3588     3.3588     0.0000
  2 C      6.1747     6.0000    -0.1747     3.9366     3.9366     0.0000
  3 C      5.7479     6.0000     0.2521     3.8736     3.8736    -0.0000
  4 C      6.1674     6.0000    -0.1674     3.8273     3.8273    -0.0000
  5 C      6.0566     6.0000    -0.0566     3.8448     3.8448     0.0000
  6 C      6.0528     6.0000    -0.0528     3.7962     3.7962     0.0000
  7 C      6.0571     6.0000    -0.0571     3.8479     3.8479     0.0000
  8 C      6.1752     6.0000    -0.1752     3.8260     3.8260     0.0000
  9 H      0.8884     1.0000     0.1116     0.9613     0.9613    -0.0000
 10 H      0.8897     1.0000     0.1103     0.9434     0.9434     0.0000
 11 H      0.8844     1.0000     0.1156     0.9573     0.9573     0.0000
 12 H      0.8798     1.0000     0.1202     0.9551     0.9551     0.0000
 13 H      0.8871     1.0000     0.1129     0.9575     0.9575    -0.0000
 14 H      0.8963     1.0000     0.1037     0.9455     0.9455    -0.0000
 15 H      0.9721     1.0000     0.0279     0.9656     0.9656    -0.0000
 16 H      0.9558     1.0000     0.0442     0.9487     0.9487     0.0000
 17 H      0.9602     1.0000     0.0398     0.9497     0.9497     0.0000
 18 H      0.9559     1.0000     0.0441     0.9487     0.9487     0.0000
 19 H      0.9727     1.0000     0.0273     0.9655     0.9655     0.0000

  Mayer bond orders larger than 0.100000
B(  0-C ,  1-N ) :   1.0412 B(  0-C ,  9-H ) :   0.9489 B(  0-C , 10-H ) :   0.9444 
B(  0-C , 11-H ) :   0.9389 B(  1-N ,  2-C ) :   1.0488 B(  1-N ,  3-C ) :   1.1530 
B(  2-C , 12-H ) :   0.9404 B(  2-C , 13-H ) :   0.9490 B(  2-C , 14-H ) :   0.9404 
B(  3-C ,  4-C ) :   1.3043 B(  3-C ,  8-C ) :   1.3037 B(  4-C ,  5-C ) :   1.3919 
B(  4-C , 15-H ) :   0.9555 B(  5-C ,  6-C ) :   1.3622 B(  5-C , 16-H ) :   0.9606 
B(  6-C ,  7-C ) :   1.3661 B(  6-C , 17-H ) :   0.9680 B(  7-C ,  8-C ) :   1.3887 
B(  7-C , 18-H ) :   0.9603 B(  8-C , 19-H ) :   0.9564 

-------
TIMINGS
-------

Total SCF time: 0 days 0 hours 0 min 4 sec 

Total time                  ....       4.535 sec
Sum of individual times     ....       4.506 sec  ( 99.4%)

SCF preparation             ....       0.168 sec  (  3.7%)
Fock matrix formation       ....       3.547 sec  ( 78.2%)
  Startup                   ....       0.008 sec  (  0.2% of F)
  Split-RI-J                ....       1.639 sec  ( 46.2% of F)
  XC integration            ....       1.825 sec  ( 51.4% of F)
    Basis function eval.    ....       0.758 sec  ( 41.5% of XC)
    Density eval.           ....       0.393 sec  ( 21.5% of XC)
    XC-Functional eval.     ....       0.130 sec  (  7.1% of XC)
    XC-Potential eval.      ....       0.411 sec  ( 22.5% of XC)
Diagonalization             ....       0.000 sec  (  0.0%)
Density matrix formation    ....       0.025 sec  (  0.5%)
Total Energy calculation    ....       0.002 sec  (  0.0%)
Population analysis         ....       0.681 sec  ( 15.0%)
Orbital Transformation      ....       0.012 sec  (  0.3%)
Orbital Orthonormalization  ....       0.000 sec  (  0.0%)
DIIS solution               ....       0.055 sec  (  1.2%)
  MO trafo                  ....       0.000 sec  (  0.0 % of DIIS)
  Orb grad                  ....       0.000 sec  (  0.0 % of DIIS)
  Energy W gradient         ....       0.000 sec  (  0.0 % of DIIS)
  DIIS error                ....       0.003 sec  (  5.1 % of DIIS)
  DIIS work                 ....       0.046 sec  ( 82.8 % of DIIS)
  Form Q                    ....       0.000 sec  (  0.0 % of DIIS)
  Form QpQm                 ....       0.000 sec  (  0.0 % of DIIS)
  Exp/Cayley                ....       0.000 sec  (  0.0 % of DIIS)
  Orb update                ....       0.000 sec  (  0.0 % of DIIS)
  Wake-sleep                ....       0.001 sec  (  1.5 % of DIIS)
SOSCF solution              ....       0.016 sec  (  0.4%)
  MO trafo                  ....       0.010 sec  ( 61.0 % of SOSCF)
  Orb grad                  ....       0.000 sec  (  0.9 % of SOSCF)
  Rot update                ....       0.002 sec  (  9.6 % of SOSCF)
  Step                      ....       0.004 sec  ( 28.1 % of SOSCF)
Finished LeanSCF after   5.6 sec

Maximum memory used throughout the entire LEANSCF-calculation: 14.5 MB


-------------------------------------------------------------------------------
                          DFT DISPERSION CORRECTION                            
                                                                               
                                DFTD4 V3.4.0                                   
-------------------------------------------------------------------------------
The PBE functional is recognized
Active option DFTDOPT                   ...         5   

-------------------------   ----------------
Dispersion correction           -0.020399619
-------------------------   ----------------

------------------   -----------------
gCP correction             0.081406241
------------------   -----------------

-------------------------   --------------------
FINAL SINGLE POINT ENERGY      -365.379498449414
-------------------------   --------------------


------------------------------------------------------------------------------
                              ORCA PROPERTY CALCULATIONS
------------------------------------------------------------------------------

GBWName                                 ... sp.gbw
Number of atoms                         ...     20
Number of basis functions               ...    148
Max core memory                         ...   1024 MB

Electric properties:
Dipole moment                           ... YES
Quadrupole moment                       ...  NO
Static polarizability (Dipole/Dipole)   ...  NO
Static polarizability (Dipole/Quad.)    ...  NO
Static polarizability (Quad./Quad.)     ...  NO
Static polarizability (Velocity)        ...  NO

Atomic electric properties:
Dipole moment                           ...  NO
Quadrupole moment                       ...  NO
Static polarizability                   ...  NO

Choice of electric origin               ... Center of mass
Position of electric origin             ...    -0.000018    -0.000000     0.000000

General magnetic properties:
Magnetizability                         ...  NO

EPR properties:
g-Tensor (aka g-matrix)                 ...  NO
Zero-Field splitting spin-orbit         ...  NO
Zero-field splitting spin-spin          ...  NO
Hyperfine couplings                     ...  NO (   0 nuclei)
Quadrupole couplings                    ...  NO (   0 nuclei)
Contact density                         ...  NO (   0 nuclei)

NMR properties:
Chemical shifts                         ...  NO (   0 nuclei)
Spin-rotation constants                 ...  NO (   0 nuclei)
Spin-spin couplings                     ...  NO (   0 nuclei,    0 pairs)

Choice of magnetic origin               ... GIAO
Position of magnetic origin             ...     0.000000     0.000000     0.000000

Properties with geometric perturbations:
SCF Hessian                             ...  NO
IR spectrum                             ...  NO
VCD spectrum                            ...  NO
X-ray spectroscopy properties:
SCF XES/XAS/RIXS spectra                ...  NO


-------------
DIPOLE MOMENT
-------------

Method             : SCF
Type of density    : Electron Density
Multiplicity       :   1
Irrep              :   0
Energy             :  -365.4405050720177996 Eh
Relativity type    : 
Basis              : AO
                                X                 Y                 Z
Electronic contribution:      5.492761993       0.101504152      -0.285141396
Nuclear contribution   :     -6.378617712      -0.114499285       0.323006391
                        -----------------------------------------
Total Dipole Moment    :     -0.885855719      -0.012995133       0.037864996
                        -----------------------------------------
Magnitude (a.u.)       :      0.886759825
Magnitude (Debye)      :      2.253964349



--------------------
Rotational spectrum 
--------------------
 
Rotational constants in cm-1:             0.118246             0.041086             0.031017 
Rotational constants in MHz :          3544.922239          1231.716067           929.877023 

Dipole components along the rotational axes: 
x,y,z [a.u.] :    -0.885955    -0.000733     0.037766 
x,y,z [Debye]:    -2.251919    -0.001864     0.095993 

 

Dipole moment calculation done in   0.3 sec 

Maximum memory used throughout the entire PROP-calculation: 9.3 MB

--------------------------------
SUGGESTED CITATIONS FOR THIS RUN
--------------------------------

Below you find a list of papers that are relevant to this ORCA run
We neither can nor want to force you to cite these papers, but we appreciate if you do
You receive ORCA, which is the product of decades of hard work by many enthusiastic individuals, for free
The only thing we kindly ask in return is that you cite our papers,
We deeply appreciate it, if you show your appreciation for ORCA by not just citing the generic ORCA reference.

Please note that relegating all ORCA citations to the supporting information does *not* help us.
SI sections are not indexed - citations you put there will not count into any citation statistics
But we need these citations in order to attract the funding resources that allow us to do what we are doing

Therefore, if you are a happy ORCA user, please consider citing a few of the papers listed below in the main body of your paper

In addition to the list printed below, the program has created the file sp.bibtex that contains the list in bibtex format
You can import this file easily into all common literature databanks and citation aid programs


List of essential papers. We consider these as the minimum necessary citations

  1. Neese,F.
     Software update: the ORCA program system, version 5.0
     WIRES Comput. Molec. Sci., 2022 12(1)e1606
     doi.org/10.1002/wcms.1606

List of papers to cite with high priority. The work reported in these papers was absolutely
necessary for this run to complete.
Our perspective: the developers of density functionals and basis sets usually get cited in chemistry papers
Good! But without the algorithms to do something with them, the functionals or basis sets would not do anything.
Hence, in our opinion, the algorithm design and method developments papers are equally worthy of getting cited

  1. Neese,F.
     An improvement of the resolution of the identity approximation for the formation of the Coulomb matrix
     J. Comp. Chem., 2003 24(14)1740-1747
     doi.org/10.1002/jcc.10318
  2. Neese,F.
     The SHARK Integral Generation and Digestion System
     J. Comp. Chem., 2022  1-16
     doi.org/10.1002/jcc.26942
  3. Caldeweyher,E.; Bannwarth,C.; Grimme,S.
     Extension of the D3 dispersion coefficient model
     J. Chem. Phys., 2017 147 034112
     doi.org/10.1063/1.4993215
  4. Caldeweyher,E.; Ehlert,S.; Hansen,A.; Neugebauer,H.; Spicher,S.; Bannwarth,C.; Grimme,S.
     A generally applicable atomic-charge dependent London dispersion correction
     J. Chem. Phys., 2019 150 154122
     doi.org/10.1063/1.5090222
  5. Caldeweyher,E.; Mewes,J.; Ehlert,S.; Grimme,S.
     Extension and evaluation of the D4 London-dispersion model for periodic systems
     Phys. Chem. Chem. Phys., 2020 22(16)8499-8512
     doi.org/10.1039/D0CP00502A
  6. Wittmann,L.; Gordiy,I.; Friede,M.; Helmich-Paris,B.; Grimme,S.; Hansen,A.; Bursch,M.
     Extension of the D3 and D4 London Dispersion Corrections to the full Actinides Series
     Phys. Chem. Chem. Phys., 2024 26(32)21379-21394
     doi.org/https://doi.org/10.1039/D4CP01514B 

List of suggested additional citations. These are papers that are important in the 'surrounding' of 
of this run, or papers that preceded the highly important papers. If you like your results we are grateful for a citation.

  1. Neese,F.
     The ORCA program system
     WIRES Comput. Molec. Sci., 2012 2(1)73-78
     doi.org/10.1002/wcms.81
  2. Neese,F.
     Software update: the ORCA program system, version 4.0
     WIRES Comput. Molec. Sci., 2018 8(1)1-6
     doi.org/10.1002/wcms.1327
  3. Neese,F.; Wennmohs,F.; Becker,U.; Riplinger,C.
     The ORCA quantum chemistry program package
     J. Chem. Phys., 2020 152 Art. No. L224108
     doi.org/10.1063/5.0004608

List of optional additional citations

  1. Neese,F.
     Approximate second-order SCF convergence for spin unrestricted wavefunctions
     Chem. Phys. Lett., 2000 325(1-3)93-98
     doi.org/10.1016/s0009-2614(00)00662-x

Timings for individual modules:

Sum of individual times          ...        6.968 sec (=   0.116 min)
Startup calculation              ...        0.479 sec (=   0.008 min)   6.9 %
SCF iterations                   ...        6.117 sec (=   0.102 min)  87.8 %
Property calculations            ...        0.372 sec (=   0.006 min)   5.3 %
                             ****ORCA TERMINATED NORMALLY****
TOTAL RUN TIME: 0 days 0 hours 0 minutes 8 seconds 848 msec
