
                                 *****************
                                 * O   R   C   A *
                                 *****************

                                            #,                                       
                                            ###                                      
                                            ####                                     
                                            #####                                    
                                            ######                                   
                                           ########,                                 
                                     ,,################,,,,,                         
                               ,,#################################,,                 
                          ,,##########################################,,             
                       ,#########################################, ''#####,          
                    ,#############################################,,   '####,        
                  ,##################################################,,,,####,       
                ,###########''''           ''''###############################       
              ,#####''   ,,,,##########,,,,          '''####'''          '####       
            ,##' ,,,,###########################,,,                        '##       
           ' ,,###''''                  '''############,,,                           
         ,,##''                                '''############,,,,        ,,,,,,###''
      ,#''                                            '''#######################'''  
     '                                                          ''''####''''         
             ,#######,   #######,   ,#######,      ##                                
            ,#'     '#,  ##    ##  ,#'     '#,    #''#        ,####,   ,####,        
            ##       ##  ##   ,#'  ##            #'  '#       #'       #'  '#        
            ##       ##  #######   ##           ,######,      #####,   #    #        
            '#,     ,#'  ##    ##  '#,     ,#' ,#      #,     #,   #   #,  ,#        
             '#######'   ##     ##  '#######'  #'      '#     '####' # '####'        



                #########################################################
                #                        -***-                          #
                #          Department of theory and spectroscopy        #
                #                                                       #
                #                      Frank Neese                      #
                #                                                       #
                #     Directorship, Architecture, Infrastructure        #
                #                    SHARK, DRIVERS                     #
                #        Core code/Algorithms in most modules           #
                #                                                       #
                #        Max Planck Institute fuer Kohlenforschung      #
                #                Kaiser Wilhelm Platz 1                 #
                #                 D-45470 Muelheim/Ruhr                 #
                #                      Germany                          #
                #                                                       #
                #                  All rights reserved                  #
                #                        -***-                          #
                #########################################################


                         Program Version 6.0.0  -   RELEASE  -


 With contributions from (in alphabetic order):
   Daniel Aravena         : Magnetic Suceptibility
   Michael Atanasov       : Ab Initio Ligand Field Theory (pilot matlab implementation)
   Alexander A. Auer      : GIAO ZORA, VPT2 properties, NMR spectrum
   Ute Becker             : All parallelization in ORCA, NUMFREQ, NUMCALC
   Giovanni Bistoni       : ED, misc. LED, open-shell LED, HFLD
   Martin Brehm           : Molecular dynamics
   Dmytro Bykov           : pre 5.0 version of the SCF Hessian
   Marcos Casanova-Páez   : Triplet and SCS-CIS(D). UHF-(DLPNO)-IP/EA/STEOM-CCSD. UHF-CVS-IP/STEOM-CCSD
   Vijay G. Chilkuri      : MRCI spin determinant printing, contributions to CSF-ICE
   Pauline Colinet        : FMM embedding
   Dipayan Datta          : RHF DLPNO-CCSD density
   Achintya Kumar Dutta   : EOM-CC, STEOM-CC
   Nicolas Foglia         : Exact transition moments, OPA infrastructure, MCD improvements
   Dmitry Ganyushin       : Spin-Orbit,Spin-Spin,Magnetic field MRCI
   Miquel Garcia          : C-PCM and meta-GGA Hessian, CCSD/C-PCM, Gaussian charge scheme
   Tiago L. C. Gouveia    : GS-ROHF, GS-ROCIS
   Yang Guo               : DLPNO-NEVPT2, F12-NEVPT2, CIM, IAO-localization
   Andreas Hansen         : Spin unrestricted coupled pair/coupled cluster methods
   Ingolf Harden          : AUTO-CI MPn and infrastructure 
   Benjamin Helmich-Paris : MC-RPA, TRAH-(SCF,CASSCF), AVAS, COSX integrals, SCF dyn. polar.
   Lee Huntington         : MR-EOM, pCC
   Robert Izsak           : Overlap fitted RIJCOSX, COSX-SCS-MP3, EOM
   Riya Kayal             : Wick's Theorem for AUTO-CI, AUTO-CI UHF-CCSDT
   Emily Kempfer          : AUTO-CI, RHF CISDT and CCSDT
   Christian Kollmar      : KDIIS, OOCD, Brueckner-CCSD(T), CCSD density, CASPT2, CASPT2-K, improved NEVPT2
   Axel Koslowski         : Symmetry handling
   Simone Kossmann        : Meta GGA functionals, TD-DFT gradient, OOMP2, (MP2 Hessian; deprecated post 5.0)
   Lucas Lang             : DCDCAS
   Marvin Lechner         : AUTO-CI (C++ implementation), FIC-MRCC
   Spencer Leger          : CASSCF response
   Dagmar Lenk            : GEPOL surface, SMD, ORCA-2-JSON
   Dimitrios Liakos       : Extrapolation schemes; Compound Job, initial MDCI parallelization
   Dimitrios Manganas     : Further ROCIS development; embedding schemes. LFT, Crystal Embedding
   Dimitrios Pantazis     : SARC Basis sets
   Anastasios Papadopoulos: AUTO-CI, single reference methods and gradients
   Taras Petrenko         : pre 6.0 DFT Hessian and TD-DFT gradient, (ASA, deprecated), ECA, 1-Electron XAS/XES, NRVS
   Peter Pinski           : DLPNO-MP2, DLPNO-MP2 Gradient
   Christoph Reimann      : Effective Core Potentials
   Marius Retegan         : Local ZFS, SOC
   Christoph Riplinger    : Optimizer, TS searches, QM/MM, DLPNO-CCSD(T), (RO)-DLPNO pert. Triples
   Michael Roemelt        : Original ROCIS implementation
   Masaaki Saitow         : Open-shell DLPNO-CCSD energy and density
   Barbara Sandhoefer     : DKH picture change effects
   Kantharuban Sivalingam : CASSCF convergence/infrastructure, NEVPT2 and variants, FIC-MRCI
   Bernardo de Souza      : ESD, SOC TD-DFT
   Georgi Stoychev        : AutoAux, RI-MP2 NMR, DLPNO-MP2 response, X2C
   Van Anh Tran           : RI-MP2 g-tensors
   Willem Van den Heuvel  : Paramagnetic NMR
   Zikuan Wang            : NOTCH, Electric field optimization 
   Frank Wennmohs         : Technical directorship and infrastructure
   Hang Xu                : AUTO-CI-Response properties 


 We gratefully acknowledge several colleagues who have allowed us to
 interface, adapt or use parts of their codes:
   Stefan Grimme, W. Hujo, H. Kruse, P. Pracht,  : VdW corrections, initial TS optimization,
                  C. Bannwarth, S. Ehlert,         DFT functionals, gCP, sTDA/sTD-DF
                  L. Wittmann, M. Mueller
   Ed Valeev, F. Pavosevic, A. Kumar             : LibInt (2-el integral package), F12 methods
   Garnet Chan, S. Sharma, J. Yang, R. Olivares  : DMRG
   Ulf Ekstrom                                   : XCFun DFT Library
   Mihaly Kallay                                 : mrcc  (arbitrary order and MRCC methods)
   Frank Weinhold                                : gennbo (NPA and NBO analysis)
   Simon Mueller                                 : openCOSMO-RS
   Christopher J. Cramer and Donald G. Truhlar   : smd solvation model
   Lars Goerigk                                  : TD-DFT with DH, B97 family of functionals
   V. Asgeirsson, H. Jonsson                     : NEB implementation
   FAccTs GmbH                                   : IRC, NEB, NEB-TS, DLPNO-Multilevel, CI-OPT
                                                   MM, QMMM, 2- and 3-layer-ONIOM, Crystal-QMMM,
                                                   LR-CPCM, SF, NACMEs, symmetry and pop. for TD-DFT,
                                                   nearIR, NL-DFT gradient (VV10), updates on ESD,
                                                   ML-optimized integration grids, MBIS, APM,
                                                   GOAT, DOCKER, SOLVATOR, interface openCOSMO-RS
   S Lehtola, MJT Oliveira, MAL Marques          : LibXC Library
   Liviu Ungur et al                             : ANISO software


 Your calculation uses the libint2 library for the computation of 2-el integrals
 For citations please refer to: http://libint.valeyev.net

 Your ORCA version has been built with support for libXC version: 6.2.2
 For citations please refer to: https://libxc.gitlab.io

 This ORCA versions uses:
   CBLAS   interface :  Fast vector & matrix operations
   LAPACKE interface :  Fast linear algebra routines
   SCALAPACK package :  Parallel linear algebra routines
   Shared memory     :  Shared parallel matrices
   BLAS/LAPACK       :  OpenBLAS 0.3.27  USE64BITINT DYNAMIC_ARCH NO_AFFINITY SkylakeX SINGLE_THREADED
        Core in use  :  SkylakeX
   Copyright (c) 2011-2014, The OpenBLAS Project




***************************************
The coordinates will be read from file: censo.xyz
***************************************


Your calculation utilizes the geometrical counterpoise correction gCP
Please cite in your paper:
H.Kruse, S. Grimme J.Chem.Phys., 136, (2012), 154101 
   

Your calculation utilizes the atom-pairwise dispersion correction
based on EEQ partial charges (D4)


================================================================================

----- Orbital basis set information -----
Your calculation utilizes the basis: def2-TZVP
   F. Weigend and R. Ahlrichs, Phys. Chem. Chem. Phys. 7, 3297 (2005).

----- AuxJ basis set information -----
Your calculation utilizes the basis: def2-mTZVPP/J
   Stefan Grimme, Andreas Hansen, Sebastian Ehlert, and Jan-Michael Mewes 
   J. Chem. Phys. 154, 000000 (2021). DOI: 10.1063/5.0040021

================================================================================
                                        WARNINGS
                       Please study these warnings very carefully!
================================================================================

Using LibXC functional ID 497 : Re-regularized SCAN exchange by Furness et al
[ 1]  J. W. Furness, A. D. Kaplan, J. Ning, J. P. Perdew, and J. Sun.,  J. Phys. Chem. Lett. 11, 8208-8215 (2020)
[ 2]  J. W. Furness, A. D. Kaplan, J. Ning, J. P. Perdew, and J. Sun.,  J. Phys. Chem. Lett. 11, 9248-9248 (2020)
Using LibXC functional ID 498 : Re-regularized SCAN correlation by Furness et al
[ 1]  J. W. Furness, A. D. Kaplan, J. Ning, J. P. Perdew, and J. Sun.,  J. Phys. Chem. Lett. 11, 8208-8215 (2020)
[ 2]  J. W. Furness, A. D. Kaplan, J. Ning, J. P. Perdew, and J. Sun.,  J. Phys. Chem. Lett. 11, 9248-9248 (2020)
Using LibXC functional ID 497 : Re-regularized SCAN exchange by Furness et al
[ 1]  J. W. Furness, A. D. Kaplan, J. Ning, J. P. Perdew, and J. Sun.,  J. Phys. Chem. Lett. 11, 8208-8215 (2020)
[ 2]  J. W. Furness, A. D. Kaplan, J. Ning, J. P. Perdew, and J. Sun.,  J. Phys. Chem. Lett. 11, 9248-9248 (2020)
Using LibXC functional ID 498 : Re-regularized SCAN correlation by Furness et al
[ 1]  J. W. Furness, A. D. Kaplan, J. Ning, J. P. Perdew, and J. Sun.,  J. Phys. Chem. Lett. 11, 8208-8215 (2020)
[ 2]  J. W. Furness, A. D. Kaplan, J. Ning, J. P. Perdew, and J. Sun.,  J. Phys. Chem. Lett. 11, 9248-9248 (2020)

================================================================================
                                       INPUT FILE
================================================================================
NAME = censo.inp
|  1> ! r2SCAN-3c DEF2-TZVP FREQ
|  2> * xyzfile 0 1 censo.xyz
|  3> 
|  4>                          ****END OF INPUT****
================================================================================

                       ****************************
                       * Single Point Calculation *
                       ****************************

---------------------------------
CARTESIAN COORDINATES (ANGSTROEM)
---------------------------------
  C     -2.403751    0.036374   -0.000039
  C     -0.905092    0.011297    0.000078
  C     -0.181463    1.209247    0.000023
  C      1.204201    1.170668   -0.000192
  C      1.839529   -0.068756   -0.000286
  C      1.048352   -1.207034   -0.000108
  N     -0.295045   -1.186527    0.000026
  H     -2.780290    0.565312   -0.882246
  H     -2.811999   -0.975393    0.003527
  H     -2.780554    0.571868    0.878052
  H     -0.711824    2.156657    0.000113
  H      1.781340    2.090123   -0.000309
  H      2.920868   -0.151364   -0.000419
  H      1.510377   -2.192204   -0.000235

----------------------------
CARTESIAN COORDINATES (A.U.)
----------------------------
  NO LB      ZA    FRAG     MASS         X           Y           Z
   0 C     6.0000    0    12.011   -4.542430    0.068737   -0.000074
   1 C     6.0000    0    12.011   -1.710377    0.021349    0.000148
   2 C     6.0000    0    12.011   -0.342916    2.285146    0.000044
   3 C     6.0000    0    12.011    2.275609    2.212241   -0.000363
   4 C     6.0000    0    12.011    3.476206   -0.129929   -0.000541
   5 C     6.0000    0    12.011    1.981098   -2.280964   -0.000203
   6 N     7.0000    0    14.007   -0.557554   -2.242212    0.000049
   7 H     1.0000    0     1.008   -5.253987    1.068285   -1.667204
   8 H     1.0000    0     1.008   -5.313909   -1.843226    0.006666
   9 H     1.0000    0     1.008   -5.254485    1.080674    1.659278
  10 H     1.0000    0     1.008   -1.345153    4.075492    0.000213
  11 H     1.0000    0     1.008    3.366244    3.949761   -0.000583
  12 H     1.0000    0     1.008    5.519641   -0.286037   -0.000791
  13 H     1.0000    0     1.008    2.854198   -4.142666   -0.000444

--------------------------------
INTERNAL COORDINATES (ANGSTROEM)
--------------------------------
 C      0   0   0     0.000000000000     0.00000000     0.00000000
 C      1   0   0     1.498867912509     0.00000000     0.00000000
 C      2   1   0     1.399543872695   120.17569495     0.00000000
 C      3   2   1     1.386200918995   119.53952634   180.01547735
 C      4   3   2     1.392771406524   118.73448449     0.00000000
 C      5   4   3     1.386231682342   118.05853318     0.00000000
 N      6   5   4     1.343553682755   123.92725646     0.00000000
 H      1   2   3     1.095375046764   110.60040379    59.35407724
 H      1   2   3     1.091033200514   111.01532988   180.19715893
 H      1   2   3     1.095343950370   110.61413438   301.06597204
 H      3   2   1     1.085757243266   119.62554721     0.00000000
 H      4   3   2     1.085582120369   120.52154367   179.99566651
 H      5   4   3     1.084489928824   121.50828637   180.00219531
 H      6   5   4     1.088130227726   120.07260524   179.99628085

---------------------------
INTERNAL COORDINATES (A.U.)
---------------------------
 C      0   0   0     0.000000000000     0.00000000     0.00000000
 C      1   0   0     2.832449865564     0.00000000     0.00000000
 C      2   1   0     2.644754631802   120.17569495     0.00000000
 C      3   2   1     2.619540103490   119.53952634   180.01547735
 C      4   3   2     2.631956525486   118.73448449     0.00000000
 C      5   4   3     2.619598237791   118.05853318     0.00000000
 N      6   5   4     2.538948506629   123.92725646     0.00000000
 H      1   2   3     2.069958852316   110.60040379    59.35407724
 H      1   2   3     2.061753951986   111.01532988   180.19715893
 H      1   2   3     2.069900088647   110.61413438   301.06597204
 H      3   2   1     2.051783837693   119.62554721     0.00000000
 H      4   3   2     2.051452903380   120.52154367   179.99566651
 H      5   4   3     2.049388960473   121.50828637   180.00219531
 H      6   5   4     2.056268128443   120.07260524   179.99628085

---------------------
BASIS SET INFORMATION
---------------------
There are 3 groups of distinct atoms

 Group   1 Type C   : 11s6p2d1f contracted to 5s3p2d1f pattern {62111/411/11/1}
 Group   2 Type N   : 11s6p2d1f contracted to 5s3p2d1f pattern {62111/411/11/1}
 Group   3 Type H   : 5s1p contracted to 3s1p pattern {311/1}

Atom   0C    basis set group =>   1
Atom   1C    basis set group =>   1
Atom   2C    basis set group =>   1
Atom   3C    basis set group =>   1
Atom   4C    basis set group =>   1
Atom   5C    basis set group =>   1
Atom   6N    basis set group =>   2
Atom   7H    basis set group =>   3
Atom   8H    basis set group =>   3
Atom   9H    basis set group =>   3
Atom  10H    basis set group =>   3
Atom  11H    basis set group =>   3
Atom  12H    basis set group =>   3
Atom  13H    basis set group =>   3
---------------------------------
AUXILIARY/J BASIS SET INFORMATION
---------------------------------
There are 3 groups of distinct atoms

 Group   1 Type C   : 8s3p3d contracted to 6s3p3d pattern {311111/111/111}
 Group   2 Type N   : 8s3p3d contracted to 6s3p3d pattern {311111/111/111}
 Group   3 Type H   : 5s2p1d contracted to 3s1p1d pattern {311/2/1}

Atom   0C    basis set group =>   1
Atom   1C    basis set group =>   1
Atom   2C    basis set group =>   1
Atom   3C    basis set group =>   1
Atom   4C    basis set group =>   1
Atom   5C    basis set group =>   1
Atom   6N    basis set group =>   2
Atom   7H    basis set group =>   3
Atom   8H    basis set group =>   3
Atom   9H    basis set group =>   3
Atom  10H    basis set group =>   3
Atom  11H    basis set group =>   3
Atom  12H    basis set group =>   3
Atom  13H    basis set group =>   3
------------------------------------------------------------------------------
                             ORCA STARTUP CALCULATIONS
                           -- RI-GTO INTEGRALS CHOSEN --
------------------------------------------------------------------------------
------------------------------------------------------------------------------
                   ___                                                        
                  /   \      - P O W E R E D   B Y -                         
                 /     \                                                     
                 |  |  |   _    _      __       _____    __    __             
                 |  |  |  | |  | |    /  \     |  _  \  |  |  /  |          
                  \  \/   | |  | |   /    \    | | | |  |  | /  /          
                 / \  \   | |__| |  /  /\  \   | |_| |  |  |/  /          
                |  |  |   |  __  | /  /__\  \  |    /   |      \           
                |  |  |   | |  | | |   __   |  |    \   |  |\   \          
                \     /   | |  | | |  |  |  |  | |\  \  |  | \   \       
                 \___/    |_|  |_| |__|  |__|  |_| \__\ |__|  \__/        
                                                                              
                      - O R C A' S   B I G   F R I E N D -                    
                                      &                                       
                       - I N T E G R A L  F E E D E R -                       
                                                                              
 v1 FN, 2020, v2 2021, v3 2022-2024                                           
------------------------------------------------------------------------------


----------------------
SHARK INTEGRAL PACKAGE
----------------------

Number of atoms                             ...     14
Number of basis functions                   ...    259
Number of shells                            ...    105
Maximum angular momentum                    ...      3
Integral batch strategy                     ... SHARK/LIBINT Hybrid
RI-J (if used) integral strategy            ... SPLIT-RIJ (Revised 2003 algorithm where possible)
Printlevel                                  ...      1
Contraction scheme used                     ... SEGMENTED contraction
Prescreening option                         ... SCHWARTZ
   Thresh                                   ... 1.000e-10
   Tcut                                     ... 1.000e-11
   Tpresel                                  ... 1.000e-11 
Coulomb Range Separation                    ... NOT USED
Exchange Range Separation                   ... NOT USED
Multipole approximations                    ... NOT USED
Finite Nucleus Model                        ... NOT USED
CABS basis                                  ... NOT available
Auxiliary Coulomb fitting basis             ... AVAILABLE
   # of basis functions in Aux-J            ...    287
   # of shells in Aux-J                     ...    119
   Maximum angular momentum in Aux-J        ...      2
Auxiliary J/K fitting basis                 ... NOT available
Auxiliary Correlation fitting basis         ... NOT available
Auxiliary 'external' fitting basis          ... NOT available

Checking pre-screening integrals            ... done (  0.0 sec) Dimension = 105
Check shell pair data                       ... done (  0.0 sec)
Shell pair information
Shell pair cut-off parameter TPreSel        ...   1.0e-11
Total number of shell pairs                 ...      5565
Shell pairs after pre-screening             ...      5217
Total number of primitive shell pairs       ...     16828
Primitive shell pairs kept                  ...     12143
          la=0 lb=0:   1430 shell pairs
          la=1 lb=0:   1467 shell pairs
          la=1 lb=1:    390 shell pairs
          la=2 lb=0:    750 shell pairs
          la=2 lb=1:    383 shell pairs
          la=2 lb=2:    104 shell pairs
          la=3 lb=0:    372 shell pairs
          la=3 lb=1:    195 shell pairs
          la=3 lb=2:     98 shell pairs
          la=3 lb=3:     28 shell pairs

Calculating one electron integrals          ... done (  0.0 sec)
Calculating RI/J V-Matrix + Cholesky decomp.... done (  0.0 sec)
Calculating Nuclear repulsion               ... done (  0.0 sec) ENN=    272.798177636265 Eh

Diagonalization of the overlap matrix:
Smallest eigenvalue                        ... 4.420e-05
Time for diagonalization                   ...    0.006 sec
Threshold for overlap eigenvalues          ... 1.000e-07
Number of eigenvalues below threshold      ... 0
Time for construction of square roots      ...    0.015 sec
Total time needed                          ...    0.029 sec

-------------------
DFT GRID GENERATION
-------------------

General Integration Accuracy     IntAcc      ... 4.388
Radial Grid Type                 RadialGrid  ... OptM3 with GC (2021)
Angular Grid (max. ang.)         AngularGrid ... 4 (Lebedev-302)
Angular grid pruning method      GridPruning ... 4 (adaptive)
Weight generation scheme         WeightScheme... mBecke (2022)
Basis function cutoff            BFCut       ... 1.0000e-10
Integration weight cutoff        WCut        ... 1.0000e-14
Partially contracted basis set               ... off
Rotationally invariant grid construction     ... off
Angular grids for H and He will be reduced by one unit

Total number of grid points                  ...    64730
Total number of batches                      ...     1018
Average number of points per batch           ...       63
Average number of grid points per atom       ...     4624
Initializing property integral containers    ... done (  0.0 sec)

SHARK setup successfully completed in   1.0 seconds

Maximum memory used throughout the entire STARTUP-calculation: 36.0 MB
-------------------------------------------------------------------------------
                                 ORCA GUESS
                   Start orbitals & Density for SCF / CASSCF
-------------------------------------------------------------------------------

------------
SCF SETTINGS
------------
Hamiltonian:
 Density Functional     Method          .... DFT(GTOs)
  Functional kind                       .... Exchange
  Functional name                       .... Re-regularized SCAN exchange by Furness et al
  Functional family                     .... MGGA
  Functional refs                              
    [ 0] J. W. Furness, A. D. Kaplan, J. Ning, J. P. Perdew, and J. Sun.,  J. Phys. Chem. Lett. 11, 8208-8215 (2020), doi: 10.1021/acs.jpclett.0c02405
    [ 1] J. W. Furness, A. D. Kaplan, J. Ning, J. P. Perdew, and J. Sun.,  J. Phys. Chem. Lett. 11, 9248-9248 (2020), doi: 10.1021/acs.jpclett.0c03077
  Functional external parameters        .... 6
    Parameter  0 _c1        =  6.670000e-01 : c1 parameter        
    Parameter  1 _c2        =  8.000000e-01 : c2 parameter        
    Parameter  2 _d         =  1.240000e+00 : d parameter         
    Parameter  3 _k1        =  6.500000e-02 : k1 parameter        
    Parameter  4 _eta       =  1.000000e-03 : eta parameter       
    Parameter  5 _dp2       =  3.610000e-01 : dp2 parameter       
  Functional kind                       .... Correlation
  Functional name                       .... Re-regularized SCAN correlation by Furness et al
  Functional family                     .... MGGA
  Functional refs                              
    [ 0] J. W. Furness, A. D. Kaplan, J. Ning, J. P. Perdew, and J. Sun.,  J. Phys. Chem. Lett. 11, 8208-8215 (2020), doi: 10.1021/acs.jpclett.0c02405
    [ 1] J. W. Furness, A. D. Kaplan, J. Ning, J. P. Perdew, and J. Sun.,  J. Phys. Chem. Lett. 11, 9248-9248 (2020), doi: 10.1021/acs.jpclett.0c03077
  Functional external parameters        .... 1
    Parameter  0 _eta       =  1.000000e-03 : Regularization parameter
 Gradients option       PostSCFGGA      .... off
 RI-approximation to the Coulomb term is turned on
   Number of AuxJ basis functions       .... 287


General Settings:
 Integral files         IntName         .... censo
 Hartree-Fock type      HFTyp           .... RHF
 Total Charge           Charge          ....    0
 Multiplicity           Mult            ....    1
 Number of Electrons    NEL             ....   50
 Basis Dimension        Dim             ....  259
 Nuclear Repulsion      ENuc            ....    272.7981776363 Eh

Convergence Acceleration:
 AO-DIIS                CNVDIIS         .... on
   Start iteration      DIISMaxIt       ....    12
   Startup error        DIISStart       ....  0.200000
   # of expansion vecs  DIISMaxEq       ....     5
   Bias factor          DIISBfac        ....   1.050
   Max. coefficient     DIISMaxC        ....  10.000
 MO-DIIS                CNVKDIIS        .... off
 Trust-Rad. Augm. Hess. CNVTRAH         .... auto
   Auto Start mean grad. ratio tolernc. ....  1.125000
   Auto Start start iteration           ....    50
   Auto Start num. interpolation iter.  ....    10
   Max. Number of Micro iterations      ....    24
   Max. Number of Macro iterations      .... Maxiter - #DIIS iter
   Number of Davidson start vectors     ....     2
   Converg. threshold    (grad. norm)   ....   5.000e-05
   Grad. Scal. Fac. for Micro threshold ....   0.100
   Minimum threshold for Micro iter.    ....   1.000e-02
   NR start threshold (gradient norm)   ....   1.000e-04
   Initial trust radius                 ....   0.400
   Minimum AH scaling param. (alpha)    ....   1.000
   Maximum AH scaling param. (alpha)    .... 1000.000
   Quad. conv. algorithm                .... NR
   White noise on init. David. guess    .... on
   Maximum white noise                  ....   0.010
   Pseudo random numbers                .... off
   Inactive MOs                         .... canonical
   Orbital update algorithm             .... Taylor
   Preconditioner                       .... Diag
   Full preconditioner red. dimension   ....   250
   COSX micro iterations for RIJONX calc.... off
 SOSCF                  CNVSOSCF        .... on
   Start iteration      SOSCFMaxIt      ....   150
   Startup grad/error   SOSCFStart      ....  0.003300
   Hessian update       SOSCFHessUp     .... L-BFGS
 Level Shifting         CNVShift        .... on
   Level shift para.    LevelShift      ....    0.2500
   Turn off err/grad.   ShiftErr        ....    0.0010
 Zerner damping         CNVZerner       .... off
 Static damping         CNVDamp         .... on
   Fraction old density DampFac         ....    0.7000
   Max. Damping (<1)    DampMax         ....    0.9800
   Min. Damping (>=0)   DampMin         ....    0.0000
   Turn off err/grad.   DampErr         ....    0.1000

SCF Procedure:
 Maximum # iterations   MaxIter         ....   125
 SCF integral mode      SCFMode         .... Direct
   Integral package                     .... SHARK and LIBINT hybrid scheme
 Reset frequency        DirectResetFreq ....    20
 Integral Threshold     Thresh          ....  1.000e-10 Eh
 Primitive CutOff       TCut            ....  1.000e-11 Eh

Convergence Tolerance:
 Convergence Check Mode ConvCheckMode   .... Total+1el-Energy
 Convergence forced     ConvForced      .... 0
 Energy Change          TolE            ....  1.000e-06 Eh
 1-El. energy change                    ....  1.000e-03 Eh
 Orbital Gradient       TolG            ....  5.000e-05
 Orbital Rotation angle TolX            ....  5.000e-05
 DIIS Error             TolErr          ....  1.000e-06

------------------------------
INITIAL GUESS: MODEL POTENTIAL
------------------------------
Loading Hartree-Fock densities                     ... done
Calculating cut-offs                               ... done
Initializing the effective Hamiltonian             ... done
Setting up the integral package (SHARK)            ... done
Starting the Coulomb interaction                   ... done (   0.2 sec)
Making the grid                                    ... done (   0.2 sec)
Mapping shells                                     ... done
Starting the XC term evaluation                    ... done (   0.3 sec)
  promolecular density results
     # of electrons  =     49.995763423
     EX              =    -39.262647111
     EC              =     -1.641976593
     EX+EC           =    -40.904623704
Transforming the Hamiltonian                       ... done (   0.0 sec)
Diagonalizing the Hamiltonian                      ... done (   0.0 sec)
Back transforming the eigenvectors                 ... done (   0.0 sec)
Now organizing SCF variables                       ... done
                      ------------------
                      INITIAL GUESS DONE (   0.8 sec)
                      ------------------
             **** ENERGY FILE WAS UPDATED (censo.en.tmp) ****
Finished Guess after   1.0 sec
Maximum memory used throughout the entire GUESS-calculation: 23.2 MB

-------------------------------------------------------------------------------------------
                                      ORCA LEAN-SCF
                              memory conserving SCF solver
-------------------------------------------------------------------------------------------

----------------------------------------D-I-I-S--------------------------------------------
Iteration    Energy (Eh)           Delta-E    RMSDP     MaxDP     DIISErr   Damp  Time(sec)
-------------------------------------------------------------------------------------------
               ***  Starting incremental Fock matrix formation  ***
    1    -287.3709367530190661     0.00e+00  1.40e-03  3.42e-02  1.85e-01  0.700   3.0
    2    -287.4516504354316453    -8.07e-02  1.15e-03  2.73e-02  9.54e-02  0.700   2.7
                               ***Turning on AO-DIIS***
    3    -287.4842842411097195    -3.26e-02  5.38e-04  1.49e-02  3.71e-02  0.700   2.8
    4    -287.5031655118689855    -1.89e-02  1.01e-03  2.18e-02  1.73e-02  0.000   2.7
    5    -287.5442550084501931    -4.11e-02  2.54e-04  8.20e-03  6.13e-03  0.000   2.7
                              *** Initializing SOSCF ***
---------------------------------------S-O-S-C-F--------------------------------------
Iteration    Energy (Eh)           Delta-E    RMSDP     MaxDP     MaxGrad    Time(sec)
--------------------------------------------------------------------------------------
    6    -287.5445355058618020    -2.80e-04  1.13e-04  3.60e-03  1.18e-03     2.6
               *** Restarting incremental Fock matrix formation ***
    7    -287.5445531650391899    -1.77e-05  7.74e-05  2.23e-03  3.16e-04     3.0
    8    -287.5445525292959132     6.36e-07  2.17e-05  5.52e-04  3.72e-04     2.4
                 **** Energy Check signals convergence ****

               *****************************************************
               *                     SUCCESS                       *
               *           SCF CONVERGED AFTER   8 CYCLES          *
               *****************************************************

             **** ENERGY FILE WAS UPDATED (censo.en.tmp) ****

----------------
TOTAL SCF ENERGY
----------------

Total Energy       :       -287.54455252929591 Eh           -7824.48506 eV

Components:
Nuclear Repulsion  :        272.79817763626528 Eh            7423.21580 eV
Electronic Energy  :       -560.34273016556119 Eh          -15247.70087 eV
One Electron Energy:       -927.22952291902675 Eh          -25231.19805 eV
Two Electron Energy:        366.88679275346556 Eh            9983.49718 eV

Virial components:
Potential Energy   :       -573.69696861873149 Eh          -15611.08817 eV
Kinetic Energy     :        286.15241608943558 Eh            7786.60311 eV
Virial Ratio       :          2.00486501724810

DFT components:
N(Alpha)           :       25.000028396160 electrons
N(Beta)            :       25.000028396160 electrons
N(Total)           :       50.000056792319 electrons
E(X)               :      -40.353049642761 Eh       
E(C)               :       -1.596933184940 Eh       
E(XC)              :      -41.949982827701 Eh       

---------------
SCF CONVERGENCE
---------------

  Last Energy change         ...   -6.3574e-07  Tolerance :   1.0000e-06
  Last MAX-Density change    ...    5.5155e-04  Tolerance :   1.0000e-05
  Last RMS-Density change    ...    2.1658e-05  Tolerance :   1.0000e-06
  Last DIIS Error            ...    1.1828e-03  Tolerance :   1.0000e-06
  Last Orbital Gradient      ...    3.7220e-04  Tolerance :   5.0000e-05
  Last Orbital Rotation      ...    6.6557e-04  Tolerance :   5.0000e-05


----------------
ORBITAL ENERGIES
----------------

  NO   OCC          E(Eh)            E(eV) 
   0   2.0000     -14.153728      -385.1425 
   1   2.0000     -10.079271      -274.2709 
   2   2.0000     -10.065917      -273.9075 
   3   2.0000     -10.053467      -273.5687 
   4   2.0000     -10.042477      -273.2697 
   5   2.0000     -10.041324      -273.2383 
   6   2.0000     -10.027833      -272.8712 
   7   2.0000      -0.904928       -24.6244 
   8   2.0000      -0.769936       -20.9510 
   9   2.0000      -0.750106       -20.4114 
  10   2.0000      -0.669097       -18.2070 
  11   2.0000      -0.598102       -16.2752 
  12   2.0000      -0.571440       -15.5497 
  13   2.0000      -0.483054       -13.1446 
  14   2.0000      -0.455619       -12.3980 
  15   2.0000      -0.429937       -11.6992 
  16   2.0000      -0.403185       -10.9712 
  17   2.0000      -0.388209       -10.5637 
  18   2.0000      -0.375854       -10.2275 
  19   2.0000      -0.351982        -9.5779 
  20   2.0000      -0.348039        -9.4706 
  21   2.0000      -0.329308        -8.9609 
  22   2.0000      -0.268833        -7.3153 
  23   2.0000      -0.238109        -6.4793 
  24   2.0000      -0.224122        -6.0987 
  25   0.0000      -0.054161        -1.4738 
  26   0.0000      -0.040857        -1.1118 
  27   0.0000       0.056022         1.5244 
  28   0.0000       0.072671         1.9775 
  29   0.0000       0.094388         2.5684 
  30   0.0000       0.099165         2.6984 
  31   0.0000       0.111443         3.0325 
  32   0.0000       0.124572         3.3898 
  33   0.0000       0.138069         3.7571 
  34   0.0000       0.144825         3.9409 
  35   0.0000       0.152255         4.1431 
*Only the first 10 virtual orbitals were printed.

                    ********************************
                    * MULLIKEN POPULATION ANALYSIS *
                    ********************************

-----------------------
MULLIKEN ATOMIC CHARGES
-----------------------
   0 C :   -0.345568
   1 C :    0.198849
   2 C :   -0.176566
   3 C :   -0.093448
   4 C :   -0.101190
   5 C :   -0.018335
   6 N :   -0.271619
   7 H :    0.115719
   8 H :    0.129963
   9 H :    0.115669
  10 H :    0.107502
  11 H :    0.116401
  12 H :    0.113548
  13 H :    0.109074
Sum of atomic charges:   -0.0000000

--------------------------------
MULLIKEN REDUCED ORBITAL CHARGES
--------------------------------
  0 C s       :     3.289339  s :     3.289339
      pz      :     1.029253  p :     3.011631
      px      :     0.894809
      py      :     1.087569
      dz2     :     0.001612  d :     0.040812
      dxz     :     0.016916
      dyz     :     0.003614
      dx2y2   :     0.004564
      dxy     :     0.014106
      f0      :     0.000313  f :     0.003786
      f+1     :     0.000410
      f-1     :     0.000779
      f+2     :     0.000477
      f-2     :    -0.000133
      f+3     :     0.001042
      f-3     :     0.000897

  1 C s       :     3.167026  s :     3.167026
      pz      :     0.873094  p :     2.470405
      px      :     0.830350
      py      :     0.766961
      dz2     :     0.001988  d :     0.148875
      dxz     :     0.026729
      dyz     :     0.029082
      dx2y2   :     0.044182
      dxy     :     0.046894
      f0      :     0.002138  f :     0.014845
      f+1     :     0.000877
      f-1     :     0.000829
      f+2     :     0.001276
      f-2     :     0.001537
      f+3     :     0.002865
      f-3     :     0.005324

  2 C s       :     3.251671  s :     3.251671
      pz      :     0.993013  p :     2.842013
      px      :     0.939522
      py      :     0.909479
      dz2     :     0.004517  d :     0.074202
      dxz     :     0.016251
      dyz     :     0.006793
      dx2y2   :     0.016374
      dxy     :     0.030267
      f0      :     0.001737  f :     0.008680
      f+1     :     0.000665
      f-1     :     0.000627
      f+2     :     0.000830
      f-2     :     0.000449
      f+3     :     0.001758
      f-3     :     0.002613

  3 C s       :     3.210704  s :     3.210704
      pz      :     0.920003  p :     2.796524
      px      :     0.927961
      py      :     0.948560
      dz2     :     0.003571  d :     0.077433
      dxz     :     0.018856
      dyz     :     0.010134
      dx2y2   :     0.021624
      dxy     :     0.023248
      f0      :     0.001784  f :     0.008786
      f+1     :     0.000606
      f-1     :     0.000639
      f+2     :     0.001109
      f-2     :     0.000369
      f+3     :     0.001719
      f-3     :     0.002560

  4 C s       :     3.190466  s :     3.190466
      pz      :     0.986632  p :     2.828753
      px      :     0.930152
      py      :     0.911968
      dz2     :     0.004909  d :     0.073381
      dxz     :     0.004948
      dyz     :     0.018657
      dx2y2   :     0.026860
      dxy     :     0.018007
      f0      :     0.001778  f :     0.008590
      f+1     :     0.000693
      f-1     :     0.000623
      f+2     :     0.000175
      f-2     :     0.001076
      f+3     :     0.001760
      f-3     :     0.002486

  5 C s       :     3.211885  s :     3.211885
      pz      :     0.915372  p :     2.696162
      px      :     0.823641
      py      :     0.957149
      dz2     :     0.001528  d :     0.098883
      dxz     :     0.026227
      dyz     :     0.008997
      dx2y2   :     0.027418
      dxy     :     0.034713
      f0      :     0.002015  f :     0.011405
      f+1     :     0.000900
      f-1     :     0.000640
      f+2     :     0.001309
      f-2     :     0.000583
      f+3     :     0.002395
      f-3     :     0.003562

  6 N s       :     3.605749  s :     3.605749
      pz      :     1.111261  p :     3.593876
      px      :     1.137875
      py      :     1.344739
      dz2     :     0.005970  d :     0.067536
      dxz     :     0.012241
      dyz     :     0.009979
      dx2y2   :     0.021194
      dxy     :     0.018152
      f0      :     0.000699  f :     0.004458
      f+1     :     0.000366
      f-1     :     0.000297
      f+2     :     0.000569
      f-2     :     0.000333
      f+3     :     0.000999
      f-3     :     0.001196

  7 H s       :     0.861238  s :     0.861238
      pz      :     0.009911  p :     0.023043
      px      :     0.006315
      py      :     0.006818

  8 H s       :     0.846849  s :     0.846849
      pz      :     0.005128  p :     0.023188
      px      :     0.006004
      py      :     0.012055

  9 H s       :     0.861293  s :     0.861293
      pz      :     0.009868  p :     0.023038
      px      :     0.006315
      py      :     0.006855

 10 H s       :     0.868943  s :     0.868943
      pz      :     0.005603  p :     0.023555
      px      :     0.006578
      py      :     0.011375

 11 H s       :     0.860336  s :     0.860336
      pz      :     0.005129  p :     0.023263
      px      :     0.007087
      py      :     0.011046

 12 H s       :     0.862793  s :     0.862793
      pz      :     0.005700  p :     0.023658
      px      :     0.013437
      py      :     0.004521

 13 H s       :     0.868138  s :     0.868138
      pz      :     0.005068  p :     0.022789
      px      :     0.005448
      py      :     0.012273



                     *******************************
                     * LOEWDIN POPULATION ANALYSIS *
                     *******************************

----------------------
LOEWDIN ATOMIC CHARGES
----------------------
   0 C :   -0.256566
   1 C :   -0.240589
   2 C :   -0.125451
   3 C :   -0.123326
   4 C :   -0.158123
   5 C :   -0.201048
   6 N :    0.140682
   7 H :    0.131259
   8 H :    0.130819
   9 H :    0.131191
  10 H :    0.146575
  11 H :    0.145112
  12 H :    0.143894
  13 H :    0.135571

-------------------------------
LOEWDIN REDUCED ORBITAL CHARGES
-------------------------------
  0 C s       :     2.830525  s :     2.830525
      pz      :     1.062181  p :     3.159986
      px      :     1.023886
      py      :     1.073919
      dz2     :     0.032539  d :     0.241387
      dxz     :     0.063853
      dyz     :     0.029143
      dx2y2   :     0.050337
      dxy     :     0.065515
      f0      :     0.001917  f :     0.024668
      f+1     :     0.003554
      f-1     :     0.003177
      f+2     :     0.003318
      f-2     :     0.002425
      f+3     :     0.004982
      f-3     :     0.005293

  1 C s       :     2.733144  s :     2.733144
      pz      :     0.802954  p :     2.796629
      px      :     0.985856
      py      :     1.007819
      dz2     :     0.040248  d :     0.633200
      dxz     :     0.077300
      dyz     :     0.089376
      dx2y2   :     0.244655
      dxy     :     0.181621
      f0      :     0.005017  f :     0.077617
      f+1     :     0.004354
      f-1     :     0.006159
      f+2     :     0.007421
      f-2     :     0.009550
      f+3     :     0.012449
      f-3     :     0.032667

  2 C s       :     2.768398  s :     2.768398
      pz      :     0.901909  p :     2.939412
      px      :     1.038826
      py      :     0.998678
      dz2     :     0.027163  d :     0.374574
      dxz     :     0.054729
      dyz     :     0.022912
      dx2y2   :     0.117245
      dxy     :     0.152525
      f0      :     0.003247  f :     0.043067
      f+1     :     0.004145
      f-1     :     0.003585
      f+2     :     0.005439
      f-2     :     0.002911
      f+3     :     0.008493
      f-3     :     0.015248

  3 C s       :     2.773081  s :     2.773081
      pz      :     0.847547  p :     2.908284
      px      :     1.048727
      py      :     1.012010
      dz2     :     0.025922  d :     0.397152
      dxz     :     0.063641
      dyz     :     0.032190
      dx2y2   :     0.117739
      dxy     :     0.157662
      f0      :     0.003246  f :     0.044808
      f+1     :     0.004073
      f-1     :     0.003567
      f+2     :     0.007126
      f-2     :     0.002486
      f+3     :     0.008317
      f-3     :     0.015994

  4 C s       :     2.775255  s :     2.775255
      pz      :     0.900466  p :     2.961059
      px      :     0.991306
      py      :     1.069287
      dz2     :     0.026781  d :     0.377805
      dxz     :     0.013125
      dyz     :     0.068350
      dx2y2   :     0.162383
      dxy     :     0.107166
      f0      :     0.003378  f :     0.044004
      f+1     :     0.003414
      f-1     :     0.004462
      f+2     :     0.001265
      f-2     :     0.007349
      f+3     :     0.008671
      f-3     :     0.015466

  5 C s       :     2.784887  s :     2.784887
      pz      :     0.854619  p :     2.861653
      px      :     0.985691
      py      :     1.021342
      dz2     :     0.032408  d :     0.493505
      dxz     :     0.082603
      dyz     :     0.025115
      dx2y2   :     0.157149
      dxy     :     0.196229
      f0      :     0.004253  f :     0.061003
      f+1     :     0.006407
      f-1     :     0.003475
      f+2     :     0.008256
      f-2     :     0.003707
      f+3     :     0.011684
      f-3     :     0.023221

  6 N s       :     3.050216  s :     3.050216
      pz      :     1.019937  p :     3.576434
      px      :     1.216239
      py      :     1.340259
      dz2     :     0.018159  d :     0.214832
      dxz     :     0.035368
      dyz     :     0.019106
      dx2y2   :     0.073553
      dxy     :     0.068646
      f0      :     0.001105  f :     0.017835
      f+1     :     0.001688
      f-1     :     0.001069
      f+2     :     0.002778
      f-2     :     0.000902
      f+3     :     0.003916
      f-3     :     0.006377

  7 H s       :     0.805999  s :     0.805999
      pz      :     0.028181  p :     0.062742
      px      :     0.015235
      py      :     0.019326

  8 H s       :     0.805955  s :     0.805955
      pz      :     0.013769  p :     0.063226
      px      :     0.014895
      py      :     0.034562

  9 H s       :     0.806070  s :     0.806070
      pz      :     0.028056  p :     0.062739
      px      :     0.015234
      py      :     0.019449

 10 H s       :     0.792413  s :     0.792413
      pz      :     0.014628  p :     0.061012
      px      :     0.016824
      py      :     0.029560

 11 H s       :     0.795049  s :     0.795049
      pz      :     0.013010  p :     0.059839
      px      :     0.018168
      py      :     0.028661

 12 H s       :     0.794927  s :     0.794927
      pz      :     0.014584  p :     0.061179
      px      :     0.035019
      py      :     0.011576

 13 H s       :     0.805472  s :     0.805472
      pz      :     0.012966  p :     0.058957
      px      :     0.013743
      py      :     0.032247



                      *****************************
                      * MAYER POPULATION ANALYSIS *
                      *****************************

  NA   - Mulliken gross atomic population
  ZA   - Total nuclear charge
  QA   - Mulliken gross atomic charge
  VA   - Mayer's total valence
  BVA  - Mayer's bonded valence
  FA   - Mayer's free valence

  ATOM       NA         ZA         QA         VA         BVA        FA
  0 C      6.3456     6.0000    -0.3456     3.8575     3.8575    -0.0000
  1 C      5.8012     6.0000     0.1988     3.8056     3.8056     0.0000
  2 C      6.1766     6.0000    -0.1766     3.8796     3.8796     0.0000
  3 C      6.0934     6.0000    -0.0934     3.9354     3.9354    -0.0000
  4 C      6.1012     6.0000    -0.1012     3.8245     3.8245    -0.0000
  5 C      6.0183     6.0000    -0.0183     4.0019     4.0019    -0.0000
  6 N      7.2716     7.0000    -0.2716     3.0137     3.0137    -0.0000
  7 H      0.8843     1.0000     0.1157     0.9742     0.9742     0.0000
  8 H      0.8700     1.0000     0.1300     1.0009     1.0009     0.0000
  9 H      0.8843     1.0000     0.1157     0.9742     0.9742     0.0000
 10 H      0.8925     1.0000     0.1075     0.9756     0.9756    -0.0000
 11 H      0.8836     1.0000     0.1164     0.9767     0.9767    -0.0000
 12 H      0.8865     1.0000     0.1135     0.9764     0.9764    -0.0000
 13 H      0.8909     1.0000     0.1091     0.9807     0.9807     0.0000

  Mayer bond orders larger than 0.100000
B(  0-C ,  1-C ) :   0.9274 B(  0-C ,  7-H ) :   0.9634 B(  0-C ,  8-H ) :   0.9855 
B(  0-C ,  9-H ) :   0.9637 B(  1-C ,  2-C ) :   1.3430 B(  1-C ,  6-N ) :   1.4423 
B(  2-C ,  3-C ) :   1.4396 B(  2-C , 10-H ) :   0.9698 B(  3-C ,  4-C ) :   1.3835 
B(  3-C , 11-H ) :   0.9668 B(  4-C ,  5-C ) :   1.3958 B(  4-C , 12-H ) :   0.9633 
B(  5-C ,  6-N ) :   1.4500 B(  5-C , 13-H ) :   0.9842 

-------
TIMINGS
-------

Total SCF time: 0 days 0 hours 0 min 22 sec 

Total time                  ....      22.128 sec
Sum of individual times     ....      21.722 sec  ( 98.2%)

SCF preparation             ....       0.190 sec  (  0.9%)
Fock matrix formation       ....      20.776 sec  ( 93.9%)
  Startup                   ....       0.053 sec  (  0.3% of F)
  Split-RI-J                ....       2.122 sec  ( 10.2% of F)
  XC integration            ....      18.130 sec  ( 87.3% of F)
    XC Preparation          ....       0.000 sec  (  0.0% of XC)
    Basis function eval.    ....       2.769 sec  ( 15.3% of XC)
    Density eval.           ....       5.430 sec  ( 29.9% of XC)
    XC-Functional eval.     ....       1.447 sec  (  8.0% of XC)
    XC-Potential eval.      ....       7.798 sec  ( 43.0% of XC)
Diagonalization             ....       0.000 sec  (  0.0%)
Density matrix formation    ....       0.188 sec  (  0.8%)
Total Energy calculation    ....       0.027 sec  (  0.1%)
Population analysis         ....       0.031 sec  (  0.1%)
Orbital Transformation      ....       0.072 sec  (  0.3%)
Orbital Orthonormalization  ....       0.000 sec  (  0.0%)
DIIS solution               ....       0.339 sec  (  1.5%)
SOSCF solution              ....       0.100 sec  (  0.5%)
Finished LeanSCF after  22.2 sec

Maximum memory used throughout the entire LEANSCF-calculation: 27.6 MB

------------------------------------------------------------------------------
                         ORCA PROPERTY INTEGRAL CALCULATIONS
------------------------------------------------------------------------------

GBWName                                   ... censo.gbw
Number of atoms                           ...     14
Number of basis functions                 ...    259
Max core memory                           ...   1024 MB

Dipole integrals                          ... YES
Quadrupole integrals                      ...  NO
Linear momentum integrals                 ...  NO
Angular momentum integrals                ...  NO
Higher moments length integrals           ...  NO
Higher moments velocity integrals         ...  NO
Kinetic energy integrals                  ...  NO
GIAO right hand sides                     ...  NO
GIAO dipole derivative integrals          ...  NO
SOC integrals                             ...  NO
EPR diamagnetic integrals (GIAO)          ...  NO
EPR gauge integrals                       ...  NO
Field gradient integrals                  ...  NO (   0 nuclei)
Spin-dipole/Fermi contact integrals       ...  NO (   0 nuclei)
Contact density integrals                 ...  NO (   0 nuclei)
Nucleus-orbit integrals                   ...  NO (   0 nuclei)
Geometric perturbations                   ... YES (  14 nuclei)

Choice of electric origin   ... Center of mass
Position of electric origin ... (  0.0041, -0.0143, -0.0002) 
Choice of magnetic origin   ... GIAO
Position of magnetic origin ... (  0.0000,  0.0000,  0.0000) 

Calculating integrals                     ... Electric Dipole (Length)     done (  0.1 sec)
Calculating integrals                     ... Geometrical perturbation right hand sides

-----------------------
GEOMETRIC PERTURBATIONS (14 nuclei)
-----------------------

MaxCore                            ...   1024 MB
Number of batches                  ...      1

BATCH   0: Atoms    0 -   13 ( 42 perturbations)
   => H(core) and overlap derivative integrals     ... done (     0.3 sec)
   => Making and storing internal U-coefficients   ... done (     0.3 sec)
   => RI-J derivative integrals                    ... done (     3.4 sec)
   => RI-J response operators                      ... done (     0.8 sec)
   => XC derivative integrals                      ... done (   217.9 sec)
   => XC response operators                        ... done (    58.8 sec)
   => Completing and storing right hand sides      ... done (     0.2 sec)
   => Total time for right hand sides = 284.1 sec

  geometrical perturbations done (284.2 sec)

Property integrals calculated in 284.2 sec

Maximum memory used throughout the entire PROPINT-calculation: 121.8 MB


-------------------------------------------------------------------------------
                          DFT DISPERSION CORRECTION                            
                                                                               
                                DFTD4 V3.4.0                                   
-------------------------------------------------------------------------------
The R2SCAN3C composite method is recognized
Using three-body term ABC
Active option DFTDOPT                   ...         5   

-------------------------   ----------------
Dispersion correction           -0.004050785
-------------------------   ----------------

------------------   -----------------
gCP correction             0.005885021
------------------   -----------------

-------------------------   --------------------
FINAL SINGLE POINT ENERGY      -287.542718292574
-------------------------   --------------------

------------------------------------------------------------------------------
                            ORCA SCF RESPONSE CALCULATION
------------------------------------------------------------------------------

GBWName                                 ... censo.gbw
Number of atoms                         ...     14
Number of basis functions               ...    259
Max core memory                         ...   1024 MB

Electric field perturbation             ...  NO
Quadrupolar field perturbation          ...  NO
Magnetic field perturbation (no GIAO)   ...  NO
Magnetic field perturbation (with GIAO) ...  NO
Linear momentum (velocity) perturbation ...  NO
Spin-orbit coupling perturbation        ...  NO
Choice of electric origin               ... Center of mass
Position of electric origin             ...     0.004062    -0.014284    -0.000151
Choice of magnetic origin               ... GIAO
Position of magnetic origin             ...     0.000000     0.000000     0.000000
Nuclear geometric perturbations         ... YES (  42 perturbations)
Nucleus-orbit perturbations             ...  NO (   0 perturbations)
Spin-dipole/Fermi contact perturbations ...  NO (   0 perturbations)

Total number of real perturbations      ...     42
Total number of imaginary perturbations ...      0
Total number of triplet perturbations   ...      0
Total number of SOC perturbations       ...      0


                                **********************
                                * REAL PERTURBATIONS *
                                **********************



-------------------
SHARK CP-SCF DRIVER
-------------------

Dimension of the orbital basis          ...    259
Dimension of the CPSCF-problem          ...   5850
Number of operators                     ...      1
Max. number of iterations               ...    128
Convergence Tolerance                   ... 1.0e-03
Number of perturbations                 ...     42
Perturbation type                       ... REAL

----------------------------
POPLE LINEAR EQUATION SOLVER
----------------------------

  ITERATION   0:   ||err||_max =   5.6994e-01 (  17.3 sec   0/ 42 done)
  ITERATION   1:   ||err||_max =   5.9005e-02 (  17.1 sec   0/ 42 done)
  ITERATION   2:   ||err||_max =   1.8142e-02 (  17.9 sec  11/ 42 done)
  ITERATION   3:   ||err||_max =   4.5127e-03 (  14.5 sec  17/ 42 done)
  ITERATION   4:   ||err||_max =   2.0074e-03 (  12.2 sec  30/ 42 done)
  ITERATION   5:   ||err||_max =   6.7721e-04 (   6.3 sec  42/ 42 done)

CP-SCF equations solved in  87.2 sec
Response densities calculated in   0.1 sec

Maximum memory used throughout the entire SCFRESP-calculation: 73.5 MB

------------------------------------------------------------------------------
                              ORCA PROPERTY CALCULATIONS
------------------------------------------------------------------------------

GBWName                                 ... censo.gbw
Number of atoms                         ...     14
Number of basis functions               ...    259
Max core memory                         ...   1024 MB

Electric properties:
Dipole moment                           ... YES
Quadrupole moment                       ...  NO
Static polarizability (Dipole/Dipole)   ...  NO
Static polarizability (Dipole/Quad.)    ...  NO
Static polarizability (Quad./Quad.)     ...  NO
Static polarizability (Velocity)        ...  NO

Atomic electric properties:
Dipole moment                           ...  NO
Quadrupole moment                       ...  NO
Static polarizability                   ...  NO

Choice of electric origin               ... Center of mass
Position of electric origin             ...     0.004062    -0.014284    -0.000151

General magnetic properties:
Magnetizability                         ...  NO

EPR properties:
g-Tensor (aka g-matrix)                 ...  NO
Zero-Field splitting spin-orbit         ...  NO
Zero-field splitting spin-spin          ...  NO
Hyperfine couplings                     ...  NO (   0 nuclei)
Quadrupole couplings                    ...  NO (   0 nuclei)
Contact density                         ...  NO (   0 nuclei)

NMR properties:
Chemical shifts                         ...  NO (   0 nuclei)
Spin-rotation constants                 ...  NO (   0 nuclei)
Spin-spin couplings                     ...  NO (   0 nuclei,    0 pairs)

Choice of magnetic origin               ... GIAO
Position of magnetic origin             ...     0.000000     0.000000     0.000000

Properties with geometric perturbations:
SCF Hessian                             ... YES
IR spectrum                             ... YES
VCD spectrum                            ...  NO
X-ray spectroscopy properties:
SCF XES/XAS/RIXS spectra                ...  NO


-------------
DIPOLE MOMENT
-------------

Method             : SCF
Type of density    : Electron Density
Multiplicity       :   1
Irrep              :   0
Energy             :  -287.5445525292959132 Eh
Relativity type    : 
Basis              : AO
                                X                 Y                 Z
Electronic contribution:      2.953192989      -1.261879104       0.000605148
Nuclear contribution   :     -2.710272301       1.980481411      -0.000896330
                        -----------------------------------------
Total Dipole Moment    :      0.242920688       0.718602306      -0.000291181
                        -----------------------------------------
Magnitude (a.u.)       :      0.758551132
Magnitude (Debye)      :      1.928083751



--------------------
Rotational spectrum 
--------------------
 
Rotational constants in cm-1:             0.190613             0.087871             0.060823 
Rotational constants in MHz :          5714.439104          2634.304882          1823.414639 

Dipole components along the rotational axes: 
x,y,z [a.u.] :     0.238126    -0.720206    -0.000269 
x,y,z [Debye]:     0.605267    -1.830617    -0.000683 

 

Dipole moment calculation done in   0.0 sec 

-----------
SCF HESSIAN
-----------

Occupied/Occupied contributions to the Hessian:
   => Occupied/Occupied contributions              ... done (  0.0 sec)
Perturbed density contributions to the Hessian:
   => Perturbed density contributions              ... done (  0.0 sec)
Explicit contributions to the Hessian:
   => Nuclear repulsion Hessian                    ... done (  0.0 sec)
   => HCore and overlap Hessian                    ... done (  9.5 sec)
   => RI-J Hessian                                 ... done (  8.8 sec)
   => XC-Hessian                                   ... done ( 66.5 sec)
   => Van der Waals-Hessian                        ... done (  2.7 sec)
   => GCP-Hessian                                  ... done (  0.1 sec)
   => Explicit contributions done
Dipole derivatives                                 ... done (  0.1 sec)
Mass weighting the Hessian           ... done
Calculating normal modes             ... done
Scaling frequencies                  ... done

-----------------------
VIBRATIONAL FREQUENCIES
-----------------------

Scaling factor for frequencies =  1.000000000  (already applied!)

     0:       0.00 cm**-1
     1:       0.00 cm**-1
     2:       0.00 cm**-1
     3:       0.00 cm**-1
     4:       0.00 cm**-1
     5:       0.00 cm**-1
     6:     -27.64 cm**-1 ***imaginary mode***
     7:     196.00 cm**-1
     8:     359.04 cm**-1
     9:     411.75 cm**-1
    10:     474.79 cm**-1
    11:     556.73 cm**-1
    12:     641.84 cm**-1
    13:     753.15 cm**-1
    14:     759.27 cm**-1
    15:     821.59 cm**-1
    16:     890.28 cm**-1
    17:     966.19 cm**-1
    18:     984.74 cm**-1
    19:     995.35 cm**-1
    20:    1010.61 cm**-1
    21:    1054.60 cm**-1
    22:    1069.27 cm**-1
    23:    1123.19 cm**-1
    24:    1173.81 cm**-1
    25:    1257.09 cm**-1
    26:    1283.09 cm**-1
    27:    1316.75 cm**-1
    28:    1397.08 cm**-1
    29:    1447.99 cm**-1
    30:    1472.93 cm**-1
    31:    1477.90 cm**-1
    32:    1503.58 cm**-1
    33:    1598.06 cm**-1
    34:    1622.95 cm**-1
    35:    3013.47 cm**-1
    36:    3074.24 cm**-1
    37:    3125.12 cm**-1
    38:    3137.06 cm**-1
    39:    3156.12 cm**-1
    40:    3170.62 cm**-1
    41:    3184.73 cm**-1


------------
NORMAL MODES
------------

These modes are the Cartesian displacements weighted by the diagonal matrix
M(i,i)=1/sqrt(m[i]) where m[i] is the mass of the displaced atom
Thus, these vectors are normalized but *not* orthogonal

                  0          1          2          3          4          5    
      0       0.000000   0.000000   0.000000   0.000000   0.000000   0.000000
      1       0.000000   0.000000   0.000000   0.000000   0.000000   0.000000
      2       0.000000   0.000000   0.000000   0.000000   0.000000   0.000000
      3       0.000000   0.000000   0.000000   0.000000   0.000000   0.000000
      4       0.000000   0.000000   0.000000   0.000000   0.000000   0.000000
      5       0.000000   0.000000   0.000000   0.000000   0.000000   0.000000
      6       0.000000   0.000000   0.000000   0.000000   0.000000   0.000000
      7       0.000000   0.000000   0.000000   0.000000   0.000000   0.000000
      8       0.000000   0.000000   0.000000   0.000000   0.000000   0.000000
      9       0.000000   0.000000   0.000000   0.000000   0.000000   0.000000
     10       0.000000   0.000000   0.000000   0.000000   0.000000   0.000000
     11       0.000000   0.000000   0.000000   0.000000   0.000000   0.000000
     12       0.000000   0.000000   0.000000   0.000000   0.000000   0.000000
     13       0.000000   0.000000   0.000000   0.000000   0.000000   0.000000
     14       0.000000   0.000000   0.000000   0.000000   0.000000   0.000000
     15       0.000000   0.000000   0.000000   0.000000   0.000000   0.000000
     16       0.000000   0.000000   0.000000   0.000000   0.000000   0.000000
     17       0.000000   0.000000   0.000000   0.000000   0.000000   0.000000
     18       0.000000   0.000000   0.000000   0.000000   0.000000   0.000000
     19       0.000000   0.000000   0.000000   0.000000   0.000000   0.000000
     20       0.000000   0.000000   0.000000   0.000000   0.000000   0.000000
     21       0.000000   0.000000   0.000000   0.000000   0.000000   0.000000
     22       0.000000   0.000000   0.000000   0.000000   0.000000   0.000000
     23       0.000000   0.000000   0.000000   0.000000   0.000000   0.000000
     24       0.000000   0.000000   0.000000   0.000000   0.000000   0.000000
     25       0.000000   0.000000   0.000000   0.000000   0.000000   0.000000
     26       0.000000   0.000000   0.000000   0.000000   0.000000   0.000000
     27       0.000000   0.000000   0.000000   0.000000   0.000000   0.000000
     28       0.000000   0.000000   0.000000   0.000000   0.000000   0.000000
     29       0.000000   0.000000   0.000000   0.000000   0.000000   0.000000
     30       0.000000   0.000000   0.000000   0.000000   0.000000   0.000000
     31       0.000000   0.000000   0.000000   0.000000   0.000000   0.000000
     32       0.000000   0.000000   0.000000   0.000000   0.000000   0.000000
     33       0.000000   0.000000   0.000000   0.000000   0.000000   0.000000
     34       0.000000   0.000000   0.000000   0.000000   0.000000   0.000000
     35       0.000000   0.000000   0.000000   0.000000   0.000000   0.000000
     36       0.000000   0.000000   0.000000   0.000000   0.000000   0.000000
     37       0.000000   0.000000   0.000000   0.000000   0.000000   0.000000
     38       0.000000   0.000000   0.000000   0.000000   0.000000   0.000000
     39       0.000000   0.000000   0.000000   0.000000   0.000000   0.000000
     40       0.000000   0.000000   0.000000   0.000000   0.000000   0.000000
     41       0.000000   0.000000   0.000000   0.000000   0.000000   0.000000
                  6          7          8          9         10         11    
      0      -0.000014  -0.000060  -0.025282  -0.000047   0.000254   0.380594
      1       0.000079  -0.000041  -0.229043  -0.000182  -0.000037  -0.037678
      2       0.018885   0.208204  -0.000020   0.018310  -0.021417   0.000124
      3       0.000000  -0.000007  -0.016416  -0.000022   0.000119   0.201294
      4      -0.000088   0.000044   0.153543   0.000115   0.000013   0.009265
      5      -0.023905  -0.125719  -0.000011  -0.023604   0.261286  -0.000348
      6      -0.000028   0.000009   0.068272   0.000071  -0.000033  -0.017366
      7      -0.000044   0.000015   0.117635   0.000083   0.000088   0.141438
      8      -0.044885  -0.198535  -0.000101   0.216896  -0.006973  -0.000065
      9      -0.000047   0.000051   0.087994   0.000044  -0.000075  -0.070791
     10       0.000015  -0.000008  -0.030151  -0.000038   0.000056   0.141010
     11      -0.017466   0.038236   0.000118  -0.225518  -0.123366   0.000131
     12       0.000008   0.000054   0.012776   0.000029  -0.000121  -0.299607
     13       0.000008  -0.000005  -0.069317  -0.000055  -0.000010   0.007207
     14       0.020694   0.213191  -0.000064   0.049113   0.184865  -0.000203
     15       0.000060  -0.000011  -0.076532  -0.000036  -0.000106  -0.141245
     16       0.000001  -0.000002  -0.000855   0.000009  -0.000055  -0.097661
     17       0.027251  -0.032613  -0.000077   0.201298  -0.121756   0.000189
     18       0.000024  -0.000014  -0.049982  -0.000034  -0.000077  -0.097305
     19      -0.000044   0.000030   0.140324   0.000118  -0.000031  -0.125591
     20       0.006798  -0.169541   0.000169  -0.254680  -0.040249  -0.000038
     21      -0.032495  -0.238717  -0.233506  -0.063552   0.298715   0.345685
     22       0.499809  -0.154467  -0.385465  -0.006755   0.023812  -0.061645
     23       0.335631   0.217132  -0.004563   0.041861  -0.137158   0.000633
     24       0.000086   0.000950   0.381978   0.000342  -0.000860   0.465071
     25      -0.001796   0.000543  -0.393053  -0.000209  -0.000268  -0.067591
     26      -0.507625   0.491817  -0.000745   0.055627  -0.217186   0.000051
     27       0.032400   0.237361  -0.236168   0.062981  -0.296778   0.345643
     28      -0.497070   0.153494  -0.386515   0.006220  -0.023773  -0.061676
     29       0.339276   0.216087   0.005161   0.041837  -0.137052  -0.000263
     30      -0.000092   0.000027   0.179579   0.000202  -0.000178  -0.222571
     31      -0.000066   0.000029   0.180315   0.000140   0.000041   0.022620
     32      -0.080691  -0.303339  -0.000247   0.472612  -0.299770   0.000491
     33      -0.000073   0.000073   0.168390   0.000061  -0.000039   0.101852
     34       0.000031  -0.000015  -0.080039  -0.000080  -0.000005   0.031092
     35      -0.032840   0.113703   0.000242  -0.521019  -0.459293   0.000742
     36       0.000016   0.000082   0.007288   0.000031  -0.000117  -0.303681
     37       0.000052  -0.000021  -0.142477  -0.000101  -0.000021  -0.032145
     38       0.036880   0.467154  -0.000152   0.108400   0.244265   0.000048
     39       0.000084  -0.000033  -0.178483  -0.000061  -0.000120  -0.009945
     40       0.000012  -0.000009  -0.049329  -0.000037  -0.000017  -0.034623
     41       0.046372  -0.071139  -0.000192   0.521680  -0.491630   0.000878
                 12         13         14         15         16         17    
      0      -0.080163   0.000065   0.000047  -0.278868  -0.000018  -0.000024
      1      -0.046586  -0.000035   0.000003   0.013024  -0.000081   0.000049
      2      -0.000040   0.028902   0.031568  -0.000074   0.010658   0.023148
      3      -0.029307  -0.000075  -0.000001   0.062057  -0.000012  -0.000010
      4      -0.122619  -0.000015  -0.000002   0.000940  -0.000024   0.000020
      5       0.000027   0.120614   0.136773   0.000384   0.016144  -0.004283
      6       0.255377  -0.000029  -0.000024   0.059351  -0.000009  -0.000035
      7      -0.200139  -0.000103  -0.000063   0.231894   0.000053   0.000065
      8       0.000020  -0.099494  -0.083572  -0.000155  -0.116031  -0.049789
      9       0.305389  -0.000018   0.000010   0.105699   0.000018   0.000002
     10       0.256653  -0.000085  -0.000038   0.186475   0.000027  -0.000008
     11      -0.000068  -0.022234   0.175195   0.000015  -0.031520   0.070804
     12       0.019252   0.000122   0.000039  -0.162301   0.000007   0.000073
     13       0.157159   0.000002   0.000005  -0.010384  -0.000009   0.000006
     14       0.000040  -0.095429  -0.096900  -0.000184   0.082621   0.070894
     15      -0.201189  -0.000049  -0.000012   0.137354   0.000011   0.000012
     16       0.228972   0.000139   0.000063  -0.241227  -0.000005  -0.000012
     17       0.000002   0.002014   0.165125   0.000059   0.059441  -0.148634
     18      -0.232336  -0.000063  -0.000049   0.092735  -0.000009  -0.000032
     19      -0.224443   0.000073   0.000039  -0.162277   0.000006  -0.000100
     20       0.000046  -0.053267  -0.174144  -0.000159  -0.013760   0.019972
     21      -0.115633   0.227060   0.153336  -0.312493   0.073719   0.105774
     22      -0.083408   0.001517  -0.011731  -0.005875  -0.001549  -0.010310
     23      -0.005314  -0.069658  -0.044376  -0.000650  -0.021683  -0.030672
     24      -0.026206  -0.000907  -0.000596  -0.320478  -0.000619  -0.000223
     25      -0.071620  -0.000146  -0.000015   0.023672   0.000026  -0.000147
     26      -0.000094  -0.117810  -0.049860   0.000002  -0.032496  -0.057031
     27      -0.115855  -0.225638  -0.152435  -0.312952  -0.073085  -0.105524
     28      -0.083499  -0.001251   0.011648  -0.006011   0.001890   0.010298
     29       0.005479  -0.069804  -0.044474   0.000590  -0.021868  -0.030826
     30       0.121717   0.000126  -0.000092  -0.023979   0.000178   0.000063
     31      -0.273273  -0.000056  -0.000056   0.194752   0.000076   0.000092
     32      -0.000087   0.284599  -0.613360  -0.000047   0.710220   0.247935
     33       0.160542  -0.000083  -0.000141   0.430142   0.000101  -0.000085
     34       0.348453   0.000024   0.000007  -0.011645   0.000004  -0.000011
     35      -0.000257   0.539526  -0.193739   0.000574   0.197487  -0.437992
     36      -0.016709   0.000195  -0.000024  -0.150294  -0.000071   0.000034
     37      -0.308030  -0.000034  -0.000047   0.070563  -0.000064   0.000051
     38      -0.000039   0.540100  -0.632993   0.000774  -0.543209  -0.291443
     39       0.011059  -0.000078  -0.000066   0.315442  -0.000061   0.000205
     40       0.331973   0.000081   0.000043  -0.163910   0.000006  -0.000024
     41      -0.000124   0.415217   0.088065   0.000426  -0.351205   0.773634
                 18         19         20         21         22         23    
      0       0.002394  -0.000011   0.048951   0.000133  -0.017520  -0.012445
      1       0.148492   0.000016  -0.068584  -0.000083  -0.002910   0.051849
      2      -0.000024   0.011168   0.000338  -0.158141   0.000137   0.000005
      3       0.006666   0.000004  -0.036154  -0.000007   0.013628   0.033511
      4       0.067168   0.000002   0.014515   0.000049   0.008780  -0.028607
      5       0.000061   0.000679  -0.000429   0.162356  -0.000131  -0.000009
      6      -0.006601  -0.000012  -0.148547  -0.000091   0.066252  -0.111470
      7      -0.045963   0.000043   0.354449   0.000209   0.035871   0.047850
      8      -0.000059   0.067361   0.000191  -0.044645   0.000033  -0.000001
      9      -0.034630  -0.000019  -0.037936  -0.000046  -0.041285   0.036162
     10      -0.030344  -0.000001  -0.055707  -0.000201  -0.201212  -0.006423
     11      -0.000048  -0.114975   0.000033   0.000463   0.000003  -0.000002
     12       0.037310   0.000058   0.377773   0.000139  -0.142661   0.012342
     13       0.039310  -0.000004  -0.017432   0.000036   0.048320  -0.072166
     14      -0.000012   0.086491  -0.000176   0.009647   0.000014  -0.000009
     15       0.031390   0.000003   0.024292  -0.000067   0.005023  -0.030870
     16      -0.038461   0.000002   0.055315   0.000174   0.174783   0.109817
     17       0.000105  -0.045422   0.000181  -0.027565   0.000025   0.000017
     18      -0.027471  -0.000026  -0.235504  -0.000088   0.033708   0.080613
     19      -0.088156  -0.000044  -0.300124  -0.000207  -0.082962  -0.016678
     20      -0.000035  -0.007943   0.000076  -0.019129   0.000009  -0.000009
     21      -0.361519   0.040355   0.188395  -0.594943  -0.020534  -0.115131
     22      -0.233283  -0.003934   0.098252   0.092782   0.004621  -0.073611
     23      -0.067241  -0.010493   0.036311   0.171504   0.005523  -0.029653
     24       0.691922  -0.000113  -0.229761   0.002135  -0.037817   0.136966
     25      -0.139212  -0.000046   0.048924   0.000843   0.003856  -0.013023
     26      -0.000546  -0.018312  -0.000429   0.351062  -0.000326  -0.000228
     27      -0.365796  -0.040221   0.187966   0.592583  -0.021542  -0.116392
     28      -0.232334   0.003887   0.098168  -0.093376   0.004675  -0.073221
     29       0.067778  -0.010519  -0.037218   0.172975  -0.005828   0.029913
     30      -0.023300  -0.000117   0.046451   0.000270   0.500621  -0.481686
     31      -0.059541   0.000036   0.478032   0.000400   0.271891  -0.154145
     32       0.000415  -0.423345  -0.000452   0.079175  -0.000197   0.000175
     33      -0.131446   0.000133  -0.035942   0.000161   0.254437   0.248927
     34       0.028380   0.000005  -0.037981  -0.000325  -0.401945  -0.134456
     35       0.000253   0.682867  -0.000364   0.068339  -0.000062  -0.000038
     36       0.051632  -0.000010   0.397118   0.000132  -0.152506  -0.038993
     37       0.206654  -0.000019   0.079426   0.000097   0.144797  -0.716876
     38      -0.000041  -0.479044   0.000556  -0.051292   0.000060   0.000048
     39       0.084980   0.000067  -0.003004   0.000163   0.397865   0.113216
     40      -0.016272  -0.000006   0.038809   0.000262   0.366704   0.177881
     41      -0.000403   0.306050  -0.001114   0.163789  -0.000244  -0.000108
                 24         25         26         27         28         29    
      0       0.002376  -0.098263   0.042663   0.005026  -0.152074   0.037325
      1      -0.006919  -0.026722  -0.025307  -0.061976   0.007772   0.052955
      2       0.000010  -0.000037   0.000094   0.000002  -0.000130   0.000041
      3       0.004849   0.325103  -0.106944  -0.013854   0.030509  -0.057357
      4       0.004065   0.045190   0.209403   0.184950   0.006996  -0.087289
      5      -0.000019  -0.000018  -0.000042  -0.000010  -0.000042   0.000004
      6      -0.036157   0.076007  -0.196971  -0.000952   0.012223  -0.013686
      7      -0.015454   0.027037  -0.063666  -0.046795   0.015272   0.071505
      8       0.000002  -0.000022   0.000028   0.000004   0.000005  -0.000011
      9       0.059826  -0.075709   0.173559   0.047691   0.003349   0.100839
     10      -0.034753  -0.089260  -0.049105  -0.049575  -0.016552  -0.012395
     11      -0.000003   0.000008  -0.000028  -0.000006   0.000003  -0.000015
     12       0.014460   0.031430   0.017308  -0.008409  -0.001162  -0.010586
     13       0.047968   0.009249   0.198649   0.010851  -0.003670  -0.108448
     14      -0.000002  -0.000005  -0.000006   0.000002   0.000002   0.000002
     15      -0.031750  -0.131121  -0.273474   0.023185  -0.023298  -0.100911
     16       0.000525   0.053120  -0.103491  -0.056028   0.008398   0.011095
     17       0.000003   0.000003   0.000039  -0.000006   0.000007   0.000017
     18      -0.012975   0.032294   0.299418  -0.053538   0.015998   0.051716
     19       0.008628  -0.028605  -0.169135  -0.008696  -0.011504   0.027203
     20       0.000008   0.000007  -0.000010   0.000011   0.000001   0.000004
     21       0.016183  -0.233092   0.067888   0.073766   0.532187   0.013716
     22       0.005436  -0.006760   0.101265   0.141756   0.052968  -0.332680
     23       0.001680   0.058401   0.063730   0.086338  -0.246124  -0.210883
     24      -0.039780  -0.393630  -0.102245  -0.142833   0.456933  -0.182852
     25       0.010858   0.085583   0.039550   0.008470  -0.231442   0.128475
     26       0.000015   0.000256  -0.000241   0.000738   0.001859  -0.002652
     27       0.016214  -0.233222   0.068429   0.074530   0.531551   0.014941
     28       0.005326  -0.007836   0.100595   0.140409   0.053926  -0.329101
     29      -0.001668  -0.058203  -0.064190  -0.087008   0.246108   0.212999
     30      -0.408648  -0.281446   0.457257  -0.394552  -0.073054  -0.088940
     31      -0.223263  -0.190747   0.312545  -0.269779  -0.030174   0.044132
     32       0.000074   0.000115  -0.000194   0.000015   0.000025   0.000064
     33       0.558084  -0.508276  -0.148921  -0.201712  -0.089802  -0.312678
     34      -0.346714   0.172537   0.160185   0.102345   0.041431   0.258809
     35      -0.000104   0.000097   0.000042   0.000018  -0.000007   0.000070
     36       0.052727   0.036517  -0.008254  -0.010558   0.000928   0.035136
     37       0.548417   0.168201  -0.160004  -0.037458   0.048707   0.503576
     38      -0.000025   0.000016   0.000006   0.000008  -0.000006  -0.000029
     39      -0.176582  -0.354199  -0.397500   0.717515  -0.026613   0.330822
     40      -0.065519  -0.045269  -0.187629   0.256408   0.007399   0.213591
     41       0.000017   0.000072  -0.000021  -0.000094  -0.000023  -0.000066
                 30         31         32         33         34         35    
      0      -0.007161  -0.000354   0.042264   0.001320  -0.029142   0.048473
      1       0.035214   0.000389   0.008306  -0.017107  -0.010438  -0.019663
      2      -0.000771   0.052037  -0.000013  -0.000016   0.000023   0.000306
      3       0.071346   0.000924  -0.136863  -0.050035   0.176602  -0.001055
[...]
     28      -0.435433   0.358233  -0.230883  -0.119202  -0.006468   0.309365
     29       0.332728  -0.046916   0.164536   0.107050   0.017609   0.522968
     30       0.165947   0.001428  -0.390283   0.188245   0.408852   0.005263
     31       0.052937   0.000301  -0.225832  -0.097485   0.262023  -0.007624
     32      -0.000038   0.006302   0.000067  -0.000026  -0.000044   0.000000
     33       0.188609   0.002105  -0.241434   0.491867  -0.119733   0.000402
     34      -0.140163  -0.001686   0.079365  -0.202176   0.278574  -0.000367
     35      -0.000123   0.007326   0.000031  -0.000084   0.000040  -0.000002
     36       0.010080   0.000113  -0.111121   0.147539  -0.106050  -0.001694
     37      -0.268163  -0.003180  -0.128595   0.329023   0.354618   0.000288
     38       0.000050  -0.002299   0.000011  -0.000038   0.000022  -0.000002
     39       0.124101   0.001178  -0.556400   0.045946  -0.380026  -0.000598
     40      -0.014966  -0.000243  -0.237265   0.158504  -0.078473   0.002389
     41      -0.000067   0.004173   0.000064  -0.000048   0.000056  -0.000002
                 36         37         38         39         40         41    
      0      -0.000172  -0.013324  -0.000039  -0.000080   0.000114  -0.000142
      1       0.000220  -0.090744  -0.000372   0.001618  -0.000588   0.000316
      2       0.091018   0.000154  -0.000001   0.000009  -0.000007   0.000003
      3       0.000015   0.000498   0.001004  -0.002350   0.001660  -0.000975
      4       0.000003  -0.001578  -0.001250  -0.000656   0.001765  -0.000609
      5       0.000943   0.000002   0.000000   0.000001  -0.000000   0.000000
      6       0.000008  -0.000773  -0.002895  -0.030349   0.027763  -0.010354
      7      -0.000013   0.001253   0.004818   0.056972  -0.047054   0.014370
      8      -0.000310   0.000002   0.000001   0.000006  -0.000006   0.000002
      9      -0.000000   0.000085  -0.002478  -0.026161  -0.030738   0.022815
     10      -0.000001  -0.000626  -0.004968  -0.044108  -0.043368   0.039615
     11      -0.000102   0.000001   0.000000   0.000005   0.000007  -0.000004
     12      -0.000002   0.000106   0.016603   0.014033   0.041394   0.073343
     13      -0.000001   0.000259  -0.003785   0.000084  -0.000680  -0.006370
     14       0.000026  -0.000000  -0.000001  -0.000002  -0.000006  -0.000009
     15       0.000002   0.000067  -0.031938   0.004801   0.003407   0.003803
     16       0.000004  -0.000385   0.076898  -0.011132  -0.010119  -0.015930
     17       0.000000  -0.000001   0.000007  -0.000001  -0.000000  -0.000000
     18      -0.000002   0.000183  -0.001219   0.000590  -0.000604  -0.000142
     19       0.000001   0.000130   0.000001  -0.000149   0.000524   0.000298
     20       0.000168  -0.000001  -0.000000  -0.000000  -0.000000  -0.000000
     21      -0.242648  -0.095831  -0.001006   0.004120  -0.002304   0.001137
     22       0.350229   0.120453   0.001098  -0.003699   0.001271  -0.001343
     23      -0.559016  -0.230972  -0.001802   0.007711  -0.003525   0.002251
     24       0.001028   0.341237   0.001697  -0.003541  -0.000953   0.000562
     25       0.002668   0.848094   0.003142  -0.011084   0.001790   0.000238
     26       0.021381  -0.003027  -0.000013   0.000037  -0.000001  -0.000006
     27       0.243512  -0.096793  -0.001020   0.004203  -0.002349   0.001155
     28      -0.355540   0.123551   0.001130  -0.003871   0.001361  -0.001385
     29      -0.558124   0.232138   0.001824  -0.007854   0.003609  -0.002278
     30      -0.000088   0.008572   0.032720   0.367364  -0.300375   0.093655
     31       0.000150  -0.011879  -0.057216  -0.662284   0.535895  -0.162984
     32       0.001833  -0.000007  -0.000006  -0.000065   0.000053  -0.000017
     33      -0.000009   0.003373   0.036710   0.322854   0.324838  -0.263222
     34      -0.000009   0.005796   0.060030   0.517711   0.510269  -0.424169
     35      -0.000007   0.000000  -0.000007  -0.000064  -0.000061   0.000051
     36       0.000008  -0.001035  -0.218727  -0.169958  -0.485553  -0.823078
     37      -0.000002   0.000403   0.021297   0.011290   0.033469   0.063232
     38       0.000462   0.000002   0.000026   0.000021   0.000056   0.000098
     39       0.000013  -0.003082   0.401806  -0.055357  -0.044436  -0.062655
     40      -0.000036   0.005887  -0.879572   0.120902   0.100760   0.148218
     41      -0.000053   0.000002  -0.000096   0.000014   0.000010   0.000016


-----------
IR SPECTRUM
-----------

 Mode   freq       eps      Int      T**2         TX        TY        TZ
       cm**-1   L/(mol*cm) km/mol    a.u.
----------------------------------------------------------------------------
  7:    196.00   0.000550    2.78  0.000875  (-0.000033 -0.000071  0.029579)
  8:    359.04   0.000690    3.48  0.000599  ( 0.008731 -0.022872 -0.000016)
  9:    411.75   0.000920    4.65  0.000697  (-0.000006  0.000066  0.026402)
 10:    474.79   0.000961    4.86  0.000632  ( 0.000000  0.000056 -0.025138)
 11:    556.73   0.000292    1.48  0.000164  ( 0.012276  0.003639  0.000033)
 12:    641.84   0.000361    1.82  0.000175  ( 0.005566  0.012020 -0.000006)
 13:    753.15   0.008267   41.78  0.003425  (-0.000017 -0.000012  0.058526)
 14:    759.27   0.001265    6.39  0.000520  ( 0.000019 -0.000052 -0.022799)
 15:    821.59   0.000162    0.82  0.000062  ( 0.007742  0.001317  0.000050)
 16:    890.28   0.000005    0.03  0.000002  (-0.000002 -0.000021  0.001320)
 17:    966.19   0.000004    0.02  0.000001  (-0.000007  0.000021 -0.001066)
 18:    984.74   0.001448    7.32  0.000459  ( 0.020490  0.006242  0.000015)
 19:    995.35   0.000005    0.02  0.000001  ( 0.000002  0.000024 -0.001203)
 20:   1010.61   0.000721    3.64  0.000223  ( 0.000803  0.014898 -0.000034)
 21:   1054.60   0.000830    4.19  0.000245  ( 0.000137 -0.000004  0.015666)
 22:   1069.27   0.001134    5.73  0.000331  ( 0.008975  0.015825 -0.000014)
 23:   1123.19   0.000207    1.05  0.000058  ( 0.001449 -0.007452  0.000005)
 24:   1173.81   0.000716    3.62  0.000190  ( 0.010133 -0.009365 -0.000000)
 25:   1257.09   0.000895    4.52  0.000222  ( 0.014906  0.000241  0.000027)
 26:   1283.09   0.000976    4.93  0.000237  (-0.015360 -0.001178 -0.000008)
 27:   1316.75   0.000339    1.71  0.000080  ( 0.006119  0.006550 -0.000002)
 28:   1397.08   0.000769    3.89  0.000172  ( 0.012781 -0.002921  0.000023)
 29:   1447.99   0.001417    7.16  0.000305  (-0.017475 -0.000315 -0.000010)
 30:   1472.93   0.007734   39.08  0.001638  ( 0.030061 -0.027107  0.000243)
 31:   1477.90   0.001573    7.95  0.000332  ( 0.000445 -0.000334 -0.018218)
 32:   1503.58   0.004662   23.56  0.000968  (-0.031082 -0.001196 -0.000005)
 33:   1598.06   0.003690   18.65  0.000721  (-0.017059  0.020728  0.000002)
 34:   1622.95   0.009500   48.01  0.001827  ( 0.039147  0.017149 -0.000002)
 35:   3013.47   0.003177   16.05  0.000329  ( 0.017448 -0.004951  0.000051)
 36:   3074.24   0.002435   12.31  0.000247  (-0.000061  0.000055  0.015722)
 37:   3125.12   0.001562    7.89  0.000156  (-0.005857 -0.011031  0.000010)
 38:   3137.06   0.004103   20.74  0.000408  (-0.011753  0.016433 -0.000001)
 39:   3156.12   0.000644    3.25  0.000064  (-0.007920 -0.000951  0.000002)
 40:   3170.62   0.004096   20.70  0.000403  ( 0.008622 -0.018132 -0.000002)
 41:   3184.73   0.002909   14.70  0.000285  ( 0.016485  0.003647 -0.000002)

* The epsilon (eps) is given for a Dirac delta lineshape.
** The dipole moment derivative (T) already includes vibrational overlap.

The first frequency considered to be a vibration is 7
The total number of vibrations considered is 35


--------------------------
THERMOCHEMISTRY AT 298.15K
--------------------------

Temperature         ...   298.15 K
Pressure            ...     1.00 atm
Total Mass          ...    93.13 AMU
Quasi RRHO          ...     True
Cut-Off Frequency   ...     1.00 cm^-1

Throughout the following assumptions are being made:
  (1) The electronic state is orbitally nondegenerate
  (2) There are no thermally accessible electronically excited states
  (3) Hindered rotations indicated by low frequency modes are not
      treated as such but are treated as vibrations and this may
      cause some error
  (4) All equations used are the standard statistical mechanics
      equations for an ideal gas
  (5) All vibrations are strictly harmonic

freq.     196.00  E(vib)   ...       0.36 
freq.     359.04  E(vib)   ...       0.22 
freq.     411.75  E(vib)   ...       0.19 
freq.     474.79  E(vib)   ...       0.15 
freq.     556.73  E(vib)   ...       0.12 
freq.     641.84  E(vib)   ...       0.09 
freq.     753.15  E(vib)   ...       0.06 
freq.     759.27  E(vib)   ...       0.06 
freq.     821.59  E(vib)   ...       0.05 
freq.     890.28  E(vib)   ...       0.04 
freq.     966.19  E(vib)   ...       0.03 
freq.     984.74  E(vib)   ...       0.02 
freq.     995.35  E(vib)   ...       0.02 
freq.    1010.61  E(vib)   ...       0.02 
freq.    1054.60  E(vib)   ...       0.02 
freq.    1069.27  E(vib)   ...       0.02 
freq.    1123.19  E(vib)   ...       0.01 
freq.    1173.81  E(vib)   ...       0.01 
freq.    1257.09  E(vib)   ...       0.01 
freq.    1283.09  E(vib)   ...       0.01 
freq.    1316.75  E(vib)   ...       0.01 
freq.    1397.08  E(vib)   ...       0.00 
freq.    1447.99  E(vib)   ...       0.00 
freq.    1472.93  E(vib)   ...       0.00 
freq.    1477.90  E(vib)   ...       0.00 
freq.    1503.58  E(vib)   ...       0.00 
freq.    1598.06  E(vib)   ...       0.00 
freq.    1622.95  E(vib)   ...       0.00 
freq.    3013.47  E(vib)   ...       0.00 
freq.    3074.24  E(vib)   ...       0.00 
freq.    3125.12  E(vib)   ...       0.00 
freq.    3137.06  E(vib)   ...       0.00 
freq.    3156.12  E(vib)   ...       0.00 
freq.    3170.62  E(vib)   ...       0.00 
freq.    3184.73  E(vib)   ...       0.00 

------------
INNER ENERGY
------------

The inner energy is: U= E(el) + E(ZPE) + E(vib) + E(rot) + E(trans)
    E(el)   - is the total energy from the electronic structure calculation
              = E(kin-el) + E(nuc-el) + E(el-el) + E(nuc-nuc)
    E(ZPE)  - the the zero temperature vibrational energy from the frequency calculation
    E(vib)  - the the finite temperature correction to E(ZPE) due to population
              of excited vibrational states
    E(rot)  - is the rotational thermal energy
    E(trans)- is the translational thermal energy

Summary of contributions to the inner energy U:
Electronic energy                ...   -287.54271829 Eh
Zero point energy                ...      0.11500414 Eh      72.17 kcal/mol
Thermal vibrational correction   ...      0.00242088 Eh       1.52 kcal/mol
Thermal rotational correction    ...      0.00141627 Eh       0.89 kcal/mol
Thermal translational correction ...      0.00141627 Eh       0.89 kcal/mol
-----------------------------------------------------------------------
Total thermal energy                   -287.42246073 Eh


Summary of corrections to the electronic energy:
(perhaps to be used in another calculation)
Total thermal correction                  0.00525342 Eh       3.30 kcal/mol
Non-thermal (ZPE) correction              0.11500414 Eh      72.17 kcal/mol
-----------------------------------------------------------------------
Total correction                          0.12025756 Eh      75.46 kcal/mol


--------
ENTHALPY
--------

The enthalpy is H = U + kB*T
                kB is Boltzmann's constant
Total thermal energy              ...   -287.42246073 Eh 
Thermal Enthalpy correction       ...      0.00094421 Eh       0.59 kcal/mol
-----------------------------------------------------------------------
Total Enthalpy                    ...   -287.42151652 Eh


Note: Only C1 symmetry has been detected, increase convergence thresholds 
      if your molecule has a higher symmetry. Symmetry factor of 1.0 is   
      used for the rotational entropy correction. 
 

Note: Rotational entropy computed according to Herzberg 
Infrared and Raman Spectra, Chapter V,1, Van Nostrand Reinhold, 1945 
Point Group:  C1, Symmetry Number:   1  
Rotational constants in cm-1:     0.190613     0.087871     0.060823 

Vibrational entropy computed according to the QRRHO of S. Grimme
Chem.Eur.J. 2012 18 9955 using a reference frequency of 100.0 cm-1


-------
ENTROPY
-------

The entropy contributions are T*S = T*(S(el)+S(vib)+S(rot)+S(trans))
     S(el)   - electronic entropy
     S(vib)  - vibrational entropy
     S(rot)  - rotational entropy
     S(trans)- translational entropy
The entropies will be listed as multiplied by the temperature to get
units of energy

Electronic entropy                ...      0.00000000 Eh      0.00 kcal/mol
Vibrational entropy               ...      0.00356548 Eh      2.24 kcal/mol
Rotational entropy                ...      0.01276313 Eh      8.01 kcal/mol
Translational entropy             ...      0.01877043 Eh     11.78 kcal/mol
-----------------------------------------------------------------------
Final entropy term                ...      0.03509903 Eh     22.02 kcal/mol

In case the symmetry of your molecule has not been determined correctly
or in case you have a reason to use a different symmetry number we print 
out the resulting rotational entropy values for sn=1,12:

 non-linear molecules -----------------------------------
|  sn= 1 | S(rot)=       0.01276313 Eh      8.01 kcal/mol|
|  sn= 2 | S(rot)=       0.01210867 Eh      7.60 kcal/mol|
|  sn= 3 | S(rot)=       0.01172584 Eh      7.36 kcal/mol|
|  sn= 4 | S(rot)=       0.01145422 Eh      7.19 kcal/mol|
|  sn= 5 | S(rot)=       0.01124353 Eh      7.06 kcal/mol|
|  sn= 6 | S(rot)=       0.01107139 Eh      6.95 kcal/mol|
|  sn= 7 | S(rot)=       0.01092584 Eh      6.86 kcal/mol|
|  sn= 8 | S(rot)=       0.01079976 Eh      6.78 kcal/mol|
|  sn= 9 | S(rot)=       0.01068855 Eh      6.71 kcal/mol|
|  sn=10 | S(rot)=       0.01058907 Eh      6.64 kcal/mol|
|  sn=11 | S(rot)=       0.01049908 Eh      6.59 kcal/mol|
|  sn=12 | S(rot)=       0.01041693 Eh      6.54 kcal/mol|
 linear molecules ---------------------------------------
|  Dinfh | S(rot)=       0.00796932 Eh      5.00 kcal/mol|
|  Cinfv | S(rot)=       0.00862378 Eh      5.41 kcal/mol|
 --------------------------------------------------------


-------------------
GIBBS FREE ENERGY
-------------------

The Gibbs free energy is G = H - T*S

Total enthalpy                    ...   -287.42151652 Eh 
Total entropy correction          ...     -0.03509903 Eh    -22.02 kcal/mol
-----------------------------------------------------------------------
Final Gibbs free energy         ...   -287.45661556 Eh

For completeness - the Gibbs free energy minus the electronic energy
G-E(el)                           ...      0.08610274 Eh     54.03 kcal/mol


Maximum memory used throughout the entire PROP-calculation: 53.3 MB

--------------------------------
SUGGESTED CITATIONS FOR THIS RUN
--------------------------------

Below you find a list of papers that are relevant to this ORCA run
We neither can nor want to force you to cite these papers, but we appreciate if you do
You receive ORCA, which is the product of decades of hard work by many enthusiastic individuals, for free
The only thing we kindly ask in return is that you cite our papers,
We deeply appreciate it, if you show your appreciation for ORCA by not just citing the generic ORCA reference.

Please note that relegating all ORCA citations to the supporting information does *not* help us.
SI sections are not indexed - citations you put there will not count into any citation statistics
But we need these citations in order to attract the funding resources that allow us to do what we are doing

Therefore, if you are a happy ORCA user, please consider citing a few of the papers listed below in the main body of your paper

In addition to the list printed below, the program has created the file censo.bibtex that contains the list in bibtex format
You can import this file easily into all common literature databanks and citation aid programs


List of essential papers. We consider these as the minimum necessary citations

  1. Neese,F.
     Software update: the ORCA program system, version 5.0
     WIRES Comput. Molec. Sci., 2022 12(1)e1606
     doi.org/10.1002/wcms.1606
  2. Grimme,S.; Hansen,A.; Ehlert,S.; Mewes,J.
     r2SCAN-3c: A 'Swiss army knife' composite electronic-structure method
     J. Chem. Phys., 2021 154 064103
     doi.org/10.1063/5.0040021

List of papers to cite with high priority. The work reported in these papers was absolutely
necessary for this run to complete.
Our perspective: the developers of density functionals and basis sets usually get cited in chemistry papers
Good! But without the algorithms to do something with them, the functionals or basis sets would not do anything.
Hence, in our opinion, the algorithm design and method developments papers are equally worthy of getting cited

  1. Neese,F.
     An improvement of the resolution of the identity approximation for the formation of the Coulomb matrix
     J. Comp. Chem., 2003 24(14)1740-1747
     doi.org/10.1002/jcc.10318
  2. Bykov,D.; Petrenko,T.; Izsak,R.; Kossmann,S.; Becker,U.; Valeev,E.; Neese,F.
     Efficient implementation of the analytic second derivatives of Hartree-Fock and hybrid DFT energies: a detailed analysis of different approximations
     Molec. Phys., 2015 113 1961-1977
     doi.org/10.1080/00268976.2015.1025114
  3. Neese,F.
     The SHARK Integral Generation and Digestion System
     J. Comp. Chem., 2022  1-16
     doi.org/10.1002/jcc.26942
  4. Lehtola,S.; Steigemann,C.; Oliveira,M.; Marques,M.
     Recent developments in Libxc - A comprehensive library of functionals for density functional theory
     Software X, 2018 7 
     doi.org/10.1016/j.softx.2017.11.002
  5. Caldeweyher,E.; Bannwarth,C.; Grimme,S.
     Extension of the D3 dispersion coefficient model
     J. Chem. Phys., 2017 147 034112-XXXX
     doi.org/10.1063/1.4993215
  6. Caldeweyher,E.; Ehlert,S.; Hansen,A.; Neugebauer,H.; Spicher,S.; Bannwarth,C.; Grimme,S.
     A generally applicable atomic-charge dependent London dispersion correction
     J. Chem. Phys., 2019 150 154122-XXXX
     doi.org/10.1063/1.5090222
  7. Caldeweyher,E.; Mewes,J.; Ehlert,S.; Grimme,S.
     Extension and evaluation of the D4 London-dispersion model for periodic systems
     Phys. Chem. Chem. Phys., 2020 22(16)8499-8512
     doi.org/10.1039/D0CP00502A

List of suggested additional citations. These are papers that are important in the 'surrounding' of 
of this run, or papers that preceded the highly important papers. If you like your results we are grateful for a citation.

  1. Neese,F.
     The ORCA program system
     WIRES Comput. Molec. Sci., 2012 2(1)73-78
     doi.org/10.1002/wcms.81
  2. Neese,F.
     Software update: the ORCA program system, version 4.0
     WIRES Comput. Molec. Sci., 2018 8(1)1-6
     doi.org/10.1002/wcms.1327
  3. Neese,F.; Wennmohs,F.; Becker,U.; Riplinger,C.
     The ORCA quantum chemistry program package
     J. Chem. Phys., 2020 152 Art. No. L224108
     doi.org/10.1063/5.0004608

List of optional additional citations

  1. Neese,F.
     Approximate second-order SCF convergence for spin unrestricted wavefunctions
     Chem. Phys. Lett., 2000 325(1-3)93-98
     doi.org/10.1016/s0009-2614(00)00662-x

Timings for individual modules:

Sum of individual times          ...      484.714 sec (=   8.079 min)
Startup calculation              ...        1.034 sec (=   0.017 min)   0.2 %
SCF iterations                   ...       23.248 sec (=   0.387 min)   4.8 %
Property integrals               ...      284.306 sec (=   4.738 min)  58.7 %
SCF Response                     ...       88.219 sec (=   1.470 min)  18.2 %
Property calculations            ...       87.906 sec (=   1.465 min)  18.1 %
                             ****ORCA TERMINATED NORMALLY****
TOTAL RUN TIME: 0 days 0 hours 8 minutes 5 seconds 357 msec
