      -----------------------------------------------------------      
     |                   =====================                   |     
     |                           x T B                           |     
     |                   =====================                   |     
     |                         S. Grimme                         |     
     |          Mulliken Center for Theoretical Chemistry        |     
     |                    University of Bonn                     |     
      -----------------------------------------------------------      

   * xtb version 6.7.1 (edcfbbe) compiled by 'albert@albert-system' on 2024-07-22

   xtb is free software: you can redistribute it and/or modify it under
   the terms of the GNU Lesser General Public License as published by
   the Free Software Foundation, either version 3 of the License, or
   (at your option) any later version.
   
   xtb is distributed in the hope that it will be useful,
   but WITHOUT ANY WARRANTY; without even the implied warranty of
   MERCHANTABILITY or FITNESS FOR A PARTICULAR PURPOSE.  See the
   GNU Lesser General Public License for more details.
   
   Cite this work as:
   * C. Bannwarth, E. Caldeweyher, S. Ehlert, A. Hansen, P. Pracht,
     J. Seibert, S. Spicher, S. Grimme, WIREs Comput. Mol. Sci., 2020, 11,
     e01493. DOI: 10.1002/wcms.1493
   
   for GFN2-xTB:
   * C. Bannwarth, S. Ehlert and S. Grimme., J. Chem. Theory Comput., 2019,
     15, 1652-1671. DOI: 10.1021/acs.jctc.8b01176
   for GFN1-xTB:
   * S. Grimme, C. Bannwarth, P. Shushkov, J. Chem. Theory Comput., 2017,
     13, 1989-2009. DOI: 10.1021/acs.jctc.7b00118
   for GFN0-xTB:
   * P. Pracht, E. Caldeweyher, S. Ehlert, S. Grimme, ChemRxiv, 2019, preprint.
     DOI: 10.26434/chemrxiv.8326202.v1
   for GFN-FF:
   * S. Spicher and S. Grimme, Angew. Chem. Int. Ed., 2020, 59, 15665-15673.
     DOI: 10.1002/anie.202004239
   
   for ALPB and GBSA implicit solvation:
   * S. Ehlert, M. Stahn, S. Spicher, S. Grimme, J. Chem. Theory Comput.,
     2021, 17, 4250-4261. DOI: 10.1021/acs.jctc.1c00471
   
   for ddCOSMO and CPCM-X implicit solvation:
   * M. Stahn, S. Ehlert, S. Grimme, J. Phys. Chem. A,
     2023, XX, XXXX-XXXX. DOI: 10.1021/acs.jpca.3c04382
   
   for DFT-D4:
   * E. Caldeweyher, C. Bannwarth and S. Grimme, J. Chem. Phys., 2017,
     147, 034112. DOI: 10.1063/1.4993215
   * E. Caldeweyher, S. Ehlert, A. Hansen, H. Neugebauer, S. Spicher,
     C. Bannwarth and S. Grimme, J. Chem. Phys., 2019, 150, 154122.
     DOI: 10.1063/1.5090222
   * E. Caldeweyher, J.-M. Mewes, S. Ehlert and S. Grimme, Phys. Chem. Chem. Phys.
     2020, 22, 8499-8512. DOI: 10.1039/D0CP00502A
   
   for sTDA-xTB:
   * S. Grimme and C. Bannwarth, J. Chem. Phys., 2016, 145, 054103.
     DOI: 10.1063/1.4959605
   
   in the mass-spec context:
   * V. Asgeirsson, C. Bauer and S. Grimme, Chem. Sci., 2017, 8, 4879.
     DOI: 10.1039/c7sc00601b
   * J. Koopman and S. Grimme, ACS Omega 2019, 4, 12, 15120-15133.
     DOI: 10.1021/acsomega.9b02011
   
   for metadynamics refer to:
   * S. Grimme, J. Chem. Theory Comput., 2019, 155, 2847-2862
     DOI: 10.1021/acs.jctc.9b00143
   
   for SPH calculations refer to:
   * S. Spicher and S. Grimme, J. Chem. Theory Comput., 2021, 17, 1701-1714
     DOI: 10.1021/acs.jctc.0c01306
   
   for ONIOM refer to:
   * C. Plett, A. Katbashev, S. Ehlert, S. Grimme, M. Bursch,
     Phys. Chem. Chem. Phys., 2023, 25, 17860-17868. DOI: 10.1039/D3CP02178E
   
   for DIPRO refer to:
   * J. Kohn, N. Gildemeister, S. Grimme, D. Fazzi, A. Hansen,
     J. Chem. Phys., 2023, just accepted.
   
   for PTB refer to:
   * S. Grimme, M. Mueller, A. Hansen, J. Chem. Phys., 2023, 158, 124111.
     DOI: 10.1063/5.0137838
   
   with help from (in alphabetical order)
   P. Atkinson, C. Bannwarth, F. Bohle, G. Brandenburg, E. Caldeweyher
   M. Checinski, S. Dohm, S. Ehlert, S. Ehrlich, I. Gerasimov, C. Hölzer
   A. Katbashev, J. Kohn, J. Koopman, C. Lavigne, S. Lehtola, F. März, M. Müller,
   F. Musil, H. Neugebauer, J. Pisarek, C. Plett, P. Pracht, F. Pultar,
   J. Seibert, P. Shushkov, S. Spicher, M. Stahn, M. Steiner, T. Strunk,
   J. Stückrath, T. Rose, and J. Unsleber
   
 * started run on 2025/04/15 at 19:16:19.487     
   ID    Z sym.   atoms
    1    6 C      1, 3, 4
    2    7 N      2
    3    1 H      5-13

           -------------------------------------------------
          |                Calculation Setup                |
           -------------------------------------------------

          program call               : /software/projects/pawsey0265/mwang1/xtb/bin/xtb xtb_rrho.coord --gfn2 --ohess vtight --chrg 0 --enso --norestart -I rrho-xcontrol-inp --parallel 1
          hostname                   : nid002793
          coordinate file            : xtb_rrho.coord
          omp threads                :                     1


           -------------------------------------------------
          |                 G F N 2 - x T B                 |
           -------------------------------------------------

        Reference                      10.1021/acs.jctc.8b01176
      * Hamiltonian:
        H0-scaling (s, p, d)           1.850000    2.230000    2.230000
        zeta-weighting                 0.500000
      * Dispersion:
        s8                             2.700000
        a1                             0.520000
        a2                             5.000000
        s9                             5.000000
      * Repulsion:
        kExp                           1.500000    1.000000
        rExp                           1.000000
      * Coulomb:
        alpha                          2.000000
        third order                    shell-resolved
        anisotropic                    true
        a3                             3.000000
        a5                             4.000000
        cn-shift                       1.200000
        cn-exp                         4.000000
        max-rad                        5.000000


          ...................................................
          :                      SETUP                      :
          :.................................................:
          :  # basis functions                  25          :
          :  # atomic orbitals                  25          :
          :  # shells                           17          :
          :  # electrons                        26          :
          :  max. iterations                   250          :
          :  Hamiltonian                  GFN2-xTB          :
          :  restarted?                      false          :
          :  GBSA solvation                  false          :
          :  PC potential                    false          :
          :  electronic temp.          300.0000000     K    :
          :  accuracy                    1.0000000          :
          :  -> integral cutoff          0.2500000E+02      :
          :  -> integral neglect         0.1000000E-07      :
          :  -> SCF convergence          0.1000000E-05 Eh   :
          :  -> wf. convergence          0.1000000E-03 e    :
          :  Broyden damping             0.4000000          :
          :  net charge                          0          :
          :  unpaired electrons                  0          :
          ...................................................

 iter      E             dE          RMSdq      gap      omega  full diag
   1    -14.0696019 -0.140696E+02  0.277E+00   10.78       0.0  T
   2    -14.0967332 -0.271313E-01  0.161E+00   10.73       1.0  T
   3    -14.0972813 -0.548176E-03  0.785E-01   10.71       1.0  T
   4    -14.0973634 -0.820886E-04  0.798E-02   10.64       1.0  T
   5    -14.0973657 -0.229312E-05  0.424E-02   10.64       1.0  T
   6    -14.0973658 -0.105249E-06  0.189E-03   10.64      14.6  T
   7    -14.0973658 -0.492633E-08  0.611E-04   10.64      45.4  T
   8    -14.0973658 -0.240606E-08  0.915E-05   10.64     303.3  T

   *** convergence criteria satisfied after 8 iterations ***

         #    Occupation            Energy/Eh            Energy/eV
      -------------------------------------------------------------
         1        2.0000           -0.6336488             -17.2425
       ...           ...                  ...                  ...
         7        2.0000           -0.5137820             -13.9807
         8        2.0000           -0.4704626             -12.8019
         9        2.0000           -0.4704537             -12.8017
        10        2.0000           -0.4529718             -12.3260
        11        2.0000           -0.4483166             -12.1993
        12        2.0000           -0.4483154             -12.1993
        13        2.0000           -0.3498252              -9.5192 (HOMO)
        14                          0.0412539               1.1226 (LUMO)
        15                          0.0949145               2.5828
        16                          0.0949289               2.5831
        17                          0.1208535               3.2886
        18                          0.1710894               4.6556
       ...                                ...                  ...
        25                          0.2496493               6.7933
      -------------------------------------------------------------
                  HL-Gap            0.3910790 Eh           10.6418 eV
             Fermi-level           -0.1542857 Eh           -4.1983 eV

 SCC (total)                   0 d,  0 h,  0 min,  0.028 sec
 SCC setup                      ...        0 min,  0.000 sec (  1.524%)
 Dispersion                     ...        0 min,  0.000 sec (  0.323%)
 classical contributions        ...        0 min,  0.000 sec (  0.238%)
 integral evaluation            ...        0 min,  0.001 sec (  2.326%)
 iterations                     ...        0 min,  0.025 sec ( 89.461%)
 molecular gradient             ...        0 min,  0.002 sec (  5.454%)
 printout                       ...        0 min,  0.000 sec (  0.576%)

         :::::::::::::::::::::::::::::::::::::::::::::::::::::
         ::                     SUMMARY                     ::
         :::::::::::::::::::::::::::::::::::::::::::::::::::::
         :: total energy             -13.924013608203 Eh    ::
         :: gradient norm              0.015513860231 Eh/a0 ::
         :: HOMO-LUMO gap             10.641801721616 eV    ::
         ::.................................................::
         :: SCC energy               -14.097360064245 Eh    ::
         :: -> isotropic ES            0.005942580244 Eh    ::
         :: -> anisotropic ES          0.005241012385 Eh    ::
         :: -> anisotropic XC          0.012443617360 Eh    ::
         :: -> dispersion             -0.005999098134 Eh    ::
         :: repulsion energy           0.173346456042 Eh    ::
         :: add. restraining           0.000000000000 Eh    ::
         :: total charge              -0.000000000000 e     ::
         :::::::::::::::::::::::::::::::::::::::::::::::::::::

      ----------------------------------------------------------- 
     |                   =====================                   |
     |                        A N C O P T                        |
     |                   =====================                   |
     |               Approximate Normal Coordinate               |
     |                Rational Function Optimizer                |
      ----------------------------------------------------------- 
      ----------------------------------------------------------- 
     |                   =====================                   |
     |                        A N C O P T                        |
     |                   =====================                   |
     |               Approximate Normal Coordinate               |
     |                Rational Function Optimizer                |
      ----------------------------------------------------------- 

          ...................................................
          :                      SETUP                      :
          :.................................................:
          :   optimization level         verytight          :
          :   max. optcycles                   260          :
          :   ANC micro-cycles                  20          :
          :   degrees of freedom                33          :
          :.................................................:
          :   RF solver                   davidson          :
          :   write xtbopt.log                true          :
          :   linear?                        false          :
          :   energy convergence         0.1000000E-06 Eh   :
          :   grad. convergence          0.2000000E-03 Eh/α :
          :   maxmium RF displ.          1.0000000          :
          :   Hlow (freq-cutoff)         0.1000000E-01      :
          :   Hmax (freq-cutoff)         5.0000000          :
          :   S6 in model hess.         20.0000000          :
          ...................................................

generating ANC from exact Hessian ...
Using Lindh-Hessian (1995)
 Shifting diagonal of input Hessian by   8.425566528678565E-004
 Lowest  eigenvalues of input Hessian
    0.000000    0.000000    0.000000    0.000000    0.000000    0.000000
    0.010000    0.010223    0.010223    0.017791    0.017793    0.021127
    0.061913    0.066641    0.066644    0.071575    0.072554    0.072560
 Highest eigenvalues
    1.083172    1.122097    1.125652    1.125706    1.431164    1.431214
 

........................................................................
.............................. CYCLE    1 ..............................
........................................................................

 iter      E             dE          RMSdq      gap      omega  full diag
   1    -14.0973658 -0.140974E+02  0.119E-05   10.64       0.0  T
   2    -14.0973658 -0.307310E-12  0.604E-06   10.64    4594.9  T
   3    -14.0973658 -0.888178E-14  0.241E-06   10.64   11494.5  T
     SCC iter.                  ...        0 min,  0.000 sec
     gradient                   ...        0 min,  0.001 sec
 * total energy  :   -13.9240136 Eh     change       -0.5037748E-11 Eh
   gradient norm :     0.0155135 Eh/α   predicted     0.0000000E+00 (-100.00%)
   displ. norm   :     0.0981830 α      lambda       -0.1052575E-02
   maximum displ.:     0.0892834 α      in ANC's #7, #22, #6, ...

........................................................................
.............................. CYCLE    2 ..............................
........................................................................

 iter      E             dE          RMSdq      gap      omega  full diag
   1    -14.1055532 -0.141056E+02  0.117E-01   10.87       0.0  T
   2    -14.1055590 -0.574929E-05  0.722E-02   10.87       1.0  T
   3    -14.1055592 -0.230638E-06  0.811E-03   10.87       3.4  T
   4    -14.1055592 -0.413406E-07  0.207E-03   10.87      13.4  T
   5    -14.1055592 -0.147537E-08  0.455E-04   10.87      61.0  T
   6    -14.1055592 -0.543743E-10  0.940E-05   10.87     295.2  T
     SCC iter.                  ...        0 min,  0.001 sec
     gradient                   ...        0 min,  0.001 sec
 * total energy  :   -13.9246466 Eh     change       -0.6329633E-03 Eh
   gradient norm :     0.0039841 Eh/α   predicted    -0.5313617E-03 ( -16.05%)
   displ. norm   :     0.0391721 α      lambda       -0.8080556E-04
   maximum displ.:     0.0324738 α      in ANC's #6, #7, #22, ...

........................................................................
.............................. CYCLE    3 ..............................
........................................................................

 iter      E             dE          RMSdq      gap      omega  full diag
   1    -14.1079549 -0.141080E+02  0.343E-02   10.89       0.0  T
   2    -14.1079553 -0.309750E-06  0.202E-02   10.90       1.4  T
   3    -14.1079553 -0.491706E-07  0.208E-03   10.90      13.3  T
   4    -14.1079553 -0.235170E-08  0.970E-04   10.90      28.6  T
   5    -14.1079553 -0.461075E-09  0.158E-04   10.90     175.8  T
     SCC iter.                  ...        0 min,  0.001 sec
     gradient                   ...        0 min,  0.001 sec
 * total energy  :   -13.9246917 Eh     change       -0.4511067E-04 Eh
   gradient norm :     0.0010492 Eh/α   predicted    -0.4046383E-04 ( -10.30%)
   displ. norm   :     0.0229702 α      lambda       -0.4990258E-05
   maximum displ.:     0.0225194 α      in ANC's #6, #7, #22, ...

........................................................................
.............................. CYCLE    4 ..............................
........................................................................

 iter      E             dE          RMSdq      gap      omega  full diag
   1    -14.1080054 -0.141080E+02  0.152E-02   10.89       0.0  T
   2    -14.1080055 -0.627077E-07  0.866E-03   10.89       3.2  T
   3    -14.1080055 -0.135700E-07  0.101E-03   10.89      27.3  T
   4    -14.1080055 -0.484233E-09  0.390E-04   10.89      71.2  T
   5    -14.1080055 -0.114662E-09  0.704E-05   10.89     394.0  T
     SCC iter.                  ...        0 min,  0.001 sec
     gradient                   ...        0 min,  0.001 sec
 * total energy  :   -13.9246951 Eh     change       -0.3414748E-05 Eh
   gradient norm :     0.0003414 Eh/α   predicted    -0.2497198E-05 ( -26.87%)
   displ. norm   :     0.0028105 α      lambda       -0.2699481E-06
   maximum displ.:     0.0022303 α      in ANC's #6, #7, #22, ...

........................................................................
.............................. CYCLE    5 ..............................
........................................................................

 iter      E             dE          RMSdq      gap      omega  full diag
   1    -14.1078126 -0.141078E+02  0.277E-03   10.89       0.0  T
   2    -14.1078126 -0.497128E-08  0.155E-03   10.89      17.9  T
   3    -14.1078126 -0.257357E-09  0.296E-04   10.89      93.8  T
   4    -14.1078126 -0.265903E-10  0.662E-05   10.89     418.8  T
     SCC iter.                  ...        0 min,  0.000 sec
     gradient                   ...        0 min,  0.002 sec
 * total energy  :   -13.9246953 Eh     change       -0.1816954E-06 Eh
   gradient norm :     0.0000735 Eh/α   predicted    -0.1335368E-06 ( -26.51%)
   displ. norm   :     0.0006181 α      lambda       -0.1845111E-07
   maximum displ.:     0.0005012 α      in ANC's #6, #21, #7, ...

........................................................................
.............................. CYCLE    6 ..............................
........................................................................

 iter      E             dE          RMSdq      gap      omega  full diag
   1    -14.1078489 -0.141078E+02  0.402E-04   10.90       0.0  T
   2    -14.1078489 -0.558151E-09  0.268E-04   10.90     103.6  T
   3    -14.1078489 -0.883205E-11  0.136E-04   10.90     203.4  T
     SCC iter.                  ...        0 min,  0.000 sec
     gradient                   ...        0 min,  0.001 sec
 * total energy  :   -13.9246953 Eh     change       -0.1117952E-07 Eh
   gradient norm :     0.0000110 Eh/α   predicted    -0.7917527E-08 ( -29.18%)
   displ. norm   :     0.0001311 α      lambda       -0.2362294E-08
   maximum displ.:     0.0000856 α      in ANC's #6, #1, #3, ...

   *** GEOMETRY OPTIMIZATION CONVERGED AFTER 6 ITERATIONS ***

------------------------------------------------------------------------
 total energy gain   :        -0.0006817 Eh       -0.4278 kcal/mol
 total RMSD          :         0.0382731 a0        0.0203 Å
 total power (kW/mol):        -0.2982925 (step)  -83.8999 (real)
------------------------------------------------------------------------

 ANCopt (total)                0 d,  0 h,  0 min,  0.021 sec
 optimizer setup                ...        0 min,  0.000 sec (  2.066%)
 model hessian                  ...        0 min,  0.003 sec ( 13.404%)
 ANC generation                 ...        0 min,  0.000 sec (  1.171%)
 coordinate transformation      ...        0 min,  0.000 sec (  0.160%)
 single point calculation       ...        0 min,  0.016 sec ( 74.377%)
 optimization log               ...        0 min,  0.001 sec (  4.840%)
 hessian update                 ...        0 min,  0.000 sec (  0.172%)
 rational function              ...        0 min,  0.001 sec (  2.403%)

================
 final structure:
================
$coord
       -1.41910594779368       -2.18726254322321        0.16543501408884      C
        0.00003638386746       -0.00001338375622       -0.65944556405298      N
       -1.18467402375684        2.32262339537022        0.16534207805101      C
        2.60378632447054       -0.13535394845078        0.16555284957220      C
       -0.53040135196677       -3.88800274396698       -0.57855188418185      H
       -3.33437711729095       -2.06871287139045       -0.57854707932965      H
       -1.52227466531605       -2.34627270552585        2.24000421854037      H
       -1.27099895841406        2.49146156032673        2.23990324382789      H
       -3.10183718660323        2.40336400562965       -0.57883190125074      H
       -0.12429404103529        3.92202346916531       -0.57852670466603      H
        2.79298860792403       -0.14517064296677        2.24012990557139      H
        3.63233016442926        1.48466036934758       -0.57840844929791      H
        3.45880689309666       -1.85330056525784       -0.57837432865566      H
$end
 
 Bond Distances (Angstroems)
 ---------------------------
C1-N2=1.4471         C1-H5=1.0891         C1-H6=1.0891         C1-H7=1.1024         N2-C1=1.4471         N2-C3=1.4471         
N2-C4=1.4471         C3-N2=1.4471         C3-H8=1.1024         C3-H9=1.0891         C3-H10=1.0891        C4-N2=1.4471         
C4-H11=1.1024        C4-H12=1.0891        C4-H13=1.0891        H5-C1=1.0891         H6-C1=1.0891         H7-C1=1.1024         
H8-C3=1.1024         H9-C3=1.0891         H10-C3=1.0891        H11-C4=1.1024        H12-C4=1.0891        H13-C4=1.0891        
 C  H  Rav=1.0935 sigma=0.0063  Rmin=1.0891  Rmax=1.1024     9
 N  C  Rav=1.4471 sigma=0.0000  Rmin=1.4471  Rmax=1.4471     3
 
 selected bond angles (degree)
 --------------------
H5-C1-N2=109.14                H6-C1-N2=109.14                H6-C1-H5=108.59                H7-C1-N2=112.78                
H7-C1-H5=108.56                H7-C1-H6=108.56                C3-N2-C1=111.32                C4-N2-C1=111.32                
C4-N2-C3=111.32                H8-C3-N2=112.78                H9-C3-N2=109.14                H9-C3-H8=108.56                
H10-C3-N2=109.14               H10-C3-H8=108.56               H10-C3-H9=108.59               H11-C4-N2=112.78               
H12-C4-N2=109.14               H12-C4-H11=108.56              H13-C4-N2=109.14               H13-C4-H11=108.56              
H13-C4-H12=108.59              
 
 selected dihedral angles (degree)
 ---------------------------------
C3-N2-C1-H5=176.84            C3-N2-C1-H6= 58.32            C3-N2-C1-H7=297.58            C4-N2-C1-H5=301.67            
C4-N2-C1-H6=183.15            C4-N2-C1-H7= 62.41            H8-C3-N2-C1= 62.41            H8-C3-N2-C4=297.58            
H9-C3-N2-C1=301.67            H9-C3-N2-C4=176.84            H10-C3-N2-C1=183.15           H10-C3-N2-C4= 58.32           
H11-C4-N2-C1=297.59           H11-C4-N2-C3= 62.42           H12-C4-N2-C1=176.85           H12-C4-N2-C3=301.68           
H13-C4-N2-C1= 58.32           H13-C4-N2-C3=183.15           
           -------------------------------------------------
          |                Final Singlepoint                |
           -------------------------------------------------

          ...................................................
          :                      SETUP                      :
          :.................................................:
          :  # basis functions                  25          :
          :  # atomic orbitals                  25          :
          :  # shells                           17          :
          :  # electrons                        26          :
          :  max. iterations                   250          :
          :  Hamiltonian                  GFN2-xTB          :
          :  restarted?                      false          :
          :  GBSA solvation                  false          :
          :  PC potential                    false          :
          :  electronic temp.          300.0000000     K    :
          :  accuracy                    1.0000000          :
          :  -> integral cutoff          0.2500000E+02      :
          :  -> integral neglect         0.1000000E-07      :
          :  -> SCF convergence          0.1000000E-05 Eh   :
          :  -> wf. convergence          0.1000000E-03 e    :
          :  Broyden damping             0.4000000          :
          :  net charge                          0          :
          :  unpaired electrons                  0          :
          ...................................................

 iter      E             dE          RMSdq      gap      omega  full diag
   1    -14.1078489 -0.141078E+02  0.116E-05   10.90       0.0  T
   2    -14.1078489 -0.639488E-13  0.632E-06   10.90    4391.9  T
   3    -14.1078489 -0.710543E-14  0.107E-06   10.90   26038.0  T

   *** convergence criteria satisfied after 3 iterations ***

         #    Occupation            Energy/Eh            Energy/eV
      -------------------------------------------------------------
         1        2.0000           -0.6357097             -17.2985
       ...           ...                  ...                  ...
         7        2.0000           -0.5156254             -14.0309
         8        2.0000           -0.4710407             -12.8177
         9        2.0000           -0.4710400             -12.8177
        10        2.0000           -0.4530232             -12.3274
        11        2.0000           -0.4489036             -12.2153
        12        2.0000           -0.4489035             -12.2153
        13        2.0000           -0.3464258              -9.4267 (HOMO)
        14                          0.0539970               1.4693 (LUMO)
        15                          0.1084546               2.9512
        16                          0.1084552               2.9512
        17                          0.1265663               3.4440
        18                          0.1788706               4.8673
       ...                                ...                  ...
        25                          0.2671499               7.2695
      -------------------------------------------------------------
                  HL-Gap            0.4004228 Eh           10.8961 eV
             Fermi-level           -0.1462144 Eh           -3.9787 eV

 SCC (total)                   0 d,  0 h,  0 min,  0.003 sec
 SCC setup                      ...        0 min,  0.000 sec (  4.256%)
 Dispersion                     ...        0 min,  0.000 sec (  1.033%)
 classical contributions        ...        0 min,  0.000 sec (  0.436%)
 integral evaluation            ...        0 min,  0.001 sec ( 22.068%)
 iterations                     ...        0 min,  0.000 sec ( 15.110%)
 molecular gradient             ...        0 min,  0.001 sec ( 53.797%)
 printout                       ...        0 min,  0.000 sec (  2.588%)

         :::::::::::::::::::::::::::::::::::::::::::::::::::::
         ::                     SUMMARY                     ::
         :::::::::::::::::::::::::::::::::::::::::::::::::::::
         :: total energy             -13.924695289798 Eh    ::
         :: gradient norm              0.000010659878 Eh/a0 ::
         :: HOMO-LUMO gap             10.896059943324 eV    ::
         ::.................................................::
         :: SCC energy               -14.107843331120 Eh    ::
         :: -> isotropic ES            0.006130516720 Eh    ::
         :: -> anisotropic ES          0.004806219634 Eh    ::
         :: -> anisotropic XC          0.012214768093 Eh    ::
         :: -> dispersion             -0.006011214822 Eh    ::
         :: repulsion energy           0.183148041323 Eh    ::
         :: add. restraining           0.000000000000 Eh    ::
         :: total charge              -0.000000000000 e     ::
         :::::::::::::::::::::::::::::::::::::::::::::::::::::

           ------------------------------------------------- 
          |                Numerical Hessian                |
           ------------------------------------------------- 
step length          :   0.00500
SCC accuracy         :   0.30000
Hessian scale factor :   1.00000
frozen atoms in %    :   0.00000    0
RMS gradient         :   0.00001
estimated CPU  time      0.00 min
estimated wall time      0.00 min

writing file <hessian>.

 projected vibrational frequencies (cm⁻¹)
eigval :       -0.00    -0.00    -0.00     0.00     0.00     0.00
eigval :      218.73   237.69   237.72   372.55   423.17   423.32
eigval :      871.58  1025.09  1060.14  1060.21  1080.30  1080.33
eigval :     1189.98  1276.36  1276.39  1412.89  1412.95  1429.29
eigval :     1486.65  1487.00  1487.01  1495.58  1495.59  1505.17
eigval :     2832.08  2832.09  2847.37  3007.94  3014.59  3014.64
eigval :     3015.11  3018.17  3018.21
           -------------------------------------------------
          |                Property Printout                |
           -------------------------------------------------

    * Orbital Energies and Occupations

         #    Occupation            Energy/Eh            Energy/eV
      -------------------------------------------------------------
         1        2.0000           -0.6357097             -17.2985
         2        2.0000           -0.6035652             -16.4238
         3        2.0000           -0.6035650             -16.4238
         4        2.0000           -0.5548279             -15.0976
         5        2.0000           -0.5157259             -14.0336
         6        2.0000           -0.5157259             -14.0336
         7        2.0000           -0.5156254             -14.0309
         8        2.0000           -0.4710407             -12.8177
         9        2.0000           -0.4710400             -12.8177
        10        2.0000           -0.4530232             -12.3274
        11        2.0000           -0.4489036             -12.2153
        12        2.0000           -0.4489035             -12.2153
        13        2.0000           -0.3464258              -9.4267 (HOMO)
        14                          0.0539970               1.4693 (LUMO)
        15                          0.1084546               2.9512
        16                          0.1084552               2.9512
        17                          0.1265663               3.4440
        18                          0.1788706               4.8673
        19                          0.1788724               4.8674
        20                          0.2078852               5.6568
        21                          0.2137348               5.8160
        22                          0.2137373               5.8161
        23                          0.2521480               6.8613
        24                          0.2671494               7.2695
        25                          0.2671499               7.2695
      -------------------------------------------------------------
                  HL-Gap            0.4004228 Eh           10.8961 eV
             Fermi-level           -0.1462144 Eh           -3.9787 eV

     #   Z          covCN         q      C6AA      α(0)
     1   6 C        3.718    -0.030    21.237     6.583
     2   7 N        2.723    -0.170    24.679     7.378
     3   6 C        3.718    -0.030    21.237     6.583
     4   6 C        3.718    -0.030    21.237     6.583
     5   1 H        0.925     0.038     2.477     2.461
     6   1 H        0.925     0.038     2.477     2.461
     7   1 H        0.923     0.011     2.870     2.649
     8   1 H        0.923     0.011     2.870     2.649
     9   1 H        0.925     0.038     2.477     2.461
    10   1 H        0.925     0.038     2.477     2.461
    11   1 H        0.923     0.011     2.870     2.649
    12   1 H        0.925     0.038     2.477     2.461
    13   1 H        0.925     0.038     2.477     2.461

 Mol. C6AA /au·bohr⁶  :       1106.598697
 Mol. C8AA /au·bohr⁸  :      21895.182220
 Mol. α(0) /au        :         49.842742


Wiberg/Mayer (AO) data.
largest (>0.10) Wiberg bond orders for each atom

 ---------------------------------------------------------------------------
     #   Z sym  total        # sym  WBO       # sym  WBO       # sym  WBO
 ---------------------------------------------------------------------------
     1   6 C    3.988 --     2 N    1.018     6 H    0.983     5 H    0.983
                             7 H    0.973
     2   7 N    3.122 --     1 C    1.018     4 C    1.018     3 C    1.018
     3   6 C    3.988 --     2 N    1.018    10 H    0.983     9 H    0.983
                             8 H    0.973
     4   6 C    3.988 --     2 N    1.018    13 H    0.983    12 H    0.983
                            11 H    0.973
     5   1 H    0.999 --     1 C    0.983
     6   1 H    0.999 --     1 C    0.983
     7   1 H    1.000 --     1 C    0.973
     8   1 H    1.000 --     3 C    0.973
     9   1 H    0.999 --     3 C    0.983
    10   1 H    0.999 --     3 C    0.983
    11   1 H    1.000 --     4 C    0.973
    12   1 H    0.999 --     4 C    0.983
    13   1 H    0.999 --     4 C    0.983
 ---------------------------------------------------------------------------

Topologies differ in total number of bonds
Writing topology from bond orders to xtbtopo.mol

molecular dipole:
                 x           y           z       tot (Debye)
 q only:       -0.000       0.000       0.041
   full:       -0.000       0.000       0.367       0.933
molecular quadrupole (traceless):
                xx          xy          yy          xz          yz          zz
 q only:        0.702       0.000       0.702       0.000      -0.000      -1.404
  q+dip:        0.554       0.000       0.554       0.000      -0.000      -1.108
   full:        0.875       0.000       0.875       0.000      -0.000      -1.749

           -------------------------------------------------
          |                Geometry Summary                 |
           -------------------------------------------------

      molecular mass/u    :       59.1103777
   center of mass at/Å    :        0.0000047      -0.0000005      -0.0000069
  moments of inertia/u·Å² :        0.5744344E+02   0.5744369E+02   0.1012923E+03
rotational constants/cm⁻¹ :        0.2934649E+00   0.2934636E+00   0.1664256E+00

 * 12 selected distances

     #   Z          #   Z                                           value/Å
     1   6 C        2   7 N                                       1.4471283
     2   7 N        3   6 C                                       1.4471286 (max)
     2   7 N        4   6 C                                       1.4471284
     1   6 C        5   1 H                                       1.0891067
     1   6 C        6   1 H                                       1.0891063 (min)
     1   6 C        7   1 H                                       1.1023875
     3   6 C        8   1 H                                       1.1023872
     3   6 C        9   1 H                                       1.0891065
     3   6 C       10   1 H                                       1.0891063
     4   6 C       11   1 H                                       1.1023874
     4   6 C       12   1 H                                       1.0891064
     4   6 C       13   1 H                                       1.0891065

 * 2 distinct bonds (by element types)

   Z      Z             #   av. dist./Å        max./Å        min./Å
   1 H    6 C           9     1.0935334     1.1023875     1.0891063
   6 C    7 N           3     1.4471284     1.4471286     1.4471283

           -------------------------------------------------
          |               Frequency Printout                |
           -------------------------------------------------
 projected vibrational frequencies (cm⁻¹)
eigval :       -0.00    -0.00    -0.00     0.00     0.00     0.00
eigval :      218.73   237.69   237.72   372.55   423.17   423.32
eigval :      871.58  1025.09  1060.14  1060.21  1080.30  1080.33
eigval :     1189.98  1276.36  1276.39  1412.89  1412.95  1429.29
eigval :     1486.65  1487.00  1487.01  1495.58  1495.59  1505.17
eigval :     2832.08  2832.09  2847.37  3007.94  3014.59  3014.64
eigval :     3015.11  3018.17  3018.21
 reduced masses (amu)
   1:  9.36   2:  8.29   3: 10.24   4:  9.08   5:  9.84   6: 10.07   7:  1.07   8:  1.91
   9:  1.91  10:  8.53  11:  7.52  12:  7.52  13: 10.05  14:  2.91  15:  5.78  16:  5.78
  17:  4.43  18:  4.44  19:  6.19  20:  9.86  21:  9.85  22:  2.59  23:  2.59  24:  2.88
  25:  1.64  26:  1.54  27:  1.54  28:  1.61  29:  1.61  30:  1.51  31:  1.71  32:  1.71
  33:  1.67  34:  1.96  35:  1.67  36:  1.68  37:  1.43  38:  1.67  39:  1.67
 IR intensities (km·mol⁻¹)
   1:  0.22   2:  0.50   3:  0.15   4:  0.37   5:  0.01   6:  0.00   7:  0.00   8:  0.26
   9:  0.27  10: 11.25  11:  0.63  12:  0.61  13: 20.74  14:  0.00  15:  8.38  16:  8.44
  17:  8.95  18:  8.99  19: 15.76  20:  5.21  21:  5.12  22:  2.79  23:  2.86  24:  0.01
  25:  0.00  26:  5.14  27:  5.11  28:  1.62  29:  1.62  30: 10.59  31: 25.75  32: 25.75
  33:244.54  34:  0.00  35:  0.42  36:  0.48  37: 13.02  38:111.99  39:111.91
 Raman intensities (Ä⁴*amu⁻¹)
   1:  0.00   2:  0.00   3:  0.00   4:  0.00   5:  0.00   6:  0.00   7:  0.00   8:  0.00
   9:  0.00  10:  0.00  11:  0.00  12:  0.00  13:  0.00  14:  0.00  15:  0.00  16:  0.00
  17:  0.00  18:  0.00  19:  0.00  20:  0.00  21:  0.00  22:  0.00  23:  0.00  24:  0.00
  25:  0.00  26:  0.00  27:  0.00  28:  0.00  29:  0.00  30:  0.00  31:  0.00  32:  0.00
  33:  0.00  34:  0.00  35:  0.00  36:  0.00  37:  0.00  38:  0.00  39:  0.00
 output can be read by thermo (or use thermo option).
 writing <g98.out> molden fake output.
 recommended (thermochemical) frequency scaling factor: 1.0
           -------------------------------------------------
          |             Thermodynamic Functions             |
           -------------------------------------------------

Molecule has the following symmetry elements: (C3) 3*(sigma) 
It seems to be the C3v point group
c3v symmetry found (for desy threshold:  0.10E+00) used in thermo

          ...................................................
          :                      SETUP                      :
          :.................................................:
          :  # frequencies                          33      :
          :  # imaginary freq.                       0      :
          :  linear?                             false      :
          :  only rotor calc.                    false      :
          :  symmetry                              c3v      :
          :  rotational number                       3      :
          :  scaling factor                  1.0000000      :
          :  rotor cutoff                    0.0000000 cm⁻¹ :
          :  imag. cutoff                 -100.0000000 cm⁻¹ :
          :.................................................:

    mode    ω/cm⁻¹     T·S(HO)/kcal·mol⁻¹    T·S(FR)/kcal·mol⁻¹   T·S(vib)
   ------------------------------------------------------------------------
       1    218.73    -0.58723 (100.00%)    -0.61903 (  0.00%)    -0.58723
       2    237.69    -0.54266 (100.00%)    -0.59443 (  0.00%)    -0.54266
       3    237.72    -0.54259 (100.00%)    -0.59439 (  0.00%)    -0.54259
   ------------------------------------------------------------------------

   temp. (K)  partition function   enthalpy   heat capacity  entropy
                                   cal/mol     cal/K/mol   cal/K/mol   J/K/mol
 298.15  VIB   5.53                 1726.170     13.157      9.190
         ROT  0.147E+05              888.752      2.981     22.053
         INT  0.815E+05             2614.922     16.137     31.243
         TR   0.440E+27             1481.254      4.968     38.134
         TOT                        4096.1758    21.1056    69.3762   290.2700

       T/K    H(0)-H(T)+PV         H(T)/Eh          T*S/Eh         G(T)/Eh
   ------------------------------------------------------------------------
    298.15    0.652767E-02    0.124186E+00    0.329629E-01    0.912228E-01
   ------------------------------------------------------------------------

         :::::::::::::::::::::::::::::::::::::::::::::::::::::
         ::                  THERMODYNAMIC                  ::
         :::::::::::::::::::::::::::::::::::::::::::::::::::::
         :: total free energy         -13.833472511651 Eh   ::
         ::.................................................::
         :: total energy              -13.924695289798 Eh   ::
         :: zero point energy           0.117657977880 Eh   ::
         :: G(RRHO) w/o ZPVE           -0.026435199733 Eh   ::
         :: G(RRHO) contrib.            0.091222778146 Eh   ::
         :::::::::::::::::::::::::::::::::::::::::::::::::::::

optimized geometry written to: xtbopt.coord


           -------------------------------------------------
          | TOTAL ENERGY              -13.924695289798 Eh   |
          | TOTAL ENTHALPY            -13.800509640223 Eh   |
          | TOTAL FREE ENERGY         -13.833472511651 Eh   |
          | GRADIENT NORM               0.000010659121 Eh/α |
          | HOMO-LUMO GAP              10.896060047228 eV   |
           -------------------------------------------------

------------------------------------------------------------------------
 * finished run on 2025/04/15 at 19:16:19.769     
------------------------------------------------------------------------
 total:
 * wall-time:     0 d,  0 h,  0 min,  0.280 sec
 *  cpu-time:     0 d,  0 h,  0 min,  0.249 sec
 * ratio c/w:     0.886 speedup
 SCF:
 * wall-time:     0 d,  0 h,  0 min,  0.028 sec
 *  cpu-time:     0 d,  0 h,  0 min,  0.011 sec
 * ratio c/w:     0.399 speedup
 ANC optimizer:
 * wall-time:     0 d,  0 h,  0 min,  0.027 sec
 *  cpu-time:     0 d,  0 h,  0 min,  0.025 sec
 * ratio c/w:     0.912 speedup
 analytical hessian:
 * wall-time:     0 d,  0 h,  0 min,  0.203 sec
 *  cpu-time:     0 d,  0 h,  0 min,  0.201 sec
 * ratio c/w:     0.992 speedup

