
                                 *****************
                                 * O   R   C   A *
                                 *****************

                                            #,                                       
                                            ###                                      
                                            ####                                     
                                            #####                                    
                                            ######                                   
                                           ########,                                 
                                     ,,################,,,,,                         
                               ,,#################################,,                 
                          ,,##########################################,,             
                       ,#########################################, ''#####,          
                    ,#############################################,,   '####,        
                  ,##################################################,,,,####,       
                ,###########''''           ''''###############################       
              ,#####''   ,,,,##########,,,,          '''####'''          '####       
            ,##' ,,,,###########################,,,                        '##       
           ' ,,###''''                  '''############,,,                           
         ,,##''                                '''############,,,,        ,,,,,,###''
      ,#''                                            '''#######################'''  
     '                                                          ''''####''''         
             ,#######,   #######,   ,#######,      ##                                
            ,#'     '#,  ##    ##  ,#'     '#,    #''#        ,####,   ,####,        
            ##       ##  ##   ,#'  ##            #'  '#       #'       #'  '#        
            ##       ##  #######   ##           ,######,      #####,   #    #        
            '#,     ,#'  ##    ##  '#,     ,#' ,#      #,     #,   #   #,  ,#        
             '#######'   ##     ##  '#######'  #'      '#     '####' # '####'        



                #########################################################
                #                        -***-                          #
                #          Department of theory and spectroscopy        #
                #                                                       #
                #                      Frank Neese                      #
                #                                                       #
                #     Directorship, Architecture, Infrastructure        #
                #                    SHARK, DRIVERS                     #
                #        Core code/Algorithms in most modules           #
                #                                                       #
                #        Max Planck Institute fuer Kohlenforschung      #
                #                Kaiser Wilhelm Platz 1                 #
                #                 D-45470 Muelheim/Ruhr                 #
                #                      Germany                          #
                #                                                       #
                #                  All rights reserved                  #
                #                        -***-                          #
                #########################################################


                         Program Version 6.0.0  -   RELEASE  -


 With contributions from (in alphabetic order):
   Daniel Aravena         : Magnetic Suceptibility
   Michael Atanasov       : Ab Initio Ligand Field Theory (pilot matlab implementation)
   Alexander A. Auer      : GIAO ZORA, VPT2 properties, NMR spectrum
   Ute Becker             : All parallelization in ORCA, NUMFREQ, NUMCALC
   Giovanni Bistoni       : ED, misc. LED, open-shell LED, HFLD
   Martin Brehm           : Molecular dynamics
   Dmytro Bykov           : pre 5.0 version of the SCF Hessian
   Marcos Casanova-Páez   : Triplet and SCS-CIS(D). UHF-(DLPNO)-IP/EA/STEOM-CCSD. UHF-CVS-IP/STEOM-CCSD
   Vijay G. Chilkuri      : MRCI spin determinant printing, contributions to CSF-ICE
   Pauline Colinet        : FMM embedding
   Dipayan Datta          : RHF DLPNO-CCSD density
   Achintya Kumar Dutta   : EOM-CC, STEOM-CC
   Nicolas Foglia         : Exact transition moments, OPA infrastructure, MCD improvements
   Dmitry Ganyushin       : Spin-Orbit,Spin-Spin,Magnetic field MRCI
   Miquel Garcia          : C-PCM and meta-GGA Hessian, CCSD/C-PCM, Gaussian charge scheme
   Tiago L. C. Gouveia    : GS-ROHF, GS-ROCIS
   Yang Guo               : DLPNO-NEVPT2, F12-NEVPT2, CIM, IAO-localization
   Andreas Hansen         : Spin unrestricted coupled pair/coupled cluster methods
   Ingolf Harden          : AUTO-CI MPn and infrastructure 
   Benjamin Helmich-Paris : MC-RPA, TRAH-(SCF,CASSCF), AVAS, COSX integrals, SCF dyn. polar.
   Lee Huntington         : MR-EOM, pCC
   Robert Izsak           : Overlap fitted RIJCOSX, COSX-SCS-MP3, EOM
   Riya Kayal             : Wick's Theorem for AUTO-CI, AUTO-CI UHF-CCSDT
   Emily Kempfer          : AUTO-CI, RHF CISDT and CCSDT
   Christian Kollmar      : KDIIS, OOCD, Brueckner-CCSD(T), CCSD density, CASPT2, CASPT2-K, improved NEVPT2
   Axel Koslowski         : Symmetry handling
   Simone Kossmann        : Meta GGA functionals, TD-DFT gradient, OOMP2, (MP2 Hessian; deprecated post 5.0)
   Lucas Lang             : DCDCAS
   Marvin Lechner         : AUTO-CI (C++ implementation), FIC-MRCC
   Spencer Leger          : CASSCF response
   Dagmar Lenk            : GEPOL surface, SMD, ORCA-2-JSON
   Dimitrios Liakos       : Extrapolation schemes; Compound Job, initial MDCI parallelization
   Dimitrios Manganas     : Further ROCIS development; embedding schemes. LFT, Crystal Embedding
   Dimitrios Pantazis     : SARC Basis sets
   Anastasios Papadopoulos: AUTO-CI, single reference methods and gradients
   Taras Petrenko         : pre 6.0 DFT Hessian and TD-DFT gradient, (ASA, deprecated), ECA, 1-Electron XAS/XES, NRVS
   Peter Pinski           : DLPNO-MP2, DLPNO-MP2 Gradient
   Christoph Reimann      : Effective Core Potentials
   Marius Retegan         : Local ZFS, SOC
   Christoph Riplinger    : Optimizer, TS searches, QM/MM, DLPNO-CCSD(T), (RO)-DLPNO pert. Triples
   Michael Roemelt        : Original ROCIS implementation
   Masaaki Saitow         : Open-shell DLPNO-CCSD energy and density
   Barbara Sandhoefer     : DKH picture change effects
   Kantharuban Sivalingam : CASSCF convergence/infrastructure, NEVPT2 and variants, FIC-MRCI
   Bernardo de Souza      : ESD, SOC TD-DFT
   Georgi Stoychev        : AutoAux, RI-MP2 NMR, DLPNO-MP2 response, X2C
   Van Anh Tran           : RI-MP2 g-tensors
   Willem Van den Heuvel  : Paramagnetic NMR
   Zikuan Wang            : NOTCH, Electric field optimization 
   Frank Wennmohs         : Technical directorship and infrastructure
   Hang Xu                : AUTO-CI-Response properties 


 We gratefully acknowledge several colleagues who have allowed us to
 interface, adapt or use parts of their codes:
   Stefan Grimme, W. Hujo, H. Kruse, P. Pracht,  : VdW corrections, initial TS optimization,
                  C. Bannwarth, S. Ehlert,         DFT functionals, gCP, sTDA/sTD-DF
                  L. Wittmann, M. Mueller
   Ed Valeev, F. Pavosevic, A. Kumar             : LibInt (2-el integral package), F12 methods
   Garnet Chan, S. Sharma, J. Yang, R. Olivares  : DMRG
   Ulf Ekstrom                                   : XCFun DFT Library
   Mihaly Kallay                                 : mrcc  (arbitrary order and MRCC methods)
   Frank Weinhold                                : gennbo (NPA and NBO analysis)
   Simon Mueller                                 : openCOSMO-RS
   Christopher J. Cramer and Donald G. Truhlar   : smd solvation model
   Lars Goerigk                                  : TD-DFT with DH, B97 family of functionals
   V. Asgeirsson, H. Jonsson                     : NEB implementation
   FAccTs GmbH                                   : IRC, NEB, NEB-TS, DLPNO-Multilevel, CI-OPT
                                                   MM, QMMM, 2- and 3-layer-ONIOM, Crystal-QMMM,
                                                   LR-CPCM, SF, NACMEs, symmetry and pop. for TD-DFT,
                                                   nearIR, NL-DFT gradient (VV10), updates on ESD,
                                                   ML-optimized integration grids, MBIS, APM,
                                                   GOAT, DOCKER, SOLVATOR, interface openCOSMO-RS
   S Lehtola, MJT Oliveira, MAL Marques          : LibXC Library
   Liviu Ungur et al                             : ANISO software


 Your calculation uses the libint2 library for the computation of 2-el integrals
 For citations please refer to: http://libint.valeyev.net

 Your ORCA version has been built with support for libXC version: 6.2.2
 For citations please refer to: https://libxc.gitlab.io

 This ORCA versions uses:
   CBLAS   interface :  Fast vector & matrix operations
   LAPACKE interface :  Fast linear algebra routines
   SCALAPACK package :  Parallel linear algebra routines
   Shared memory     :  Shared parallel matrices
   BLAS/LAPACK       :  OpenBLAS 0.3.27  USE64BITINT DYNAMIC_ARCH NO_AFFINITY SkylakeX SINGLE_THREADED
        Core in use  :  SkylakeX
   Copyright (c) 2011-2014, The OpenBLAS Project




***************************************
The coordinates will be read from file: vacuum_censo.xyz
***************************************


Your calculation utilizes the geometrical counterpoise correction gCP
Please cite in your paper:
H.Kruse, S. Grimme J.Chem.Phys., 136, (2012), 154101 
   

Your calculation utilizes the atom-pairwise dispersion correction
based on EEQ partial charges (D4)


================================================================================

----- Orbital basis set information -----
Your calculation utilizes the basis: def2-TZVP
   F. Weigend and R. Ahlrichs, Phys. Chem. Chem. Phys. 7, 3297 (2005).

----- AuxJ basis set information -----
Your calculation utilizes the basis: def2-mTZVPP/J
   Stefan Grimme, Andreas Hansen, Sebastian Ehlert, and Jan-Michael Mewes 
   J. Chem. Phys. 154, 000000 (2021). DOI: 10.1063/5.0040021

================================================================================
                                        WARNINGS
                       Please study these warnings very carefully!
================================================================================

Using LibXC functional ID 497 : Re-regularized SCAN exchange by Furness et al
[ 1]  J. W. Furness, A. D. Kaplan, J. Ning, J. P. Perdew, and J. Sun.,  J. Phys. Chem. Lett. 11, 8208-8215 (2020)
[ 2]  J. W. Furness, A. D. Kaplan, J. Ning, J. P. Perdew, and J. Sun.,  J. Phys. Chem. Lett. 11, 9248-9248 (2020)
Using LibXC functional ID 498 : Re-regularized SCAN correlation by Furness et al
[ 1]  J. W. Furness, A. D. Kaplan, J. Ning, J. P. Perdew, and J. Sun.,  J. Phys. Chem. Lett. 11, 8208-8215 (2020)
[ 2]  J. W. Furness, A. D. Kaplan, J. Ning, J. P. Perdew, and J. Sun.,  J. Phys. Chem. Lett. 11, 9248-9248 (2020)
Using LibXC functional ID 497 : Re-regularized SCAN exchange by Furness et al
[ 1]  J. W. Furness, A. D. Kaplan, J. Ning, J. P. Perdew, and J. Sun.,  J. Phys. Chem. Lett. 11, 8208-8215 (2020)
[ 2]  J. W. Furness, A. D. Kaplan, J. Ning, J. P. Perdew, and J. Sun.,  J. Phys. Chem. Lett. 11, 9248-9248 (2020)
Using LibXC functional ID 498 : Re-regularized SCAN correlation by Furness et al
[ 1]  J. W. Furness, A. D. Kaplan, J. Ning, J. P. Perdew, and J. Sun.,  J. Phys. Chem. Lett. 11, 8208-8215 (2020)
[ 2]  J. W. Furness, A. D. Kaplan, J. Ning, J. P. Perdew, and J. Sun.,  J. Phys. Chem. Lett. 11, 9248-9248 (2020)

================================================================================
                                       INPUT FILE
================================================================================
NAME = vacuum_censo.inp
|  1> ! r2SCAN-3c DEF2-TZVP FREQ
|  2> * xyzfile 0 1 vacuum_censo.xyz
|  3> 
|  4>                          ****END OF INPUT****
================================================================================

                       ****************************
                       * Single Point Calculation *
                       ****************************

---------------------------------
CARTESIAN COORDINATES (ANGSTROEM)
---------------------------------
  C     -2.513408    0.080773    0.006425
  C     -1.104469   -0.512800    0.037973
  C     -0.040164    0.572678   -0.061025
  S      1.690537   -0.061105    0.044658
  H     -3.271683   -0.705205    0.064715
  H     -2.672410    0.762191    0.848791
  H     -2.685760    0.644464   -0.916475
  H     -0.979380   -1.219282   -0.791573
  H     -0.950739   -1.083896    0.959832
  H     -0.152079    1.153898   -0.982021
  H     -0.127466    1.273024    0.777006
  H      1.642888   -0.808015   -1.073142

----------------------------
CARTESIAN COORDINATES (A.U.)
----------------------------
  NO LB      ZA    FRAG     MASS         X           Y           Z
   0 C     6.0000    0    12.011   -4.749653    0.152639    0.012141
   1 C     6.0000    0    12.011   -2.087143   -0.969051    0.071759
   2 C     6.0000    0    12.011   -0.075899    1.082205   -0.115320
   3 S    16.0000    0    32.060    3.194652   -0.115472    0.084392
   4 H     1.0000    0     1.008   -6.182585   -1.332643    0.122294
   5 H     1.0000    0     1.008   -5.050123    1.440333    1.603983
   6 H     1.0000    0     1.008   -5.075351    1.217860   -1.731887
   7 H     1.0000    0     1.008   -1.850760   -2.304108   -1.495855
   8 H     1.0000    0     1.008   -1.796636   -2.048267    1.813820
   9 H     1.0000    0     1.008   -0.287387    2.180552   -1.855751
  10 H     1.0000    0     1.008   -0.240876    2.405667    1.468328
  11 H     1.0000    0     1.008    3.104608   -1.526926   -2.027945

--------------------------------
INTERNAL COORDINATES (ANGSTROEM)
--------------------------------
 C      0   0   0     0.000000000000     0.00000000     0.00000000
 C      1   0   0     1.529194181400     0.00000000     0.00000000
 C      2   1   0     1.523419567907   111.45520017     0.00000000
 S      3   2   1     1.846124732491   113.99236656   177.47438238
 H      1   2   3     1.093681452632   111.02337649   179.25864395
 H      1   2   3     1.095076907372   111.06605831   299.17856396
 H      1   2   3     1.095078684834   111.23556180    59.21025113
 H      2   1   3     1.096772328901   109.84706520   238.73623993
 H      2   1   3     1.095266418808   110.43108560   121.51148514
 H      3   2   1     1.094794752462   111.19402262   301.22557735
 H      3   2   1     1.095628323387   110.49264518    60.15887025
 H      4   3   2     1.345221991527    96.30601850    63.08693206

---------------------------
INTERNAL COORDINATES (A.U.)
---------------------------
 C      0   0   0     0.000000000000     0.00000000     0.00000000
 C      1   0   0     2.889758208432     0.00000000     0.00000000
 C      2   1   0     2.878845770401   111.45520017     0.00000000
 S      3   2   1     3.488670153466   113.99236656   177.47438238
 H      1   2   3     2.066758423224   111.02337649   179.25864395
 H      1   2   3     2.069395450514   111.06605831   299.17856396
 H      1   2   3     2.069398809431   111.23556180    59.21025113
 H      2   1   3     2.072599332885   109.84706520   238.73623993
 H      2   1   3     2.069753575228   110.43108560   121.51148514
 H      3   2   1     2.068862255007   111.19402262   301.22557735
 H      3   2   1     2.070437475769   110.49264518    60.15887025
 H      4   3   2     2.542101153313    96.30601850    63.08693206

---------------------
BASIS SET INFORMATION
---------------------
There are 3 groups of distinct atoms

 Group   1 Type C   : 11s6p2d1f contracted to 5s3p2d1f pattern {62111/411/11/1}
 Group   2 Type S   : 14s9p3d1f contracted to 5s5p2d1f pattern {73211/51111/21/1}
 Group   3 Type H   : 5s1p contracted to 3s1p pattern {311/1}

Atom   0C    basis set group =>   1
Atom   1C    basis set group =>   1
Atom   2C    basis set group =>   1
Atom   3S    basis set group =>   2
Atom   4H    basis set group =>   3
Atom   5H    basis set group =>   3
Atom   6H    basis set group =>   3
Atom   7H    basis set group =>   3
Atom   8H    basis set group =>   3
Atom   9H    basis set group =>   3
Atom  10H    basis set group =>   3
Atom  11H    basis set group =>   3
---------------------------------
AUXILIARY/J BASIS SET INFORMATION
---------------------------------
There are 3 groups of distinct atoms

 Group   1 Type C   : 8s3p3d contracted to 6s3p3d pattern {311111/111/111}
 Group   2 Type S   : 14s5p5d2f contracted to 8s4p3d1f pattern {71111111/2111/311/2}
 Group   3 Type H   : 5s2p1d contracted to 3s1p1d pattern {311/2/1}

Atom   0C    basis set group =>   1
Atom   1C    basis set group =>   1
Atom   2C    basis set group =>   1
Atom   3S    basis set group =>   2
Atom   4H    basis set group =>   3
Atom   5H    basis set group =>   3
Atom   6H    basis set group =>   3
Atom   7H    basis set group =>   3
Atom   8H    basis set group =>   3
Atom   9H    basis set group =>   3
Atom  10H    basis set group =>   3
Atom  11H    basis set group =>   3
------------------------------------------------------------------------------
                             ORCA STARTUP CALCULATIONS
                           -- RI-GTO INTEGRALS CHOSEN --
------------------------------------------------------------------------------
------------------------------------------------------------------------------
                   ___                                                        
                  /   \      - P O W E R E D   B Y -                         
                 /     \                                                     
                 |  |  |   _    _      __       _____    __    __             
                 |  |  |  | |  | |    /  \     |  _  \  |  |  /  |          
                  \  \/   | |  | |   /    \    | | | |  |  | /  /          
                 / \  \   | |__| |  /  /\  \   | |_| |  |  |/  /          
                |  |  |   |  __  | /  /__\  \  |    /   |      \           
                |  |  |   | |  | | |   __   |  |    \   |  |\   \          
                \     /   | |  | | |  |  |  |  | |\  \  |  | \   \       
                 \___/    |_|  |_| |__|  |__|  |_| \__\ |__|  \__/        
                                                                              
                      - O R C A' S   B I G   F R I E N D -                    
                                      &                                       
                       - I N T E G R A L  F E E D E R -                       
                                                                              
 v1 FN, 2020, v2 2021, v3 2022-2024                                           
------------------------------------------------------------------------------


----------------------
SHARK INTEGRAL PACKAGE
----------------------

Number of atoms                             ...     12
Number of basis functions                   ...    178
Number of shells                            ...     78
Maximum angular momentum                    ...      3
Integral batch strategy                     ... SHARK/LIBINT Hybrid
RI-J (if used) integral strategy            ... SPLIT-RIJ (Revised 2003 algorithm where possible)
Printlevel                                  ...      1
Contraction scheme used                     ... SEGMENTED contraction
Prescreening option                         ... SCHWARTZ
   Thresh                                   ... 1.000e-10
   Tcut                                     ... 1.000e-11
   Tpresel                                  ... 1.000e-11 
Coulomb Range Separation                    ... NOT USED
Exchange Range Separation                   ... NOT USED
Multipole approximations                    ... NOT USED
Finite Nucleus Model                        ... NOT USED
CABS basis                                  ... NOT available
Auxiliary Coulomb fitting basis             ... AVAILABLE
   # of basis functions in Aux-J            ...    220
   # of shells in Aux-J                     ...     92
   Maximum angular momentum in Aux-J        ...      3
Auxiliary J/K fitting basis                 ... NOT available
Auxiliary Correlation fitting basis         ... NOT available
Auxiliary 'external' fitting basis          ... NOT available

Checking pre-screening integrals            ... done (  0.0 sec) Dimension = 78
Check shell pair data                       ... done (  0.0 sec)
Shell pair information
Shell pair cut-off parameter TPreSel        ...   1.0e-11
Total number of shell pairs                 ...      3081
Shell pairs after pre-screening             ...      2938
Total number of primitive shell pairs       ...      9306
Primitive shell pairs kept                  ...      7053
          la=0 lb=0:    930 shell pairs
          la=1 lb=0:    921 shell pairs
          la=1 lb=1:    239 shell pairs
          la=2 lb=0:    342 shell pairs
          la=2 lb=1:    172 shell pairs
          la=2 lb=2:     36 shell pairs
          la=3 lb=0:    170 shell pairs
          la=3 lb=1:     86 shell pairs
          la=3 lb=2:     32 shell pairs
          la=3 lb=3:     10 shell pairs

Calculating one electron integrals          ... done (  0.0 sec)
Calculating RI/J V-Matrix + Cholesky decomp.... done (  0.0 sec)
Calculating Nuclear repulsion               ... done (  0.0 sec) ENN=    162.062443589480 Eh

Diagonalization of the overlap matrix:
Smallest eigenvalue                        ... 3.354e-04
Time for diagonalization                   ...    0.003 sec
Threshold for overlap eigenvalues          ... 1.000e-07
Number of eigenvalues below threshold      ... 0
Time for construction of square roots      ...    0.016 sec
Total time needed                          ...    0.028 sec

-------------------
DFT GRID GENERATION
-------------------

General Integration Accuracy     IntAcc      ... 4.388
Radial Grid Type                 RadialGrid  ... OptM3 with GC (2021)
Angular Grid (max. ang.)         AngularGrid ... 4 (Lebedev-302)
Angular grid pruning method      GridPruning ... 4 (adaptive)
Weight generation scheme         WeightScheme... mBecke (2022)
Basis function cutoff            BFCut       ... 1.0000e-10
Integration weight cutoff        WCut        ... 1.0000e-14
Partially contracted basis set               ... off
Rotationally invariant grid construction     ... off
Angular grids for H and He will be reduced by one unit

Total number of grid points                  ...    51317
Total number of batches                      ...      809
Average number of points per batch           ...       63
Average number of grid points per atom       ...     4276
Initializing property integral containers    ... done (  0.0 sec)

SHARK setup successfully completed in   0.7 seconds

Maximum memory used throughout the entire STARTUP-calculation: 24.7 MB
-------------------------------------------------------------------------------
                                 ORCA GUESS
                   Start orbitals & Density for SCF / CASSCF
-------------------------------------------------------------------------------

------------
SCF SETTINGS
------------
Hamiltonian:
 Density Functional     Method          .... DFT(GTOs)
  Functional kind                       .... Exchange
  Functional name                       .... Re-regularized SCAN exchange by Furness et al
  Functional family                     .... MGGA
  Functional refs                              
    [ 0] J. W. Furness, A. D. Kaplan, J. Ning, J. P. Perdew, and J. Sun.,  J. Phys. Chem. Lett. 11, 8208-8215 (2020), doi: 10.1021/acs.jpclett.0c02405
    [ 1] J. W. Furness, A. D. Kaplan, J. Ning, J. P. Perdew, and J. Sun.,  J. Phys. Chem. Lett. 11, 9248-9248 (2020), doi: 10.1021/acs.jpclett.0c03077
  Functional external parameters        .... 6
    Parameter  0 _c1        =  6.670000e-01 : c1 parameter        
    Parameter  1 _c2        =  8.000000e-01 : c2 parameter        
    Parameter  2 _d         =  1.240000e+00 : d parameter         
    Parameter  3 _k1        =  6.500000e-02 : k1 parameter        
    Parameter  4 _eta       =  1.000000e-03 : eta parameter       
    Parameter  5 _dp2       =  3.610000e-01 : dp2 parameter       
  Functional kind                       .... Correlation
  Functional name                       .... Re-regularized SCAN correlation by Furness et al
  Functional family                     .... MGGA
  Functional refs                              
    [ 0] J. W. Furness, A. D. Kaplan, J. Ning, J. P. Perdew, and J. Sun.,  J. Phys. Chem. Lett. 11, 8208-8215 (2020), doi: 10.1021/acs.jpclett.0c02405
    [ 1] J. W. Furness, A. D. Kaplan, J. Ning, J. P. Perdew, and J. Sun.,  J. Phys. Chem. Lett. 11, 9248-9248 (2020), doi: 10.1021/acs.jpclett.0c03077
  Functional external parameters        .... 1
    Parameter  0 _eta       =  1.000000e-03 : Regularization parameter
 Gradients option       PostSCFGGA      .... off
 RI-approximation to the Coulomb term is turned on
   Number of AuxJ basis functions       .... 220


General Settings:
 Integral files         IntName         .... vacuum_censo
 Hartree-Fock type      HFTyp           .... RHF
 Total Charge           Charge          ....    0
 Multiplicity           Mult            ....    1
 Number of Electrons    NEL             ....   42
 Basis Dimension        Dim             ....  178
 Nuclear Repulsion      ENuc            ....    162.0624435895 Eh

Convergence Acceleration:
 AO-DIIS                CNVDIIS         .... on
   Start iteration      DIISMaxIt       ....    12
   Startup error        DIISStart       ....  0.200000
   # of expansion vecs  DIISMaxEq       ....     5
   Bias factor          DIISBfac        ....   1.050
   Max. coefficient     DIISMaxC        ....  10.000
 MO-DIIS                CNVKDIIS        .... off
 Trust-Rad. Augm. Hess. CNVTRAH         .... auto
   Auto Start mean grad. ratio tolernc. ....  1.125000
   Auto Start start iteration           ....    50
   Auto Start num. interpolation iter.  ....    10
   Max. Number of Micro iterations      ....    24
   Max. Number of Macro iterations      .... Maxiter - #DIIS iter
   Number of Davidson start vectors     ....     2
   Converg. threshold    (grad. norm)   ....   5.000e-05
   Grad. Scal. Fac. for Micro threshold ....   0.100
   Minimum threshold for Micro iter.    ....   1.000e-02
   NR start threshold (gradient norm)   ....   1.000e-04
   Initial trust radius                 ....   0.400
   Minimum AH scaling param. (alpha)    ....   1.000
   Maximum AH scaling param. (alpha)    .... 1000.000
   Quad. conv. algorithm                .... NR
   White noise on init. David. guess    .... on
   Maximum white noise                  ....   0.010
   Pseudo random numbers                .... off
   Inactive MOs                         .... canonical
   Orbital update algorithm             .... Taylor
   Preconditioner                       .... Diag
   Full preconditioner red. dimension   ....   250
   COSX micro iterations for RIJONX calc.... off
 SOSCF                  CNVSOSCF        .... on
   Start iteration      SOSCFMaxIt      ....   150
   Startup grad/error   SOSCFStart      ....  0.003300
   Hessian update       SOSCFHessUp     .... L-BFGS
 Level Shifting         CNVShift        .... on
   Level shift para.    LevelShift      ....    0.2500
   Turn off err/grad.   ShiftErr        ....    0.0010
 Zerner damping         CNVZerner       .... off
 Static damping         CNVDamp         .... on
   Fraction old density DampFac         ....    0.7000
   Max. Damping (<1)    DampMax         ....    0.9800
   Min. Damping (>=0)   DampMin         ....    0.0000
   Turn off err/grad.   DampErr         ....    0.1000

SCF Procedure:
 Maximum # iterations   MaxIter         ....   125
 SCF integral mode      SCFMode         .... Direct
   Integral package                     .... SHARK and LIBINT hybrid scheme
 Reset frequency        DirectResetFreq ....    20
 Integral Threshold     Thresh          ....  1.000e-10 Eh
 Primitive CutOff       TCut            ....  1.000e-11 Eh

Convergence Tolerance:
 Convergence Check Mode ConvCheckMode   .... Total+1el-Energy
 Convergence forced     ConvForced      .... 0
 Energy Change          TolE            ....  1.000e-06 Eh
 1-El. energy change                    ....  1.000e-03 Eh
 Orbital Gradient       TolG            ....  5.000e-05
 Orbital Rotation angle TolX            ....  5.000e-05
 DIIS Error             TolErr          ....  1.000e-06

------------------------------
INITIAL GUESS: MODEL POTENTIAL
------------------------------
Loading Hartree-Fock densities                     ... done
Calculating cut-offs                               ... done
Initializing the effective Hamiltonian             ... done
Setting up the integral package (SHARK)            ... done
Starting the Coulomb interaction                   ... done (   0.1 sec)
Making the grid                                    ... done (   0.1 sec)
Mapping shells                                     ... done
Starting the XC term evaluation                    ... done (   0.1 sec)
  promolecular density results
     # of electrons  =     41.993062852
     EX              =    -42.578261680
     EC              =     -1.446236583
     EX+EC           =    -44.024498262
Transforming the Hamiltonian                       ... done (   0.0 sec)
Diagonalizing the Hamiltonian                      ... done (   0.0 sec)
Back transforming the eigenvectors                 ... done (   0.0 sec)
Now organizing SCF variables                       ... done
                      ------------------
                      INITIAL GUESS DONE (   0.4 sec)
                      ------------------
             **** ENERGY FILE WAS UPDATED (vacuum_censo.en.tmp) ****
Finished Guess after   0.6 sec
Maximum memory used throughout the entire GUESS-calculation: 13.9 MB

-------------------------------------------------------------------------------------------
                                      ORCA LEAN-SCF
                              memory conserving SCF solver
-------------------------------------------------------------------------------------------

----------------------------------------D-I-I-S--------------------------------------------
Iteration    Energy (Eh)           Delta-E    RMSDP     MaxDP     DIISErr   Damp  Time(sec)
-------------------------------------------------------------------------------------------
               ***  Starting incremental Fock matrix formation  ***
    1    -517.1511708282912423     0.00e+00  1.52e-03  4.47e-02  1.88e-01  0.700   1.7
    2    -517.2129947860007633    -6.18e-02  1.13e-03  3.58e-02  9.39e-02  0.700   1.6
                               ***Turning on AO-DIIS***
    3    -517.2356759348019750    -2.27e-02  5.31e-04  2.20e-02  3.13e-02  0.700   1.6
    4    -517.2489459546300168    -1.33e-02  9.28e-04  3.56e-02  1.56e-02  0.000   1.5
    5    -517.2787760600956517    -2.98e-02  1.89e-04  6.63e-03  8.77e-03  0.000   1.6
                              *** Initializing SOSCF ***
---------------------------------------S-O-S-C-F--------------------------------------
Iteration    Energy (Eh)           Delta-E    RMSDP     MaxDP     MaxGrad    Time(sec)
--------------------------------------------------------------------------------------
    6    -517.2791009418053818    -3.25e-04  7.56e-05  1.44e-03  2.05e-03     1.5
               *** Restarting incremental Fock matrix formation ***
    7    -517.2791255713343617    -2.46e-05  5.91e-05  1.20e-03  1.92e-04     1.6
    8    -517.2791260915817020    -5.20e-07  1.46e-05  5.54e-04  1.76e-04     1.5
                 **** Energy Check signals convergence ****

               *****************************************************
               *                     SUCCESS                       *
               *           SCF CONVERGED AFTER   8 CYCLES          *
               *****************************************************

             **** ENERGY FILE WAS UPDATED (vacuum_censo.en.tmp) ****

----------------
TOTAL SCF ENERGY
----------------

Total Energy       :       -517.27912609158170 Eh          -14075.88062 eV

Components:
Nuclear Repulsion  :        162.06244358947976 Eh            4409.94329 eV
Electronic Energy  :       -679.34156968106140 Eh          -18485.82391 eV
One Electron Energy:      -1030.63789103217186 Eh          -28045.08280 eV
Two Electron Energy:        351.29632135111046 Eh            9559.25889 eV

Virial components:
Potential Energy   :      -1033.22249809527239 Eh          -28115.41353 eV
Kinetic Energy     :        515.94337200369057 Eh           14039.53291 eV
Virial Ratio       :          2.00258895483569

DFT components:
N(Alpha)           :       20.999996805516 electrons
N(Beta)            :       20.999996805516 electrons
N(Total)           :       41.999993611032 electrons
E(X)               :      -43.470824039257 Eh       
E(C)               :       -1.400358154585 Eh       
E(XC)              :      -44.871182193842 Eh       

---------------
SCF CONVERGENCE
---------------

  Last Energy change         ...    5.2025e-07  Tolerance :   1.0000e-06
  Last MAX-Density change    ...    5.5395e-04  Tolerance :   1.0000e-05
  Last RMS-Density change    ...    1.4566e-05  Tolerance :   1.0000e-06
  Last DIIS Error            ...    2.0492e-03  Tolerance :   1.0000e-06
  Last Orbital Gradient      ...    1.7574e-04  Tolerance :   5.0000e-05
  Last Orbital Rotation      ...    1.3497e-04  Tolerance :   5.0000e-05


----------------
ORBITAL ENERGIES
----------------

  NO   OCC          E(Eh)            E(eV) 
   0   2.0000     -88.523910     -2408.8581 
   1   2.0000     -10.067477      -273.9500 
   2   2.0000     -10.038491      -273.1612 
   3   2.0000     -10.027977      -272.8751 
   4   2.0000      -7.838072      -213.2848 
   5   2.0000      -5.783595      -157.3796 
   6   2.0000      -5.779968      -157.2809 
   7   2.0000      -5.774913      -157.1434 
   8   2.0000      -0.775738       -21.1089 
   9   2.0000      -0.704920       -19.1819 
  10   2.0000      -0.617086       -16.7918 
  11   2.0000      -0.560852       -15.2616 
  12   2.0000      -0.449258       -12.2249 
  13   2.0000      -0.411193       -11.1891 
  14   2.0000      -0.384373       -10.4593 
  15   2.0000      -0.376141       -10.2353 
  16   2.0000      -0.345880        -9.4119 
  17   2.0000      -0.324233        -8.8228 
  18   2.0000      -0.311438        -8.4746 
  19   2.0000      -0.293839        -7.9958 
  20   2.0000      -0.210858        -5.7377 
  21   0.0000      -0.002728        -0.0742 
  22   0.0000       0.036524         0.9939 
  23   0.0000       0.054829         1.4920 
  24   0.0000       0.083894         2.2829 
  25   0.0000       0.089726         2.4416 
  26   0.0000       0.099833         2.7166 
  27   0.0000       0.125556         3.4166 
  28   0.0000       0.128255         3.4900 
  29   0.0000       0.139559         3.7976 
  30   0.0000       0.150078         4.0838 
  31   0.0000       0.168678         4.5900 
*Only the first 10 virtual orbitals were printed.

                    ********************************
                    * MULLIKEN POPULATION ANALYSIS *
                    ********************************

-----------------------
MULLIKEN ATOMIC CHARGES
-----------------------
   0 C :   -0.323201
   1 C :   -0.135479
   2 C :   -0.147340
   3 S :   -0.238736
   4 H :    0.112003
   5 H :    0.102969
   6 H :    0.100985
   7 H :    0.078275
   8 H :    0.096165
   9 H :    0.114144
  10 H :    0.109225
  11 H :    0.130990
Sum of atomic charges:    0.0000000

--------------------------------
MULLIKEN REDUCED ORBITAL CHARGES
--------------------------------
  0 C s       :     3.262640  s :     3.262640
      pz      :     1.035989  p :     3.009170
      px      :     0.945660
      py      :     1.027521
      dz2     :     0.002765  d :     0.047607
      dxz     :     0.011059
      dyz     :     0.011885
      dx2y2   :     0.008645
      dxy     :     0.013254
      f0      :     0.000364  f :     0.003783
      f+1     :     0.000071
      f-1     :     0.001103
      f+2     :     0.000190
      f-2     :     0.000256
      f+3     :     0.001028
      f-3     :     0.000770

  1 C s       :     3.198771  s :     3.198771
      pz      :     1.018630  p :     2.839922
      px      :     0.891586
      py      :     0.929707
      dz2     :     0.005128  d :     0.090432
      dxz     :     0.015384
      dyz     :     0.026008
      dx2y2   :     0.023399
      dxy     :     0.020513
      f0      :     0.000705  f :     0.006353
      f+1     :     0.000198
      f-1     :     0.001202
      f+2     :     0.000219
      f-2     :     0.000978
      f+3     :     0.001668
      f-3     :     0.001383

  2 C s       :     3.207083  s :     3.207083
      pz      :     1.043039  p :     2.841813
      px      :     0.844453
      py      :     0.954321
      dz2     :     0.006268  d :     0.092947
      dxz     :     0.014547
      dyz     :     0.024505
      dx2y2   :     0.029021
      dxy     :     0.018605
      f0      :     0.000534  f :     0.005496
      f+1     :     0.000220
      f-1     :     0.001135
      f+2     :     0.000039
      f-2     :     0.000809
      f+3     :     0.001376
      f-3     :     0.001383

  3 S s       :     5.852087  s :     5.852087
      pz      :     3.420846  p :    10.272558
      px      :     3.272116
      py      :     3.579595
      dz2     :     0.019337  d :     0.104295
      dxz     :     0.015176
      dyz     :     0.028397
      dx2y2   :     0.025112
      dxy     :     0.016272
      f0      :     0.000849  f :     0.009797
      f+1     :     0.000841
      f-1     :     0.002390
      f+2     :     0.001360
      f-2     :     0.000752
      f+3     :     0.001641
      f-3     :     0.001964

  4 H s       :     0.864759  s :     0.864759
      pz      :     0.005334  p :     0.023238
      px      :     0.009245
      py      :     0.008659

  5 H s       :     0.874116  s :     0.874116
      pz      :     0.009342  p :     0.022915
      px      :     0.005482
      py      :     0.008090

  6 H s       :     0.876068  s :     0.876068
      pz      :     0.010168  p :     0.022947
      px      :     0.005552
      py      :     0.007228

  7 H s       :     0.898604  s :     0.898604
      pz      :     0.009131  p :     0.023121
      px      :     0.005116
      py      :     0.008874

  8 H s       :     0.880573  s :     0.880573
      pz      :     0.010383  p :     0.023262
      px      :     0.005210
      py      :     0.007669

  9 H s       :     0.862169  s :     0.862169
      pz      :     0.010559  p :     0.023687
      px      :     0.005359
      py      :     0.007769

 10 H s       :     0.867247  s :     0.867247
      pz      :     0.009505  p :     0.023528
      px      :     0.005123
      py      :     0.008900

 11 H s       :     0.842952  s :     0.842952
      pz      :     0.011764  p :     0.026058
      px      :     0.004705
      py      :     0.009589



                     *******************************
                     * LOEWDIN POPULATION ANALYSIS *
                     *******************************

----------------------
LOEWDIN ATOMIC CHARGES
----------------------
   0 C :   -0.309545
   1 C :   -0.328359
   2 C :   -0.477874
   3 S :    0.211295
   4 H :    0.120149
   5 H :    0.118351
   6 H :    0.117645
   7 H :    0.130018
   8 H :    0.133470
   9 H :    0.121695
  10 H :    0.128527
  11 H :    0.034628

-------------------------------
LOEWDIN REDUCED ORBITAL CHARGES
-------------------------------
  0 C s       :     2.841175  s :     2.841175
      pz      :     1.071422  p :     3.180927
      px      :     1.039626
      py      :     1.069879
      dz2     :     0.035742  d :     0.262749
      dxz     :     0.042559
      dyz     :     0.060457
      dx2y2   :     0.046457
      dxy     :     0.077535
      f0      :     0.002277  f :     0.024695
      f+1     :     0.002886
      f-1     :     0.003382
      f+2     :     0.004334
      f-2     :     0.001977
      f+3     :     0.006043
      f-3     :     0.003794

  1 C s       :     2.797733  s :     2.797733
      pz      :     1.031345  p :     3.078860
      px      :     1.025739
      py      :     1.021776
      dz2     :     0.045814  d :     0.412340
      dxz     :     0.059076
      dyz     :     0.106014
      dx2y2   :     0.100807
      dxy     :     0.100629
      f0      :     0.004233  f :     0.039426
      f+1     :     0.003556
      f-1     :     0.004193
      f+2     :     0.004560
      f-2     :     0.005889
      f+3     :     0.009551
      f-3     :     0.007443

  2 C s       :     2.867729  s :     2.867729
      pz      :     1.073757  p :     3.156591
      px      :     1.023419
      py      :     1.059415
      dz2     :     0.049220  d :     0.419339
      dxz     :     0.052958
      dyz     :     0.100835
      dx2y2   :     0.120846
      dxy     :     0.095480
      f0      :     0.003226  f :     0.034214
      f+1     :     0.003187
      f-1     :     0.003936
      f+2     :     0.003730
      f-2     :     0.004921
      f+3     :     0.007923
      f-3     :     0.007292

  3 S s       :     5.398376  s :     5.398376
      pz      :     3.406265  p :    10.188053
      px      :     3.258824
      py      :     3.522964
      dz2     :     0.029835  d :     0.176492
      dxz     :     0.025551
      dyz     :     0.044105
      dx2y2   :     0.043848
      dxy     :     0.033153
      f0      :     0.002383  f :     0.025784
      f+1     :     0.002535
      f-1     :     0.005372
      f+2     :     0.003913
      f-2     :     0.001738
      f+3     :     0.004522
      f-3     :     0.005320

  4 H s       :     0.816862  s :     0.816862
      pz      :     0.014220  p :     0.062989
      px      :     0.023539
      py      :     0.025230

  5 H s       :     0.818957  s :     0.818957
      pz      :     0.026735  p :     0.062692
      px      :     0.013709
      py      :     0.022248

  6 H s       :     0.819588  s :     0.819588
      pz      :     0.029260  p :     0.062767
      px      :     0.013836
      py      :     0.019671

  7 H s       :     0.809885  s :     0.809885
      pz      :     0.025555  p :     0.060096
      px      :     0.013029
      py      :     0.021512

  8 H s       :     0.805829  s :     0.805829
      pz      :     0.028784  p :     0.060701
      px      :     0.013065
      py      :     0.018853

  9 H s       :     0.814545  s :     0.814545
      pz      :     0.030421  p :     0.063761
      px      :     0.012823
      py      :     0.020517

 10 H s       :     0.808359  s :     0.808359
      pz      :     0.027461  p :     0.063114
      px      :     0.012605
      py      :     0.023048

 11 H s       :     0.887280  s :     0.887280
      pz      :     0.039143  p :     0.078092
      px      :     0.011910
      py      :     0.027038



                      *****************************
                      * MAYER POPULATION ANALYSIS *
                      *****************************

  NA   - Mulliken gross atomic population
  ZA   - Total nuclear charge
  QA   - Mulliken gross atomic charge
  VA   - Mayer's total valence
  BVA  - Mayer's bonded valence
  FA   - Mayer's free valence

  ATOM       NA         ZA         QA         VA         BVA        FA
  0 C      6.3232     6.0000    -0.3232     3.9190     3.9190     0.0000
  1 C      6.1355     6.0000    -0.1355     3.8669     3.8669     0.0000
  2 C      6.1473     6.0000    -0.1473     3.9116     3.9116    -0.0000
  3 S     16.2387    16.0000    -0.2387     2.0658     2.0658     0.0000
  4 H      0.8880     1.0000     0.1120     0.9799     0.9799     0.0000
  5 H      0.8970     1.0000     0.1030     0.9804     0.9804    -0.0000
  6 H      0.8990     1.0000     0.1010     0.9804     0.9804     0.0000
  7 H      0.9217     1.0000     0.0783     0.9859     0.9859    -0.0000
  8 H      0.9038     1.0000     0.0962     0.9851     0.9851    -0.0000
  9 H      0.8859     1.0000     0.1141     0.9716     0.9716    -0.0000
 10 H      0.8908     1.0000     0.1092     0.9786     0.9786     0.0000
 11 H      0.8690     1.0000     0.1310     0.9766     0.9766    -0.0000

  Mayer bond orders larger than 0.100000
B(  0-C ,  1-C ) :   0.9648 B(  0-C ,  4-H ) :   0.9730 B(  0-C ,  5-H ) :   0.9765 
B(  0-C ,  6-H ) :   0.9739 B(  1-C ,  2-C ) :   0.9675 B(  1-C ,  7-H ) :   0.9652 
B(  1-C ,  8-H ) :   0.9655 B(  2-C ,  3-S ) :   1.0176 B(  2-C ,  9-H ) :   0.9614 
B(  2-C , 10-H ) :   0.9538 B(  3-S , 11-H ) :   0.9665 

-------
TIMINGS
-------

Total SCF time: 0 days 0 hours 0 min 12 sec 

Total time                  ....      12.952 sec
Sum of individual times     ....      12.593 sec  ( 97.2%)

SCF preparation             ....       0.231 sec  (  1.8%)
Fock matrix formation       ....      11.676 sec  ( 90.1%)
  Startup                   ....       0.051 sec  (  0.4% of F)
  Split-RI-J                ....       1.075 sec  (  9.2% of F)
  XC integration            ....      10.135 sec  ( 86.8% of F)
    Basis function eval.    ....       1.558 sec  ( 15.4% of XC)
    Density eval.           ....       2.848 sec  ( 28.1% of XC)
    XC-Functional eval.     ....       1.159 sec  ( 11.4% of XC)
    XC-Potential eval.      ....       3.763 sec  ( 37.1% of XC)
Diagonalization             ....       0.000 sec  (  0.0%)
Density matrix formation    ....       0.165 sec  (  1.3%)
Total Energy calculation    ....       0.025 sec  (  0.2%)
Population analysis         ....       0.033 sec  (  0.3%)
Orbital Transformation      ....       0.053 sec  (  0.4%)
Orbital Orthonormalization  ....       0.000 sec  (  0.0%)
DIIS solution               ....       0.317 sec  (  2.4%)
SOSCF solution              ....       0.093 sec  (  0.7%)
Finished LeanSCF after  13.0 sec

Maximum memory used throughout the entire LEANSCF-calculation: 16.6 MB

------------------------------------------------------------------------------
                         ORCA PROPERTY INTEGRAL CALCULATIONS
------------------------------------------------------------------------------

GBWName                                   ... vacuum_censo.gbw
Number of atoms                           ...     12
Number of basis functions                 ...    178
Max core memory                           ...   1024 MB

Dipole integrals                          ... YES
Quadrupole integrals                      ...  NO
Linear momentum integrals                 ...  NO
Angular momentum integrals                ...  NO
Higher moments length integrals           ...  NO
Higher moments velocity integrals         ...  NO
Kinetic energy integrals                  ...  NO
GIAO right hand sides                     ...  NO
GIAO dipole derivative integrals          ...  NO
SOC integrals                             ...  NO
EPR diamagnetic integrals (GIAO)          ...  NO
EPR gauge integrals                       ...  NO
Field gradient integrals                  ...  NO (   0 nuclei)
Spin-dipole/Fermi contact integrals       ...  NO (   0 nuclei)
Contact density integrals                 ...  NO (   0 nuclei)
Nucleus-orbit integrals                   ...  NO (   0 nuclei)
Geometric perturbations                   ... YES (  12 nuclei)

Choice of electric origin   ... Center of mass
Position of electric origin ... (  0.0246, -0.0063,  0.0027) 
Choice of magnetic origin   ... GIAO
Position of magnetic origin ... (  0.0000,  0.0000,  0.0000) 

Calculating integrals                     ... Electric Dipole (Length)     done (  0.1 sec)
Calculating integrals                     ... Geometrical perturbation right hand sides

-----------------------
GEOMETRIC PERTURBATIONS (12 nuclei)
-----------------------

MaxCore                            ...   1024 MB
Number of batches                  ...      1

BATCH   0: Atoms    0 -   11 ( 36 perturbations)
   => H(core) and overlap derivative integrals     ... done (     0.2 sec)
   => Making and storing internal U-coefficients   ... done (     0.7 sec)
   => RI-J derivative integrals                    ... done (     1.4 sec)
   => RI-J response operators                      ... done (     0.4 sec)
   => XC derivative integrals                      ... done (    85.3 sec)
   => XC response operators                        ... done (    23.7 sec)
   => Completing and storing right hand sides      ... done (     0.3 sec)
   => Total time for right hand sides = 113.8 sec

  geometrical perturbations done (113.8 sec)

Property integrals calculated in 113.8 sec

Maximum memory used throughout the entire PROPINT-calculation: 64.4 MB


-------------------------------------------------------------------------------
                          DFT DISPERSION CORRECTION                            
                                                                               
                                DFTD4 V3.4.0                                   
-------------------------------------------------------------------------------
The R2SCAN3C composite method is recognized
Using three-body term ABC
Active option DFTDOPT                   ...         5   

-------------------------   ----------------
Dispersion correction           -0.002533551
-------------------------   ----------------

------------------   -----------------
gCP correction             0.008844835
------------------   -----------------

-------------------------   --------------------
FINAL SINGLE POINT ENERGY      -517.272814807643
-------------------------   --------------------

------------------------------------------------------------------------------
                            ORCA SCF RESPONSE CALCULATION
------------------------------------------------------------------------------

GBWName                                 ... vacuum_censo.gbw
Number of atoms                         ...     12
Number of basis functions               ...    178
Max core memory                         ...   1024 MB

Electric field perturbation             ...  NO
Quadrupolar field perturbation          ...  NO
Magnetic field perturbation (no GIAO)   ...  NO
Magnetic field perturbation (with GIAO) ...  NO
Linear momentum (velocity) perturbation ...  NO
Spin-orbit coupling perturbation        ...  NO
Choice of electric origin               ... Center of mass
Position of electric origin             ...     0.024607    -0.006262     0.002736
Choice of magnetic origin               ... GIAO
Position of magnetic origin             ...     0.000000     0.000000     0.000000
Nuclear geometric perturbations         ... YES (  36 perturbations)
Nucleus-orbit perturbations             ...  NO (   0 perturbations)
Spin-dipole/Fermi contact perturbations ...  NO (   0 perturbations)

Total number of real perturbations      ...     36
Total number of imaginary perturbations ...      0
Total number of triplet perturbations   ...      0
Total number of SOC perturbations       ...      0


                                **********************
                                * REAL PERTURBATIONS *
                                **********************



-------------------
SHARK CP-SCF DRIVER
-------------------

Dimension of the orbital basis          ...    178
Dimension of the CPSCF-problem          ...   3297
Number of operators                     ...      1
Max. number of iterations               ...    128
Convergence Tolerance                   ... 1.0e-03
Number of perturbations                 ...     36
Perturbation type                       ... REAL

----------------------------
POPLE LINEAR EQUATION SOLVER
----------------------------

  ITERATION   0:   ||err||_max =   1.2955e-01 (   9.1 sec   0/ 36 done)
  ITERATION   1:   ||err||_max =   2.0228e-02 (   9.0 sec   0/ 36 done)
  ITERATION   2:   ||err||_max =   5.9299e-03 (   8.9 sec   4/ 36 done)
  ITERATION   3:   ||err||_max =   1.7113e-03 (  10.0 sec  25/ 36 done)
  ITERATION   4:   ||err||_max =   4.8902e-04 (   3.5 sec  36/ 36 done)

CP-SCF equations solved in  45.1 sec
Response densities calculated in   0.1 sec

Maximum memory used throughout the entire SCFRESP-calculation: 33.1 MB

------------------------------------------------------------------------------
                              ORCA PROPERTY CALCULATIONS
------------------------------------------------------------------------------

GBWName                                 ... vacuum_censo.gbw
Number of atoms                         ...     12
Number of basis functions               ...    178
Max core memory                         ...   1024 MB

Electric properties:
Dipole moment                           ... YES
Quadrupole moment                       ...  NO
Static polarizability (Dipole/Dipole)   ...  NO
Static polarizability (Dipole/Quad.)    ...  NO
Static polarizability (Quad./Quad.)     ...  NO
Static polarizability (Velocity)        ...  NO

Atomic electric properties:
Dipole moment                           ...  NO
Quadrupole moment                       ...  NO
Static polarizability                   ...  NO

Choice of electric origin               ... Center of mass
Position of electric origin             ...     0.024607    -0.006262     0.002736

General magnetic properties:
Magnetizability                         ...  NO

EPR properties:
g-Tensor (aka g-matrix)                 ...  NO
Zero-Field splitting spin-orbit         ...  NO
Zero-field splitting spin-spin          ...  NO
Hyperfine couplings                     ...  NO (   0 nuclei)
Quadrupole couplings                    ...  NO (   0 nuclei)
Contact density                         ...  NO (   0 nuclei)

NMR properties:
Chemical shifts                         ...  NO (   0 nuclei)
Spin-rotation constants                 ...  NO (   0 nuclei)
Spin-spin couplings                     ...  NO (   0 nuclei,    0 pairs)

Choice of magnetic origin               ... GIAO
Position of magnetic origin             ...     0.000000     0.000000     0.000000

Properties with geometric perturbations:
SCF Hessian                             ... YES
IR spectrum                             ... YES
VCD spectrum                            ...  NO
X-ray spectroscopy properties:
SCF XES/XAS/RIXS spectra                ...  NO


-------------
DIPOLE MOMENT
-------------

Method             : SCF
Type of density    : Electron Density
Multiplicity       :   1
Irrep              :   0
Energy             :  -517.2791260915817020 Eh
Relativity type    : 
Basis              : AO
                                X                 Y                 Z
Electronic contribution:      8.110268880      -0.049795971       0.794502180
Nuclear contribution   :     -8.774356587       0.042661338      -1.056183692
                        -----------------------------------------
Total Dipole Moment    :     -0.664087708      -0.007134633      -0.261681512
                        -----------------------------------------
Magnitude (a.u.)       :      0.713821126
Magnitude (Debye)      :      1.814389111



--------------------
Rotational spectrum 
--------------------
 
Rotational constants in cm-1:             0.798112             0.077307             0.074206 
Rotational constants in MHz :         23926.804940          2317.600485          2224.632240 

Dipole components along the rotational axes: 
x,y,z [a.u.] :    -0.663914     0.005533    -0.262160 
x,y,z [Debye]:    -1.687535     0.014064    -0.666359 

 

Dipole moment calculation done in   0.0 sec 

-----------
SCF HESSIAN
-----------

Occupied/Occupied contributions to the Hessian:
   => Occupied/Occupied contributions              ... done (  0.0 sec)
Perturbed density contributions to the Hessian:
   => Perturbed density contributions              ... done (  0.0 sec)
Explicit contributions to the Hessian:
   => Nuclear repulsion Hessian                    ... done (  0.0 sec)
   => HCore and overlap Hessian                    ... done (  3.5 sec)
   => RI-J Hessian                                 ... done (  3.5 sec)
   => XC-Hessian                                   ... done ( 36.9 sec)
   => Van der Waals-Hessian                        ... done (  2.4 sec)
   => GCP-Hessian                                  ... done (  0.0 sec)
   => Explicit contributions done
Dipole derivatives                                 ... done (  0.0 sec)
Mass weighting the Hessian           ... done
Calculating normal modes             ... done
Scaling frequencies                  ... done

-----------------------
VIBRATIONAL FREQUENCIES
-----------------------

Scaling factor for frequencies =  1.000000000  (already applied!)

     0:       0.00 cm**-1
     1:       0.00 cm**-1
     2:       0.00 cm**-1
     3:       0.00 cm**-1
     4:       0.00 cm**-1
     5:       0.00 cm**-1
     6:     129.12 cm**-1
     7:     232.97 cm**-1
     8:     242.62 cm**-1
     9:     267.46 cm**-1
    10:     361.39 cm**-1
    11:     686.60 cm**-1
    12:     735.69 cm**-1
    13:     814.95 cm**-1
    14:     899.28 cm**-1
    15:     927.65 cm**-1
    16:    1031.26 cm**-1
    17:    1097.88 cm**-1
    18:    1130.96 cm**-1
    19:    1248.94 cm**-1
    20:    1268.11 cm**-1
    21:    1320.92 cm**-1
    22:    1354.72 cm**-1
    23:    1401.30 cm**-1
    24:    1463.93 cm**-1
    25:    1483.71 cm**-1
    26:    1493.77 cm**-1
    27:    1500.07 cm**-1
    28:    2661.96 cm**-1
    29:    3007.17 cm**-1
    30:    3012.16 cm**-1
    31:    3028.48 cm**-1
    32:    3051.13 cm**-1
    33:    3078.24 cm**-1
    34:    3091.43 cm**-1
    35:    3092.11 cm**-1


------------
NORMAL MODES
------------

These modes are the Cartesian displacements weighted by the diagonal matrix
M(i,i)=1/sqrt(m[i]) where m[i] is the mass of the displaced atom
Thus, these vectors are normalized but *not* orthogonal

                  0          1          2          3          4          5    
      0       0.000000   0.000000   0.000000   0.000000   0.000000   0.000000
      1       0.000000   0.000000   0.000000   0.000000   0.000000   0.000000
      2       0.000000   0.000000   0.000000   0.000000   0.000000   0.000000
      3       0.000000   0.000000   0.000000   0.000000   0.000000   0.000000
      4       0.000000   0.000000   0.000000   0.000000   0.000000   0.000000
      5       0.000000   0.000000   0.000000   0.000000   0.000000   0.000000
      6       0.000000   0.000000   0.000000   0.000000   0.000000   0.000000
      7       0.000000   0.000000   0.000000   0.000000   0.000000   0.000000
      8       0.000000   0.000000   0.000000   0.000000   0.000000   0.000000
      9       0.000000   0.000000   0.000000   0.000000   0.000000   0.000000
     10       0.000000   0.000000   0.000000   0.000000   0.000000   0.000000
     11       0.000000   0.000000   0.000000   0.000000   0.000000   0.000000
     12       0.000000   0.000000   0.000000   0.000000   0.000000   0.000000
     13       0.000000   0.000000   0.000000   0.000000   0.000000   0.000000
     14       0.000000   0.000000   0.000000   0.000000   0.000000   0.000000
     15       0.000000   0.000000   0.000000   0.000000   0.000000   0.000000
     16       0.000000   0.000000   0.000000   0.000000   0.000000   0.000000
     17       0.000000   0.000000   0.000000   0.000000   0.000000   0.000000
     18       0.000000   0.000000   0.000000   0.000000   0.000000   0.000000
     19       0.000000   0.000000   0.000000   0.000000   0.000000   0.000000
     20       0.000000   0.000000   0.000000   0.000000   0.000000   0.000000
     21       0.000000   0.000000   0.000000   0.000000   0.000000   0.000000
     22       0.000000   0.000000   0.000000   0.000000   0.000000   0.000000
     23       0.000000   0.000000   0.000000   0.000000   0.000000   0.000000
     24       0.000000   0.000000   0.000000   0.000000   0.000000   0.000000
     25       0.000000   0.000000   0.000000   0.000000   0.000000   0.000000
     26       0.000000   0.000000   0.000000   0.000000   0.000000   0.000000
     27       0.000000   0.000000   0.000000   0.000000   0.000000   0.000000
     28       0.000000   0.000000   0.000000   0.000000   0.000000   0.000000
     29       0.000000   0.000000   0.000000   0.000000   0.000000   0.000000
     30       0.000000   0.000000   0.000000   0.000000   0.000000   0.000000
     31       0.000000   0.000000   0.000000   0.000000   0.000000   0.000000
     32       0.000000   0.000000   0.000000   0.000000   0.000000   0.000000
     33       0.000000   0.000000   0.000000   0.000000   0.000000   0.000000
     34       0.000000   0.000000   0.000000   0.000000   0.000000   0.000000
     35       0.000000   0.000000   0.000000   0.000000   0.000000   0.000000
                  6          7          8          9         10         11    
      0      -0.002832  -0.006851   0.010644   0.024935   0.321229   0.039043
      1      -0.015707  -0.098041   0.055177   0.045958   0.045520  -0.013911
      2      -0.174415  -0.005964  -0.023063  -0.006653  -0.003737  -0.001844
      3       0.001702   0.071940  -0.035978  -0.018437   0.191050  -0.015086
      4       0.013990   0.105420  -0.059842  -0.062721  -0.109730  -0.077570
      5       0.173377   0.005690   0.068409  -0.049833   0.016290   0.005031
      6      -0.000966   0.031032  -0.019494  -0.018042  -0.027209  -0.283814
      7       0.019558   0.140782  -0.080745  -0.054847   0.022131   0.194579
      8       0.206026   0.006890  -0.003687   0.063072  -0.015121   0.026259
      9       0.005161  -0.033644   0.022141   0.015603  -0.217017   0.117170
     10      -0.012420  -0.038689   0.037572   0.046587   0.001152  -0.056303
     11      -0.081214  -0.012528  -0.017627  -0.018778   0.004965   0.008825
     12       0.001248   0.123982  -0.075007  -0.046756   0.119553  -0.157453
     13      -0.016204  -0.242808   0.097881   0.132912   0.241503   0.178996
     14      -0.128645  -0.246999  -0.571583   0.227719  -0.029075  -0.000913
     15      -0.158032  -0.209882  -0.149176   0.189627   0.474432   0.200626
     16       0.168709  -0.304086  -0.297271   0.219692   0.091249   0.060375
     17      -0.352482   0.121386   0.230403  -0.115532  -0.010163  -0.030432
     18       0.143600  -0.013745   0.305420  -0.020637   0.489287   0.202121
     19      -0.223020   0.061277   0.475131  -0.107109   0.107466   0.029582
     20      -0.328200   0.092451   0.177085  -0.090675   0.001175  -0.007134
     21       0.154424   0.148763  -0.051953  -0.053614   0.231759   0.099644
     22      -0.092075   0.121893  -0.106643   0.019495  -0.110684   0.062465
     23       0.287341   0.001064   0.106117  -0.125835   0.024033  -0.093482
     24      -0.146777   0.126184  -0.096822  -0.050783   0.239876   0.061817
     25       0.133150   0.103197  -0.013859  -0.155030  -0.061655  -0.140882
     26       0.272221  -0.004419   0.106555  -0.101775   0.036229  -0.052448
     27      -0.093503   0.041672  -0.065205  -0.069779  -0.125462  -0.178195
     28       0.127879   0.134670  -0.153146   0.048835   0.003410  -0.145755
     29       0.285258   0.001507  -0.044120   0.133330  -0.017311  -0.194878
     30       0.092443   0.074779  -0.023710  -0.037101  -0.126506  -0.439016
     31      -0.077246   0.134039  -0.014500  -0.160719   0.014653   0.389736
     32       0.295976   0.016513  -0.058930   0.150016  -0.017901  -0.168114
     33      -0.132572  -0.367033  -0.013593  -0.269652  -0.180526  -0.419814
     34       0.161245  -0.543096  -0.164880  -0.626529   0.178812   0.127741
     35      -0.190965   0.338135   0.118725   0.441514  -0.114283  -0.084145
                 12         13         14         15         16         17    
      0       0.007948   0.013575   0.159575   0.023441  -0.193072  -0.026558
      1      -0.005035  -0.004991   0.036529   0.026955   0.161266  -0.072305
      2      -0.005134   0.036926  -0.021799   0.047588  -0.017345   0.049629
      3      -0.004053  -0.002047  -0.015299   0.001671   0.320356   0.019454
      4      -0.016934   0.007661   0.146414   0.013350  -0.045708   0.130061
      5      -0.047338   0.064651  -0.012859  -0.011710   0.007396  -0.072725
      6      -0.067556  -0.060997  -0.156327   0.009285  -0.086655  -0.075331
      7       0.045327   0.032183  -0.108343  -0.044754  -0.077320  -0.103029
      8      -0.069298  -0.062089   0.037780  -0.057418   0.005712   0.081500
      9       0.018452   0.000630   0.010976   0.016195   0.000082  -0.005136
     10      -0.012938  -0.011211  -0.006156   0.005178  -0.008036   0.004612
     11       0.007702   0.000276  -0.006320   0.015800   0.000507  -0.016753
     12      -0.038916  -0.019461   0.605136   0.166207   0.014236  -0.283008
     13       0.045191   0.012953  -0.389504  -0.127387  -0.041758   0.177057
     14       0.050512  -0.166801   0.078323  -0.140186   0.018140  -0.102453
     15       0.177505  -0.254519  -0.085046  -0.343039  -0.375491   0.089622
     16      -0.080152   0.149292  -0.160622   0.093269   0.067761   0.146077
     17       0.089737  -0.142591   0.089048  -0.082488   0.024413  -0.104903
     18      -0.083152   0.333897  -0.281611   0.150839  -0.429023   0.379689
     19       0.112324  -0.158810  -0.061671  -0.164701   0.094747  -0.020911
     20       0.084781  -0.121574   0.006978  -0.096881  -0.012936  -0.003641
     21       0.046268  -0.182131  -0.067321  -0.353088   0.399350   0.136340
     22      -0.374697   0.244988   0.124114  -0.090552  -0.001369  -0.002805
     23       0.273096  -0.168613  -0.000927   0.021403  -0.018173   0.064225
     24       0.011452   0.250479  -0.272382   0.187767   0.372393   0.368804
     25       0.406058  -0.230788   0.098000   0.077723  -0.041584   0.343395
     26       0.215437  -0.131416   0.000186  -0.001625   0.001139   0.005369
     27      -0.096305  -0.228126  -0.205988   0.113881  -0.296377   0.479535
     28       0.444803   0.213584  -0.199195   0.151645  -0.140304  -0.178026
     29       0.188749   0.073420  -0.012641   0.055486  -0.004175  -0.023327
     30      -0.041542   0.165173  -0.131066  -0.260647  -0.222898  -0.225467
     31      -0.344290  -0.139527  -0.032255  -0.242898  -0.124768   0.011246
     32       0.262568   0.110076  -0.024613   0.078780   0.024723  -0.030893
     33       0.196379   0.504094   0.232751  -0.586882   0.051083   0.200114
     34      -0.076048  -0.150396  -0.071955   0.191223  -0.012782  -0.083257
     35       0.041135   0.068183   0.027452  -0.080351   0.001220   0.032543
                 18         19         20         21         22         23    
      0      -0.017848   0.004212  -0.008896  -0.001593  -0.026204   0.129106
      1      -0.073871   0.011947  -0.051628   0.003762  -0.048206  -0.047351
      2      -0.048057  -0.103868  -0.020193   0.051508  -0.000233   0.002508
      3       0.007346  -0.012092   0.032677   0.008349   0.163025  -0.011804
      4       0.125750  -0.016408   0.059355   0.001201   0.026631   0.002814
      5       0.067343   0.126833   0.027278   0.028948  -0.004285  -0.000235
      6      -0.030990  -0.033919   0.103624  -0.009720  -0.072278  -0.006819
      7      -0.109259   0.002676   0.016143  -0.002152   0.011440  -0.001379
      8      -0.089790  -0.027894   0.004730  -0.066839   0.000572  -0.000744
      9       0.017187  -0.003881  -0.001665  -0.000700  -0.002880   0.000620
     10       0.005384   0.002518  -0.009451   0.000465   0.002623   0.000875
     11       0.023060  -0.008265  -0.007134  -0.003133   0.000765   0.000282
     12      -0.226522   0.059968  -0.150741  -0.001726  -0.129947  -0.384960
     13       0.149363  -0.020613   0.094067  -0.004235   0.055812   0.422851
     14       0.097971   0.209637   0.047667  -0.059196   0.000454  -0.027265
     15       0.362240   0.188749   0.111946  -0.107905   0.066556  -0.534069
     16      -0.044960  -0.192673   0.001220   0.078612   0.083101   0.053874
     17       0.010295   0.105639  -0.028500  -0.028009  -0.082334  -0.183923
     18       0.044014  -0.249334   0.021213   0.111082   0.052401  -0.532895
     19       0.159344   0.167489   0.092249  -0.077078   0.104845   0.076638
     20       0.083678   0.052283   0.057597  -0.017732   0.072430   0.182970
     21       0.217165  -0.207471  -0.281198   0.545559  -0.641166   0.034567
     22       0.316707   0.186368   0.045878   0.170564  -0.104766   0.015659
     23      -0.072031  -0.076840  -0.008668  -0.035267  -0.008074  -0.001099
     24       0.055070   0.344325  -0.153030  -0.580541  -0.562219   0.030080
     25      -0.067357  -0.195331  -0.053794  -0.177982  -0.087208   0.014388
     26      -0.065129  -0.043499  -0.011665   0.012653   0.039830  -0.002471
     27      -0.389902   0.637328  -0.389779   0.344107   0.249206   0.026902
     28       0.072812   0.150402  -0.037649   0.162974  -0.019121  -0.033461
     29       0.063220   0.001587   0.021357   0.000912  -0.045203  -0.019669
     30       0.317463  -0.222268  -0.789524  -0.263249   0.304544   0.035113
     31      -0.232164  -0.123768  -0.074324  -0.189486  -0.004802  -0.032873
     32       0.052026   0.062388  -0.007733   0.062123   0.046260   0.025089
     33      -0.431756   0.070210   0.165953   0.010263  -0.016848  -0.010936
     34       0.158745  -0.030699  -0.051482  -0.011663   0.009490   0.002205
     35      -0.063353   0.010403   0.016059   0.001899  -0.000653  -0.000831
                 24         25         26         27         28         29    
      0       0.003835  -0.007830  -0.000152  -0.011835  -0.000011   0.040671
      1       0.000126  -0.022571   0.001771  -0.040585   0.000013  -0.027378
      2      -0.000500   0.001503   0.046481   0.001521   0.000034   0.001370
      3       0.015546  -0.024018  -0.000200  -0.011392  -0.000279  -0.003289
      4       0.013923   0.052554  -0.000522  -0.062785   0.000208   0.013006
      5       0.000960  -0.003245   0.023066   0.003613   0.000075   0.002300
      6      -0.011981  -0.002067   0.000361   0.006640   0.000038  -0.000780
      7      -0.077613   0.020173  -0.001102  -0.009827   0.000254   0.001351
      8       0.003362  -0.001314  -0.002214   0.000669   0.000983  -0.001201
      9       0.002778  -0.000106  -0.000123   0.000100  -0.001278   0.000062
     10      -0.002041   0.000333  -0.000080  -0.000479  -0.017307   0.000019
     11      -0.000268  -0.000073  -0.000540  -0.000003  -0.026134  -0.000014
     12      -0.030169   0.151842   0.002041   0.217417  -0.000110  -0.319301
     13       0.033093  -0.156648  -0.054444  -0.238052   0.000097  -0.349500
     14       0.005943   0.006862  -0.695724   0.038145   0.000019   0.025623
     15      -0.033701   0.001569   0.448165  -0.024344  -0.000470  -0.076653
     16      -0.010057   0.279506   0.228778   0.407824  -0.000026   0.372248
     17       0.001102  -0.231845  -0.075801  -0.349347  -0.000076   0.473284
     18      -0.023635   0.000619  -0.447718   0.012881   0.000042  -0.083840
     19      -0.005279   0.306705  -0.208430   0.465622  -0.000158   0.304935
     20       0.001834   0.192739  -0.020454   0.294573   0.000244  -0.515018
     21      -0.005305   0.114560  -0.041815   0.009176   0.002592   0.019274
     22      -0.114888  -0.407412   0.036888   0.262202   0.002539  -0.101410
     23       0.101037   0.383780  -0.010958  -0.257111   0.001097  -0.123274
     24      -0.024428   0.107448   0.040907   0.006597   0.000438   0.016188
     25      -0.142531  -0.466937  -0.016867   0.303499  -0.000808  -0.055069
     26      -0.084274  -0.324734   0.009296   0.216573  -0.000009   0.095300
     27      -0.005344   0.011588   0.024333  -0.010614  -0.000339   0.003982
     28       0.575254  -0.086040   0.017475   0.086354   0.003341  -0.012213
     29       0.386387  -0.066075   0.009539   0.057866  -0.001163   0.021817
     30      -0.057865   0.016216  -0.027397  -0.015429   0.003731   0.002245
     31       0.497922  -0.074275  -0.000793   0.076805  -0.013218  -0.004452
     32      -0.454264   0.076131  -0.001681  -0.069531  -0.013370  -0.007122
     33       0.003919   0.003673   0.005292  -0.001223   0.037764  -0.000014
     34      -0.011210  -0.003120  -0.001806  -0.000202   0.553041   0.000025
     35       0.005235   0.001873   0.000646  -0.000230   0.831468   0.000414
                 30         31         32         33         34         35    
      0       0.010613  -0.005686   0.001862   0.000277  -0.032900  -0.022845
      1       0.002274  -0.002057   0.001172  -0.003548  -0.069048  -0.044756
      2       0.003158  -0.001918  -0.033786  -0.068630  -0.026641   0.043981
      3       0.011792  -0.004917   0.004371  -0.000169   0.000084   0.002107
      4      -0.061005   0.020441  -0.009604   0.000758  -0.006547  -0.004841
      5      -0.013173   0.009335   0.076753  -0.002914  -0.027449   0.041754
      6      -0.001861  -0.007822   0.000567   0.000082   0.000220   0.000495
      7       0.021828   0.062175  -0.006596   0.005891  -0.003577   0.003025
      8       0.001664  -0.009913  -0.033180   0.062980  -0.035049   0.049689
      9      -0.000242  -0.000316   0.000041  -0.000088   0.000082  -0.000088
     10       0.000233   0.000216  -0.000147   0.000249  -0.000114   0.000190
     11       0.000196   0.000296  -0.000257   0.000250  -0.000054   0.000075
     12      -0.106741   0.060132  -0.029114  -0.010996   0.484721   0.343246
     13      -0.121174   0.063113  -0.032647  -0.012183   0.505356   0.358389
     14       0.010268  -0.005382  -0.007295  -0.017196  -0.043712  -0.018115
     15      -0.004774   0.003809  -0.032930  -0.070424  -0.081149   0.012302
     16       0.035395  -0.012995   0.160287   0.329917   0.316027  -0.079738
     17       0.042860  -0.015518   0.190976   0.397172   0.409030  -0.075510
     18      -0.013364   0.008796   0.038587   0.077861  -0.012303  -0.085028
     19       0.058668  -0.028310  -0.139662  -0.275980   0.006743   0.258698
     20      -0.092984   0.044863   0.224003   0.439605  -0.045111  -0.435135
     21      -0.082833   0.032229   0.047968  -0.004322  -0.027654   0.025445
     22       0.483365  -0.183427  -0.274799   0.007622   0.155478  -0.147780
     23       0.592643  -0.222605  -0.307849   0.009413   0.180990  -0.169382
     24      -0.064496   0.016193  -0.101345   0.007406   0.022684  -0.052357
     25       0.244509  -0.059447   0.386758  -0.015292  -0.088759   0.198644
     26      -0.432638   0.108540  -0.621767   0.026110   0.141347  -0.320389
     27       0.016576   0.059576   0.020094  -0.040984   0.021205  -0.029794
     28      -0.104247  -0.356579  -0.114666   0.241101  -0.130983   0.200687
     29       0.180033   0.605529   0.176452  -0.379928   0.205131  -0.314887
     30       0.020010   0.046843  -0.025325   0.040025  -0.019211   0.027746
     31      -0.160583  -0.383018   0.193932  -0.313349   0.179535  -0.235121
     32      -0.202911  -0.488157   0.230848  -0.372106   0.211570  -0.276649
     33      -0.001477   0.002022  -0.000277   0.001994  -0.002510   0.002428
     34      -0.003598  -0.006113   0.004537  -0.006708   0.003609  -0.004899
     35      -0.003981  -0.006949   0.006167  -0.008974   0.004627  -0.005979


-----------
IR SPECTRUM
-----------

 Mode   freq       eps      Int      T**2         TX        TY        TZ
       cm**-1   L/(mol*cm) km/mol    a.u.
----------------------------------------------------------------------------
  6:    129.12   0.000172    0.87  0.000415  (-0.008435  0.011800  0.014319)
  7:    232.97   0.000667    3.37  0.000893  (-0.012765 -0.014168  0.023013)
  8:    242.62   0.000271    1.37  0.000349  (-0.008388 -0.015338  0.006561)
  9:    267.46   0.002492   12.59  0.002908  (-0.025588 -0.035616  0.031376)
 10:    361.39   0.000104    0.53  0.000090  ( 0.008085  0.004840 -0.001047)
 11:    686.60   0.001490    7.53  0.000677  (-0.025120  0.006743 -0.000738)
 12:    735.69   0.000566    2.86  0.000240  (-0.005941 -0.003383  0.013909)
 13:    814.95   0.000557    2.82  0.000213  (-0.001860 -0.007798 -0.012209)
 14:    899.28   0.001361    6.88  0.000472  (-0.018328 -0.011601 -0.001395)
 15:    927.65   0.000209    1.05  0.000070  (-0.001027  0.002470  0.007937)
 16:   1031.26   0.000037    0.19  0.000011  (-0.003005 -0.001284  0.000789)
 17:   1097.88   0.000500    2.53  0.000142  (-0.000816  0.006385 -0.010038)
 18:   1130.96   0.001645    8.32  0.000454  ( 0.015700  0.004916  0.013540)
 19:   1248.94   0.001019    5.15  0.000255  (-0.013844  0.004741 -0.006364)
 20:   1268.11   0.002564   12.96  0.000631  ( 0.022302 -0.010852 -0.003985)
 21:   1320.92   0.000241    1.22  0.000057  (-0.007003  0.001848  0.002115)
 22:   1354.72   0.000087    0.44  0.000020  (-0.003928  0.001848 -0.001069)
 23:   1401.30   0.000583    2.95  0.000130  (-0.008901  0.007094 -0.000588)
 24:   1463.93   0.000282    1.42  0.000060  ( 0.000853  0.007702  0.000215)
 25:   1483.71   0.000255    1.29  0.000054  ( 0.006308 -0.003670 -0.000583)
 26:   1493.77   0.001854    9.37  0.000387  (-0.000611 -0.000501 -0.019662)
 27:   1500.07   0.001501    7.59  0.000312  ( 0.003422  0.017337  0.000020)
 28:   2661.96   0.000548    2.77  0.000064  ( 0.000688 -0.004810 -0.006371)
 29:   3007.17   0.004828   24.40  0.000501  ( 0.021380 -0.006496  0.001299)
 30:   3012.16   0.002383   12.04  0.000247  ( 0.006260 -0.013911 -0.003767)
 31:   3028.48   0.006960   35.17  0.000717  (-0.010862  0.024465 -0.000841)
 32:   3051.13   0.000153    0.78  0.000016  (-0.000287 -0.002654  0.002927)
 33:   3078.24   0.000956    4.83  0.000097  ( 0.002556 -0.001031 -0.009451)
 34:   3091.43   0.007839   39.62  0.000791  (-0.010573 -0.018762 -0.018097)
 35:   3092.11   0.009458   47.79  0.000954  (-0.005169 -0.012322  0.027855)

* The epsilon (eps) is given for a Dirac delta lineshape.
** The dipole moment derivative (T) already includes vibrational overlap.

The first frequency considered to be a vibration is 6
The total number of vibrations considered is 30


--------------------------
THERMOCHEMISTRY AT 298.15K
--------------------------

Temperature         ...   298.15 K
Pressure            ...     1.00 atm
Total Mass          ...    76.16 AMU
Quasi RRHO          ...     True
Cut-Off Frequency   ...     1.00 cm^-1

Throughout the following assumptions are being made:
  (1) The electronic state is orbitally nondegenerate
  (2) There are no thermally accessible electronically excited states
  (3) Hindered rotations indicated by low frequency modes are not
      treated as such but are treated as vibrations and this may
      cause some error
  (4) All equations used are the standard statistical mechanics
      equations for an ideal gas
  (5) All vibrations are strictly harmonic

freq.     129.12  E(vib)   ...       0.43 
freq.     232.97  E(vib)   ...       0.32 
freq.     242.62  E(vib)   ...       0.31 
freq.     267.46  E(vib)   ...       0.29 
freq.     361.39  E(vib)   ...       0.22 
freq.     686.60  E(vib)   ...       0.07 
freq.     735.69  E(vib)   ...       0.06 
freq.     814.95  E(vib)   ...       0.05 
freq.     899.28  E(vib)   ...       0.03 
freq.     927.65  E(vib)   ...       0.03 
freq.    1031.26  E(vib)   ...       0.02 
freq.    1097.88  E(vib)   ...       0.02 
freq.    1130.96  E(vib)   ...       0.01 
freq.    1248.94  E(vib)   ...       0.01 
freq.    1268.11  E(vib)   ...       0.01 
freq.    1320.92  E(vib)   ...       0.01 
freq.    1354.72  E(vib)   ...       0.01 
freq.    1401.30  E(vib)   ...       0.00 
freq.    1463.93  E(vib)   ...       0.00 
freq.    1483.71  E(vib)   ...       0.00 
freq.    1493.77  E(vib)   ...       0.00 
freq.    1500.07  E(vib)   ...       0.00 
freq.    2661.96  E(vib)   ...       0.00 
freq.    3007.17  E(vib)   ...       0.00 
freq.    3012.16  E(vib)   ...       0.00 
freq.    3028.48  E(vib)   ...       0.00 
freq.    3051.13  E(vib)   ...       0.00 
freq.    3078.24  E(vib)   ...       0.00 
freq.    3091.43  E(vib)   ...       0.00 
freq.    3092.11  E(vib)   ...       0.00 

------------
INNER ENERGY
------------

The inner energy is: U= E(el) + E(ZPE) + E(vib) + E(rot) + E(trans)
    E(el)   - is the total energy from the electronic structure calculation
              = E(kin-el) + E(nuc-el) + E(el-el) + E(nuc-nuc)
    E(ZPE)  - the the zero temperature vibrational energy from the frequency calculation
    E(vib)  - the the finite temperature correction to E(ZPE) due to population
              of excited vibrational states
    E(rot)  - is the rotational thermal energy
    E(trans)- is the translational thermal energy

Summary of contributions to the inner energy U:
Electronic energy                ...   -517.27281481 Eh
Zero point energy                ...      0.10278180 Eh      64.50 kcal/mol
Thermal vibrational correction   ...      0.00304784 Eh       1.91 kcal/mol
Thermal rotational correction    ...      0.00141627 Eh       0.89 kcal/mol
Thermal translational correction ...      0.00141627 Eh       0.89 kcal/mol
-----------------------------------------------------------------------
Total thermal energy                   -517.16415263 Eh


Summary of corrections to the electronic energy:
(perhaps to be used in another calculation)
Total thermal correction                  0.00588038 Eh       3.69 kcal/mol
Non-thermal (ZPE) correction              0.10278180 Eh      64.50 kcal/mol
-----------------------------------------------------------------------
Total correction                          0.10866218 Eh      68.19 kcal/mol


--------
ENTHALPY
--------

The enthalpy is H = U + kB*T
                kB is Boltzmann's constant
Total thermal energy              ...   -517.16415263 Eh 
Thermal Enthalpy correction       ...      0.00094421 Eh       0.59 kcal/mol
-----------------------------------------------------------------------
Total Enthalpy                    ...   -517.16320842 Eh


Note: Only C1 symmetry has been detected, increase convergence thresholds 
      if your molecule has a higher symmetry. Symmetry factor of 1.0 is   
      used for the rotational entropy correction. 
 

Note: Rotational entropy computed according to Herzberg 
Infrared and Raman Spectra, Chapter V,1, Van Nostrand Reinhold, 1945 
Point Group:  C1, Symmetry Number:   1  
Rotational constants in cm-1:     0.798112     0.077307     0.074206 

Vibrational entropy computed according to the QRRHO of S. Grimme
Chem.Eur.J. 2012 18 9955 using a reference frequency of 100.0 cm-1


-------
ENTROPY
-------

The entropy contributions are T*S = T*(S(el)+S(vib)+S(rot)+S(trans))
     S(el)   - electronic entropy
     S(vib)  - vibrational entropy
     S(rot)  - rotational entropy
     S(trans)- translational entropy
The entropies will be listed as multiplied by the temperature to get
units of energy

Electronic entropy                ...      0.00000000 Eh      0.00 kcal/mol
Vibrational entropy               ...      0.00507518 Eh      3.18 kcal/mol
Rotational entropy                ...      0.01205367 Eh      7.56 kcal/mol
Translational entropy             ...      0.01848549 Eh     11.60 kcal/mol
-----------------------------------------------------------------------
Final entropy term                ...      0.03561435 Eh     22.35 kcal/mol

In case the symmetry of your molecule has not been determined correctly
or in case you have a reason to use a different symmetry number we print 
out the resulting rotational entropy values for sn=1,12:

 non-linear molecules -----------------------------------
|  sn= 1 | S(rot)=       0.01205367 Eh      7.56 kcal/mol|
|  sn= 2 | S(rot)=       0.01139922 Eh      7.15 kcal/mol|
|  sn= 3 | S(rot)=       0.01101639 Eh      6.91 kcal/mol|
|  sn= 4 | S(rot)=       0.01074476 Eh      6.74 kcal/mol|
|  sn= 5 | S(rot)=       0.01053407 Eh      6.61 kcal/mol|
|  sn= 6 | S(rot)=       0.01036193 Eh      6.50 kcal/mol|
|  sn= 7 | S(rot)=       0.01021638 Eh      6.41 kcal/mol|
|  sn= 8 | S(rot)=       0.01009031 Eh      6.33 kcal/mol|
|  sn= 9 | S(rot)=       0.00997910 Eh      6.26 kcal/mol|
|  sn=10 | S(rot)=       0.00987962 Eh      6.20 kcal/mol|
|  sn=11 | S(rot)=       0.00978963 Eh      6.14 kcal/mol|
|  sn=12 | S(rot)=       0.00970747 Eh      6.09 kcal/mol|
 linear molecules ---------------------------------------
|  Dinfh | S(rot)=       0.00778154 Eh      4.88 kcal/mol|
|  Cinfv | S(rot)=       0.00843600 Eh      5.29 kcal/mol|
 --------------------------------------------------------


-------------------
GIBBS FREE ENERGY
-------------------

The Gibbs free energy is G = H - T*S

Total enthalpy                    ...   -517.16320842 Eh 
Total entropy correction          ...     -0.03561435 Eh    -22.35 kcal/mol
-----------------------------------------------------------------------
Final Gibbs free energy         ...   -517.19882277 Eh

For completeness - the Gibbs free energy minus the electronic energy
G-E(el)                           ...      0.07399204 Eh     46.43 kcal/mol


Maximum memory used throughout the entire PROP-calculation: 34.1 MB

--------------------------------
SUGGESTED CITATIONS FOR THIS RUN
--------------------------------

Below you find a list of papers that are relevant to this ORCA run
We neither can nor want to force you to cite these papers, but we appreciate if you do
You receive ORCA, which is the product of decades of hard work by many enthusiastic individuals, for free
The only thing we kindly ask in return is that you cite our papers,
We deeply appreciate it, if you show your appreciation for ORCA by not just citing the generic ORCA reference.

Please note that relegating all ORCA citations to the supporting information does *not* help us.
SI sections are not indexed - citations you put there will not count into any citation statistics
But we need these citations in order to attract the funding resources that allow us to do what we are doing

Therefore, if you are a happy ORCA user, please consider citing a few of the papers listed below in the main body of your paper

In addition to the list printed below, the program has created the file vacuum_censo.bibtex that contains the list in bibtex format
You can import this file easily into all common literature databanks and citation aid programs


List of essential papers. We consider these as the minimum necessary citations

  1. Neese,F.
     Software update: the ORCA program system, version 5.0
     WIRES Comput. Molec. Sci., 2022 12(1)e1606
     doi.org/10.1002/wcms.1606
  2. Grimme,S.; Hansen,A.; Ehlert,S.; Mewes,J.
     r2SCAN-3c: A 'Swiss army knife' composite electronic-structure method
     J. Chem. Phys., 2021 154 064103
     doi.org/10.1063/5.0040021

List of papers to cite with high priority. The work reported in these papers was absolutely
necessary for this run to complete.
Our perspective: the developers of density functionals and basis sets usually get cited in chemistry papers
Good! But without the algorithms to do something with them, the functionals or basis sets would not do anything.
Hence, in our opinion, the algorithm design and method developments papers are equally worthy of getting cited

  1. Neese,F.
     An improvement of the resolution of the identity approximation for the formation of the Coulomb matrix
     J. Comp. Chem., 2003 24(14)1740-1747
     doi.org/10.1002/jcc.10318
  2. Bykov,D.; Petrenko,T.; Izsak,R.; Kossmann,S.; Becker,U.; Valeev,E.; Neese,F.
     Efficient implementation of the analytic second derivatives of Hartree-Fock and hybrid DFT energies: a detailed analysis of different approximations
     Molec. Phys., 2015 113 1961-1977
     doi.org/10.1080/00268976.2015.1025114
  3. Neese,F.
     The SHARK Integral Generation and Digestion System
     J. Comp. Chem., 2022  1-16
     doi.org/10.1002/jcc.26942
  4. Lehtola,S.; Steigemann,C.; Oliveira,M.; Marques,M.
     Recent developments in Libxc - A comprehensive library of functionals for density functional theory
     Software X, 2018 7 
     doi.org/10.1016/j.softx.2017.11.002
  5. Caldeweyher,E.; Bannwarth,C.; Grimme,S.
     Extension of the D3 dispersion coefficient model
     J. Chem. Phys., 2017 147 034112-XXXX
     doi.org/10.1063/1.4993215
  6. Caldeweyher,E.; Ehlert,S.; Hansen,A.; Neugebauer,H.; Spicher,S.; Bannwarth,C.; Grimme,S.
     A generally applicable atomic-charge dependent London dispersion correction
     J. Chem. Phys., 2019 150 154122-XXXX
     doi.org/10.1063/1.5090222
  7. Caldeweyher,E.; Mewes,J.; Ehlert,S.; Grimme,S.
     Extension and evaluation of the D4 London-dispersion model for periodic systems
     Phys. Chem. Chem. Phys., 2020 22(16)8499-8512
     doi.org/10.1039/D0CP00502A

List of suggested additional citations. These are papers that are important in the 'surrounding' of 
of this run, or papers that preceded the highly important papers. If you like your results we are grateful for a citation.

  1. Neese,F.
     The ORCA program system
     WIRES Comput. Molec. Sci., 2012 2(1)73-78
     doi.org/10.1002/wcms.81
  2. Neese,F.
     Software update: the ORCA program system, version 4.0
     WIRES Comput. Molec. Sci., 2018 8(1)1-6
     doi.org/10.1002/wcms.1327
  3. Neese,F.; Wennmohs,F.; Becker,U.; Riplinger,C.
     The ORCA quantum chemistry program package
     J. Chem. Phys., 2020 152 Art. No. L224108
     doi.org/10.1063/5.0004608

List of optional additional citations

  1. Neese,F.
     Approximate second-order SCF convergence for spin unrestricted wavefunctions
     Chem. Phys. Lett., 2000 325(1-3)93-98
     doi.org/10.1016/s0009-2614(00)00662-x

Timings for individual modules:

Sum of individual times          ...      221.642 sec (=   3.694 min)
Startup calculation              ...        0.720 sec (=   0.012 min)   0.3 %
SCF iterations                   ...       13.728 sec (=   0.229 min)   6.2 %
Property integrals               ...      113.918 sec (=   1.899 min)  51.4 %
SCF Response                     ...       46.705 sec (=   0.778 min)  21.1 %
Property calculations            ...       46.571 sec (=   0.776 min)  21.0 %
                             ****ORCA TERMINATED NORMALLY****
TOTAL RUN TIME: 0 days 0 hours 3 minutes 42 seconds 431 msec
