      -----------------------------------------------------------      
     |                   =====================                   |     
     |                           x T B                           |     
     |                   =====================                   |     
     |                         S. Grimme                         |     
     |          Mulliken Center for Theoretical Chemistry        |     
     |                    University of Bonn                     |     
      -----------------------------------------------------------      

   * xtb version 6.7.1 (edcfbbe) compiled by 'albert@albert-system' on 2024-07-22

   xtb is free software: you can redistribute it and/or modify it under
   the terms of the GNU Lesser General Public License as published by
   the Free Software Foundation, either version 3 of the License, or
   (at your option) any later version.
   
   xtb is distributed in the hope that it will be useful,
   but WITHOUT ANY WARRANTY; without even the implied warranty of
   MERCHANTABILITY or FITNESS FOR A PARTICULAR PURPOSE.  See the
   GNU Lesser General Public License for more details.
   
   Cite this work as:
   * C. Bannwarth, E. Caldeweyher, S. Ehlert, A. Hansen, P. Pracht,
     J. Seibert, S. Spicher, S. Grimme, WIREs Comput. Mol. Sci., 2020, 11,
     e01493. DOI: 10.1002/wcms.1493
   
   for GFN2-xTB:
   * C. Bannwarth, S. Ehlert and S. Grimme., J. Chem. Theory Comput., 2019,
     15, 1652-1671. DOI: 10.1021/acs.jctc.8b01176
   for GFN1-xTB:
   * S. Grimme, C. Bannwarth, P. Shushkov, J. Chem. Theory Comput., 2017,
     13, 1989-2009. DOI: 10.1021/acs.jctc.7b00118
   for GFN0-xTB:
   * P. Pracht, E. Caldeweyher, S. Ehlert, S. Grimme, ChemRxiv, 2019, preprint.
     DOI: 10.26434/chemrxiv.8326202.v1
   for GFN-FF:
   * S. Spicher and S. Grimme, Angew. Chem. Int. Ed., 2020, 59, 15665-15673.
     DOI: 10.1002/anie.202004239
   
   for ALPB and GBSA implicit solvation:
   * S. Ehlert, M. Stahn, S. Spicher, S. Grimme, J. Chem. Theory Comput.,
     2021, 17, 4250-4261. DOI: 10.1021/acs.jctc.1c00471
   
   for ddCOSMO and CPCM-X implicit solvation:
   * M. Stahn, S. Ehlert, S. Grimme, J. Phys. Chem. A,
     2023, XX, XXXX-XXXX. DOI: 10.1021/acs.jpca.3c04382
   
   for DFT-D4:
   * E. Caldeweyher, C. Bannwarth and S. Grimme, J. Chem. Phys., 2017,
     147, 034112. DOI: 10.1063/1.4993215
   * E. Caldeweyher, S. Ehlert, A. Hansen, H. Neugebauer, S. Spicher,
     C. Bannwarth and S. Grimme, J. Chem. Phys., 2019, 150, 154122.
     DOI: 10.1063/1.5090222
   * E. Caldeweyher, J.-M. Mewes, S. Ehlert and S. Grimme, Phys. Chem. Chem. Phys.
     2020, 22, 8499-8512. DOI: 10.1039/D0CP00502A
   
   for sTDA-xTB:
   * S. Grimme and C. Bannwarth, J. Chem. Phys., 2016, 145, 054103.
     DOI: 10.1063/1.4959605
   
   in the mass-spec context:
   * V. Asgeirsson, C. Bauer and S. Grimme, Chem. Sci., 2017, 8, 4879.
     DOI: 10.1039/c7sc00601b
   * J. Koopman and S. Grimme, ACS Omega 2019, 4, 12, 15120-15133.
     DOI: 10.1021/acsomega.9b02011
   
   for metadynamics refer to:
   * S. Grimme, J. Chem. Theory Comput., 2019, 155, 2847-2862
     DOI: 10.1021/acs.jctc.9b00143
   
   for SPH calculations refer to:
   * S. Spicher and S. Grimme, J. Chem. Theory Comput., 2021, 17, 1701-1714
     DOI: 10.1021/acs.jctc.0c01306
   
   for ONIOM refer to:
   * C. Plett, A. Katbashev, S. Ehlert, S. Grimme, M. Bursch,
     Phys. Chem. Chem. Phys., 2023, 25, 17860-17868. DOI: 10.1039/D3CP02178E
   
   for DIPRO refer to:
   * J. Kohn, N. Gildemeister, S. Grimme, D. Fazzi, A. Hansen,
     J. Chem. Phys., 2023, just accepted.
   
   for PTB refer to:
   * S. Grimme, M. Mueller, A. Hansen, J. Chem. Phys., 2023, 158, 124111.
     DOI: 10.1063/5.0137838
   
   with help from (in alphabetical order)
   P. Atkinson, C. Bannwarth, F. Bohle, G. Brandenburg, E. Caldeweyher
   M. Checinski, S. Dohm, S. Ehlert, S. Ehrlich, I. Gerasimov, C. Hölzer
   A. Katbashev, J. Kohn, J. Koopman, C. Lavigne, S. Lehtola, F. März, M. Müller,
   F. Musil, H. Neugebauer, J. Pisarek, C. Plett, P. Pracht, F. Pultar,
   J. Seibert, P. Shushkov, S. Spicher, M. Stahn, M. Steiner, T. Strunk,
   J. Stückrath, T. Rose, and J. Unsleber
   
 * started run on 2025/04/15 at 19:40:34.190     
   ID    Z sym.   atoms
    1    6 C      1-3
    2    8 O      4
    3    1 H      5-12

           -------------------------------------------------
          |                Calculation Setup                |
           -------------------------------------------------

          program call               : /software/projects/pawsey0265/mwang1/xtb/bin/xtb xtb_opt.coord --opt normal --orca -I xtb_opt-xcontrol-inp
          hostname                   : nid002810
          coordinate file            : xtb_opt.coord
          omp threads                :                    32

           -------------------------------------------------
          |                   Orca driver                   |
           -------------------------------------------------
orca executable           : /software/projects/pawsey0265/mwang1/orca_avx2/orca
orca input file           : xtb_opt.inp
orca input line           : 
orca parallel             : true
orca number of threads    : 32
                         * ORCA takes the control...
  ------------------------------------------------------------------------

                                 *****************
                                 * O   R   C   A *
                                 *****************

                                            #,                                       
                                            ###                                      
                                            ####                                     
                                            #####                                    
                                            ######                                   
                                           ########,                                 
                                     ,,################,,,,,                         
                               ,,#################################,,                 
                          ,,##########################################,,             
                       ,#########################################, ''#####,          
                    ,#############################################,,   '####,        
                  ,##################################################,,,,####,       
                ,###########''''           ''''###############################       
              ,#####''   ,,,,##########,,,,          '''####'''          '####       
            ,##' ,,,,###########################,,,                        '##       
           ' ,,###''''                  '''############,,,                           
         ,,##''                                '''############,,,,        ,,,,,,###''
      ,#''                                            '''#######################'''  
     '                                                          ''''####''''         
             ,#######,   #######,   ,#######,      ##                                
            ,#'     '#,  ##    ##  ,#'     '#,    #''#        ,####,   ,####,        
            ##       ##  ##   ,#'  ##            #'  '#       #'       #'  '#        
            ##       ##  #######   ##           ,######,      #####,   #    #        
            '#,     ,#'  ##    ##  '#,     ,#' ,#      #,     #,   #   #,  ,#        
             '#######'   ##     ##  '#######'  #'      '#     '####' # '####'        



                #########################################################
                #                        -***-                          #
                #          Department of theory and spectroscopy        #
                #                                                       #
                #                      Frank Neese                      #
                #                                                       #
                #     Directorship, Architecture, Infrastructure        #
                #                    SHARK, DRIVERS                     #
                #        Core code/Algorithms in most modules           #
                #                                                       #
                #        Max Planck Institute fuer Kohlenforschung      #
                #                Kaiser Wilhelm Platz 1                 #
                #                 D-45470 Muelheim/Ruhr                 #
                #                      Germany                          #
                #                                                       #
                #                  All rights reserved                  #
                #                        -***-                          #
                #########################################################


                         Program Version 6.0.1  -  RELEASE   -


 With contributions from (in alphabetic order):
[Max-Planck-Institut fuer Kohlenforschung]                               
  Daniel Aravena         : Magnetic Suceptibility                        
  Michael Atanasov       : Ab Initio Ligand Field Theory (pilot matlab implementation)
  Alexander A. Auer      : GIAO ZORA, VPT2 properties, NMR spectrum      
  Ute Becker             : All parallelization in ORCA, NUMFREQ, NUMCALC 
  Giovanni Bistoni       : ED, misc. LED, open-shell LED, HFLD           
  Martin Brehm           : Molecular dynamics                            
  Dmytro Bykov           : pre 5.0 version of the SCF Hessian            
  Marcos Casanova-Páez   : Triplet and SCS-CIS(D). UHF-(DLPNO)-IP/EA/STEOM-CCSD. UHF-CVS-IP/STEOM-CCSD   
  Vijay G. Chilkuri      : MRCI spin determinant printing, contributions to CSF-ICE 
  Pauline Colinet        : FMM embedding                                 
  Dipayan Datta          : RHF DLPNO-CCSD density                        
  Achintya Kumar Dutta   : EOM-CC, STEOM-CC                              
  Nicolas Foglia         : Exact transition moments, OPA infrastructure, MCD improvements    
  Dmitry Ganyushin       : Spin-Orbit,Spin-Spin,Magnetic field MRCI      
  Miquel Garcia-Rates    : C-PCM and meta-GGA Hessian, CCSD/C-PCM, Gaussian charge scheme 
  Tiago L. C. Gouveia    : GS-ROHF, GS-ROCIS                             
  Yang Guo               : DLPNO-NEVPT2, F12-NEVPT2, CIM, IAO-localization        
  Andreas Hansen         : Spin unrestricted coupled pair/coupled cluster methods 
  Ingolf Harden          : AUTO-CI MPn and infrastructure                
  Benjamin Helmich-Paris : MC-RPA, TRAH-(SCF,CASSCF), AVAS, COSX integrals, SCF dyn. polar. 
  Lee Huntington         : MR-EOM, pCC                                   
  Robert Izsak           : Overlap fitted RIJCOSX, COSX-SCS-MP3, EOM     
  Riya Kayal             : Wick's Theorem for AUTO-CI, AUTO-CI UHF-CCSDT 
  Emily Kempfer          : AUTO-CI, RHF CISDT and CCSDT                  
  Christian Kollmar      : KDIIS, OOCD, Brueckner-CCSD(T), CCSD density, CASPT2, CASPT2-K, improved NEVPT2 
  Axel Koslowski         : Symmetry handling                             
  Simone Kossmann        : meta-GGA functionals, TD-DFT gradient, OOMP2, (MP2 Hessian; deprecated post 5.0) 
  Lucas Lang             : DCDCAS                                        
  Marvin Lechner         : AUTO-CI (C++ implementation), FIC-MRCC        
  Spencer Leger          : CASSCF response                               
  Dagmar Lenk            : GEPOL surface, SMD, ORCA-2-JSON               
  Dimitrios Liakos       : Extrapolation schemes; Compound Job, initial MDCI parallelization 
  Dimitrios Manganas     : Further ROCIS development; embedding schemes. LFT, Crystal Embedding 
  Dimitrios Pantazis     : SARC Basis sets                               
  Anastasios Papadopoulos: AUTO-CI, single reference methods and gradients 
  Taras Petrenko         : pre 6.0 DFT Hessian and TD-DFT gradient, (ASA, deprecated), ECA, 1-Electron XAS/XES, NRVS 
  Peter Pinski           : DLPNO-MP2, DLPNO-MP2 Gradient                 
  Christoph Reimann      : Effective Core Potentials                     
  Marius Retegan         : Local ZFS, SOC                                
  Christoph Riplinger    : Optimizer, TS searches, QM/MM, DLPNO-CCSD(T), (RO)-DLPNO pert. Triples 
  Michael Roemelt        : Original ROCIS implementation                 
  Masaaki Saitow         : Open-shell DLPNO-CCSD energy and density      
  Barbara Sandhoefer     : DKH picture change effects                    
  Kantharuban Sivalingam : CASSCF convergence/infrastructure, NEVPT2 and variants, FIC-MRCI 
  Bernardo de Souza      : ESD, SOC TD-DFT                               
  Georgi L. Stoychev     : AutoAux, RI-MP2 NMR, DLPNO-MP2 response, X2C  
  Van Anh Tran           : RI-MP2 g-tensors                              
  Willem Van den Heuvel  : Paramagnetic NMR                              
  Zikuan Wang            : NOTCH, Electric field optimization            
  Frank Wennmohs         : Technical directorship and infrastructure     
  Hang Xu                : AUTO-CI-Response properties                   
                                                                         
[FACCTs GmbH]                                                            
  Markus Bursch, Miquel Garcia-Rates, Christoph Riplinger, Bernardo de Souza, Georgi L. Stoychev 
                                                                 
  APM, Basis sets (HGBS, AHGBS, def-TZVP (Ac-Lr), def2-XVPD (La-Lu)), CI-OPT, improved COSX, DLPNO-Multilevel,           
  DOCKER, DRACO, updates on ESD, GOAT, IRC, LR-CPCM, MBIS, meta-GGA TD-DFT gradient, ML-optimized integration grids, 
  MM, NACMEs, nearIR, NEB, NEB-TS, NL-DFT gradient (VV10), 2- and 3-layer-ONIOM, interface openCOSMO-RS, QMMM,   
  Crystal-QMMM, SF, symmetry and pop. for TD-DFT, r2SCAN hybrids, SOLVATOR                                   
                                                                         
[Other institutions]                                                     
  V. Asgeirsson          : NEB                                           
  Christoph Bannwarth    : sTDA-DFT, sTD-DFT, PBEh-3c, B97-3c, D3        
  Sebastian Ehlert       : rSCAN, r2SCAN, r2SCAN-3c, D4, dhf basis sets  
  Marvin Friede          : D4 for Fr, Ra, Ac-Lr                          
  Lars Goerigk           : TD-DFT with DH, B97 family of functionals     
  Stefan Grimme          : VdW corrections, initial TS optimization, DFT functionals, gCP, sTDA/sTD-DF 
  Waldemar Hujo          : DFT-NL                                        
  H. Jonsson             : NEB                                           
  Holger Kruse           : gCP                                           
  Marcel Mueller         : wB97X-3c, vDZP basis set                      
  Hagen Neugebauer       : wr2SCAN                                       
  Tobias Risthaus        : range-separated hybrid DFT                    
  Lukas Wittmann         : regularized MP2, r2SCAN double-hybrids, wr2SCAN        
                                                                         
We gratefully acknowledge several colleagues who have allowed us to      
interface, adapt or use parts of their codes:                            
  Ed Valeev, F. Pavosevic, A. Kumar             : LibInt (2-el integral package), F12 methods 
  Garnet Chan, S. Sharma, J. Yang, R. Olivares  : DMRG                   
  Ulf Ekstrom                                   : XCFun DFT Library      
  Mihaly Kallay                                 : mrcc  (arbitrary order and MRCC methods)
  Frank Weinhold                                : gennbo (NPA and NBO analysis)           
  Simon Mueller                                 : openCOSMO-RS                            
  Christopher J. Cramer and Donald G. Truhlar   : smd solvation model                     
  S Lehtola, MJT Oliveira, MAL Marques          : LibXC Library                           
  Liviu Ungur et al                             : ANISO software                          


 Your calculation uses the libint2 library for the computation of 2-el integrals
 For citations please refer to: http://libint.valeyev.net

 Your ORCA version has been built with support for libXC version: 6.2.2
 For citations please refer to: https://libxc.gitlab.io

 This ORCA versions uses:
   CBLAS   interface :  Fast vector & matrix operations
   LAPACKE interface :  Fast linear algebra routines
   SCALAPACK package :  Parallel linear algebra routines
   Shared memory     :  Shared parallel matrices
   BLAS/LAPACK       :  OpenBLAS 0.3.27  USE64BITINT DYNAMIC_ARCH NO_AFFINITY Zen SINGLE_THREADED
        Core in use  :  Zen
   Copyright (c) 2011-2014, The OpenBLAS Project




***************************************
The coordinates will be read from file: xtb_opt.xyz
***************************************


Your calculation utilizes the geometrical counterpoise correction gCP
Please cite in your paper:
H.Kruse, S. Grimme J.Chem.Phys., 136, (2012), 154101 
   

Your calculation utilizes the atom-pairwise dispersion correction
based on EEQ partial charges (D4)


================================================================================

----- Orbital basis set information -----
Your calculation utilizes the basis: def2-mTZVPP
   Stefan Grimme, Andreas Hansen, Sebastian Ehlert, and Jan-Michael Mewes 
   J. Chem. Phys. 154, 064103 (2021). DOI: 10.1063/5.0040021

----- AuxJ basis set information -----
Your calculation utilizes the auxiliary basis: def2/J
   F. Weigend, Phys. Chem. Chem. Phys. 8, 1057 (2006).

================================================================================
                                        WARNINGS
                       Please study these warnings very carefully!
================================================================================



WARNING: SCAN, rSCAN, or r2SCAN functional requested.
  ===> : libXC variant has now been activated.



================================================================================
                                       INPUT FILE
================================================================================
NAME = xtb_opt.inp
|  1> ! r2scan-3c def2/J RI DEFGRID2 scfconv7 ENGRAD tightSCF miniprint
|  2> * xyzfile 0 1 xtb_opt.xyz
|  3> 
|  4>                          ****END OF INPUT****
================================================================================

                     *******************************
                     * Energy+Gradient Calculation *
                     *******************************

---------------------------------
CARTESIAN COORDINATES (ANGSTROEM)
---------------------------------
  C     -1.578787    0.168329    0.492419
  C     -0.675183   -0.494498   -0.540195
  C      0.683630    0.202717   -0.629666
  O      1.414636    0.140250    0.571851
  H     -2.505337   -0.389031    0.607054
  H     -1.075427    0.212739    1.455367
  H     -1.819672    1.183824    0.187221
  H     -1.146215   -0.467758   -1.524294
  H     -0.518814   -1.543910   -0.272221
  H      1.268269   -0.234046   -1.453991
  H      0.547719    1.267941   -0.830011
  H      1.507067   -0.784929    0.826293

----------------------------
CARTESIAN COORDINATES (A.U.)
----------------------------
  NO LB      ZA    FRAG     MASS         X           Y           Z
   0 C     6.0000    0    12.011   -2.983474    0.318095    0.930538
   1 C     6.0000    0    12.011   -1.275911   -0.934465   -1.020820
   2 C     6.0000    0    12.011    1.291873    0.383079   -1.189897
   3 O     8.0000    0    15.999    2.673274    0.265035    1.080641
   4 H     1.0000    0     1.008   -4.734401   -0.735163    1.147166
   5 H     1.0000    0     1.008   -2.032263    0.402019    2.750245
   6 H     1.0000    0     1.008   -3.438682    2.237104    0.353797
   7 H     1.0000    0     1.008   -2.166032   -0.883934   -2.880498
   8 H     1.0000    0     1.008   -0.980417   -2.917567   -0.514423
   9 H     1.0000    0     1.008    2.396681   -0.442284   -2.747644
  10 H     1.0000    0     1.008    1.035039    2.396062   -1.568493
  11 H     1.0000    0     1.008    2.847943   -1.483300    1.561468

------------------------------------------------------------------------------
                   ___                                                        
                  /   \      - P O W E R E D   B Y -                         
                 /     \                                                     
                 |  |  |   _    _      __       _____    __    __             
                 |  |  |  | |  | |    /  \     |  _  \  |  |  /  |          
                  \  \/   | |  | |   /    \    | | | |  |  | /  /          
                 / \  \   | |__| |  /  /\  \   | |_| |  |  |/  /          
                |  |  |   |  __  | /  /__\  \  |    /   |      \           
                |  |  |   | |  | | |   __   |  |    \   |  |\   \          
                \     /   | |  | | |  |  |  |  | |\  \  |  | \   \       
                 \___/    |_|  |_| |__|  |__|  |_| \__\ |__|  \__/        
                                                                              
                      - O R C A' S   B I G   F R I E N D -                    
                                      &                                       
                       - I N T E G R A L  F E E D E R -                       
                                                                              
 v1 FN, 2020, v2 2021, v3 2022-2024                                           
------------------------------------------------------------------------------


----------------------
SHARK INTEGRAL PACKAGE
----------------------

Number of atoms                             ...     12
Number of basis functions                   ...    121
Number of shells                            ...     61
Maximum angular momentum                    ...      2
Integral batch strategy                     ... SHARK/LIBINT Hybrid
RI-J (if used) integral strategy            ... SPLIT-RIJ (Revised 2003 algorithm where possible)
Printlevel                                  ...      1
Contraction scheme used                     ... SEGMENTED contraction
Prescreening option                         ... SCHWARTZ
   Thresh                                   ... 3.000e-11
   Tcut                                     ... 1.000e-12
   Tpresel                                  ... 1.000e-12 
Coulomb Range Separation                    ... NOT USED
Exchange Range Separation                   ... NOT USED
Multipole approximations                    ... NOT USED
Finite Nucleus Model                        ... NOT USED
CABS basis                                  ... NOT available
Auxiliary Coulomb fitting basis             ... AVAILABLE
   # of basis functions in Aux-J            ...    284
   # of shells in Aux-J                     ...    100
   Maximum angular momentum in Aux-J        ...      4
Auxiliary J/K fitting basis                 ... NOT available
Auxiliary Correlation fitting basis         ... NOT available
Auxiliary 'external' fitting basis          ... NOT available

Checking pre-screening integrals            ... done (  0.0 sec) Dimension = 61
Check shell pair data                       ... done (  0.0 sec)
Shell pair information
Shell pair cut-off parameter TPreSel        ...   1.0e-12
Total number of shell pairs                 ...      1891
Shell pairs after pre-screening             ...      1851
Total number of primitive shell pairs       ...      6553
Primitive shell pairs kept                  ...      5082
          la=0 lb=0:    644 shell pairs
          la=1 lb=0:    705 shell pairs
          la=1 lb=1:    208 shell pairs
          la=2 lb=0:    179 shell pairs
          la=2 lb=1:    100 shell pairs
          la=2 lb=2:     15 shell pairs

Calculating one electron integrals          ... done (  0.0 sec)
Calculating RI/J V-Matrix + Cholesky decomp.... done (  0.0 sec)
Calculating Nuclear repulsion               ... done (  0.0 sec) ENN=    133.075312205645 Eh

Diagonalization of the overlap matrix:
Smallest eigenvalue                        ... 3.802e-04
Time for diagonalization                   ...    0.002 sec
Threshold for overlap eigenvalues          ... 1.000e-07
Number of eigenvalues below threshold      ... 0
Time for construction of square roots      ...    0.003 sec
Total time needed                          ...    0.006 sec

-------------------
DFT GRID GENERATION
-------------------

General Integration Accuracy     IntAcc      ... 4.388
Radial Grid Type                 RadialGrid  ... OptM3 with GC (2021)
Angular Grid (max. ang.)         AngularGrid ... 4 (Lebedev-302)
Angular grid pruning method      GridPruning ... 4 (adaptive)
Weight generation scheme         WeightScheme... mBecke (2022)
Basis function cutoff            BFCut       ... 1.0000e-11
Integration weight cutoff        WCut        ... 1.0000e-14
Partially contracted basis set               ... off
Rotationally invariant grid construction     ... off
Angular grids for H and He will be reduced by one unit
Diffuse basis detected: some atoms will have their outermost
                        angular grid increased by 1.

Total number of grid points                  ...    50383
Total number of batches                      ...      794
Average number of points per batch           ...       63
Average number of grid points per atom       ...     4199
Initializing property integral containers    ... done (  0.0 sec)

SHARK setup successfully completed in   0.4 seconds

Maximum memory used throughout the entire STARTUP-calculation: 22.0 MB
Occupation numbers will be reassigned to an Aufbau configuration
             **** ENERGY FILE WAS UPDATED (xtb_opt.en.tmp) ****
Finished Guess after   0.1 sec
Maximum memory used throughout the entire GUESS-calculation: 9.0 MB
----------------------------------------D-I-I-S--------------------------------------------
Iteration    Energy (Eh)           Delta-E    RMSDP     MaxDP     DIISErr   Damp  Time(sec)
-------------------------------------------------------------------------------------------
               ***  Starting incremental Fock matrix formation  ***
                              *** Initializing SOSCF ***
---------------------------------------S-O-S-C-F--------------------------------------
Iteration    Energy (Eh)           Delta-E    RMSDP     MaxDP     MaxGrad    Time(sec)
--------------------------------------------------------------------------------------
    1    -194.3036783935519054     0.00e+00  5.88e-06  1.01e-04  1.24e-05     0.7
               *** Restarting incremental Fock matrix formation ***
    2    -194.3036783921432118     1.41e-09  8.71e-06  1.46e-04  4.46e-05     0.6
    3    -194.3036782987151412     9.34e-08  6.35e-06  1.09e-04  7.97e-05     0.5
                 **** Energy Check signals convergence ****

               *****************************************************
               *                     SUCCESS                       *
               *           SCF CONVERGED AFTER   3 CYCLES          *
               *****************************************************

             **** ENERGY FILE WAS UPDATED (xtb_opt.en.tmp) ****

----------------
TOTAL SCF ENERGY
----------------

Total Energy       :       -194.30367829871514 Eh           -5287.27189 eV

Components:
Nuclear Repulsion  :        133.07531220564502 Eh            3621.16334 eV
Electronic Energy  :       -327.37899050436016 Eh           -8908.43523 eV
One Electron Energy:       -526.22409227104799 Eh          -14319.28553 eV
Two Electron Energy:        198.84510176668783 Eh            5410.85030 eV

Virial components:
Potential Energy   :       -387.78073739038803 Eh          -10552.05032 eV
Kinetic Energy     :        193.47705909167286 Eh            5264.77843 eV
Virial Ratio       :          2.00427244041709

DFT components:
N(Alpha)           :       17.000014097597 electrons
N(Beta)            :       17.000014097597 electrons
N(Total)           :       34.000028195194 electrons
E(X)               :      -26.740737022161 Eh       
E(C)               :       -1.062007227533 Eh       
E(XC)              :      -27.802744249694 Eh       

---------------
SCF CONVERGENCE
---------------

  Last Energy change         ...   -9.3428e-08  Tolerance :   1.0000e-07
  Last MAX-Density change    ...    1.0927e-04  Tolerance :   1.0000e-07
  Last RMS-Density change    ...    6.3510e-06  Tolerance :   5.0000e-09
  Last DIIS Error            ...    1.7567e-04  Tolerance :   1.0000e-07
  Last Orbital Gradient      ...    7.9700e-05  Tolerance :   1.0000e-04
  Last Orbital Rotation      ...    5.2697e-05  Tolerance :   1.0000e-04


----------------
ORBITAL ENERGIES
----------------

  NO   OCC          E(Eh)            E(eV) 
   0   2.0000     -18.947167      -515.5786 
   1   2.0000     -10.072974      -274.0996 
   2   2.0000     -10.029674      -272.9213 
   3   2.0000     -10.015111      -272.5250 
   4   2.0000      -0.986346       -26.8398 
   5   2.0000      -0.743413       -20.2293 
   6   2.0000      -0.642021       -17.4703 
   7   2.0000      -0.565217       -15.3803 
   8   2.0000      -0.459130       -12.4936 
   9   2.0000      -0.433436       -11.7944 
  10   2.0000      -0.423115       -11.5135 
  11   2.0000      -0.374358       -10.1868 
  12   2.0000      -0.341240        -9.2856 
  13   2.0000      -0.329388        -8.9631 
  14   2.0000      -0.311015        -8.4632 
  15   2.0000      -0.287160        -7.8140 
  16   2.0000      -0.235160        -6.3990 
  17   0.0000       0.066311         1.8044 
  18   0.0000       0.110198         2.9986 
  19   0.0000       0.123471         3.3598 
  20   0.0000       0.131340         3.5740 
  21   0.0000       0.138950         3.7810 
  22   0.0000       0.159165         4.3311 
  23   0.0000       0.173852         4.7308 
  24   0.0000       0.191868         5.2210 
  25   0.0000       0.198465         5.4005 
  26   0.0000       0.215250         5.8573 
  27   0.0000       0.227596         6.1932 
*Only the first 10 virtual orbitals were printed.
Total SCF time: 0 days 0 hours 0 min 2 sec 
Finished LeanSCF after   3.7 sec

Maximum memory used throughout the entire LEANSCF-calculation: 13.0 MB


-------------------------------------------------------------------------------
                          DFT DISPERSION CORRECTION                            
                                                                               
                                DFTD4 V3.4.0                                   
-------------------------------------------------------------------------------
-------------------------   ----------------
Dispersion correction           -0.002124006
-------------------------   ----------------

------------------   -----------------
gCP correction             0.007012157
------------------   -----------------

-------------------------   --------------------
FINAL SINGLE POINT ENERGY      -194.298790147240
-------------------------   --------------------

------------------------------------------------------------------------------
                         ORCA SCF GRADIENT CALCULATION
------------------------------------------------------------------------------

Nuc. rep. gradient        (SHARK) ... done (  0.0 sec)
HCore & Overlap gradient  (SHARK) ... done (  0.1 sec)
Split-RIJ-J gradient      (SHARK) ... done (  0.4 sec)
XC gradient                       ... done (  1.8 sec)
Dispersion correction             ... done (  0.0 sec)

-------------------
DISPERSION GRADIENT
-------------------

   1   C   :   -0.000039423    0.000006177    0.000015102
   2   C   :   -0.000008748   -0.000010200   -0.000012073
   3   C   :    0.000018976    0.000003143   -0.000019889
   4   O   :    0.000048357   -0.000012428    0.000014924
   5   H   :   -0.000024576   -0.000001763    0.000007705
   6   H   :   -0.000012841    0.000002121    0.000010272
   7   H   :   -0.000020295    0.000007806    0.000005076
   8   H   :   -0.000009232   -0.000003950   -0.000010816
   9   H   :   -0.000003548   -0.000007662   -0.000002536
  10   H   :    0.000016874    0.000000651   -0.000007484
  11   H   :    0.000013965    0.000004835   -0.000003563
  12   H   :    0.000020492    0.000011268    0.000003284

Difference to translation invariance:
           :    0.0000000000   -0.0000000000    0.0000000000

Difference to rotation invariance:
           :    0.0000000000   -0.0000000000    0.0000000000

Norm of the Dispersion gradient    ...    0.0000921590
RMS gradient                       ...    0.0000153598
MAX gradient                       ...    0.0000483569
gCP correction                   ... done

------------------
CARTESIAN GRADIENT
------------------

   1   C   :   -0.001608579    0.003811297    0.002347598
   2   C   :   -0.003476312   -0.007292909   -0.004028540
   3   C   :    0.005431890    0.006177052    0.010055936
   4   O   :   -0.006446905   -0.000030219   -0.013617157
   5   H   :    0.004350156    0.000840548   -0.001427210
   6   H   :   -0.000609491   -0.000664992   -0.003978918
   7   H   :    0.001734081   -0.004621074    0.000365962
   8   H   :    0.001112098    0.001757864    0.003545641
   9   H   :   -0.000552499    0.003480045    0.001651202
  10   H   :   -0.000134876   -0.001162784    0.002266659
  11   H   :    0.000564569   -0.001975184    0.002113077
  12   H   :   -0.000364132   -0.000319644    0.000705750

Difference to translation invariance:
           :    0.0000000000    0.0000000000    0.0000000000

Difference to rotation invariance:
           :    0.0000357650   -0.0000935046    0.0000080430

Norm of the Cartesian gradient     ...    0.0247118150
RMS gradient                       ...    0.0041186358
MAX gradient                       ...    0.0136171568

-------
TIMINGS
-------

Total SCF gradient time     ....        2.346 sec

Densities                   ....       0.001 sec  (  0.0%)
One electron gradient       ....       0.063 sec  (  2.7%)
RI-J Coulomb gradient       ....       0.419 sec  ( 17.9%)
XC gradient                 ....       1.820 sec  ( 77.6%)

Maximum memory used throughout the entire SCFGRAD-calculation: 29.0 MB

------------------------------------------------------------------------------
                              ORCA PROPERTY CALCULATIONS
------------------------------------------------------------------------------

GBWName                                 ... xtb_opt.gbw
Number of atoms                         ...     12
Number of basis functions               ...    121
Max core memory                         ...   1024 MB

Electric properties:
Dipole moment                           ... YES
Quadrupole moment                       ...  NO
Static polarizability (Dipole/Dipole)   ...  NO
Static polarizability (Dipole/Quad.)    ...  NO
Static polarizability (Quad./Quad.)     ...  NO
Static polarizability (Velocity)        ...  NO

Atomic electric properties:
Dipole moment                           ...  NO
Quadrupole moment                       ...  NO
Static polarizability                   ...  NO

Choice of electric origin               ... Center of mass
Position of electric origin             ...    -0.000030    -0.000004    -0.000010

General magnetic properties:
Magnetizability                         ...  NO

EPR properties:
g-Tensor (aka g-matrix)                 ...  NO
Zero-Field splitting spin-orbit         ...  NO
Zero-field splitting spin-spin          ...  NO
Hyperfine couplings                     ...  NO (   0 nuclei)
Quadrupole couplings                    ...  NO (   0 nuclei)
Contact density                         ...  NO (   0 nuclei)

NMR properties:
Chemical shifts                         ...  NO (   0 nuclei)
Spin-rotation constants                 ...  NO (   0 nuclei)
Spin-spin couplings                     ...  NO (   0 nuclei,    0 pairs)

Choice of magnetic origin               ... GIAO
Position of magnetic origin             ...     0.000000     0.000000     0.000000

Properties with geometric perturbations:
SCF Hessian                             ...  NO
IR spectrum                             ...  NO
VCD spectrum                            ...  NO
X-ray spectroscopy properties:
SCF XES/XAS/RIXS spectra                ...  NO


-------------
DIPOLE MOMENT
-------------

Method             : SCF
Type of density    : Electron Density
Multiplicity       :   1
Irrep              :   0
Energy             :  -194.3036782987151412 Eh
Relativity type    : 
Basis              : AO
                                X                 Y                 Z
Electronic contribution:      3.227888719       0.206481967       0.650121542
Nuclear contribution   :     -3.490002296      -0.706391491      -0.933974954
                        -----------------------------------------
Total Dipole Moment    :     -0.262113577      -0.499909525      -0.283853411
                        -----------------------------------------
Magnitude (a.u.)       :      0.631811538
Magnitude (Debye)      :      1.605937303



--------------------
Rotational spectrum 
--------------------
 
Rotational constants in cm-1:             0.478809             0.169808             0.145469 
Rotational constants in MHz :         14354.325477          5090.712475          4361.052857 

Dipole components along the rotational axes: 
x,y,z [a.u.] :    -0.293887     0.393176    -0.397780 
x,y,z [Debye]:    -0.747001     0.999375    -1.011076 

 

Dipole moment calculation done in   0.3 sec 

Maximum memory used throughout the entire PROP-calculation: 7.1 MB

--------------------------------
SUGGESTED CITATIONS FOR THIS RUN
--------------------------------

Below you find a list of papers that are relevant to this ORCA run
We neither can nor want to force you to cite these papers, but we appreciate if you do
You receive ORCA, which is the product of decades of hard work by many enthusiastic individuals, for free
The only thing we kindly ask in return is that you cite our papers,
We deeply appreciate it, if you show your appreciation for ORCA by not just citing the generic ORCA reference.

Please note that relegating all ORCA citations to the supporting information does *not* help us.
SI sections are not indexed - citations you put there will not count into any citation statistics
But we need these citations in order to attract the funding resources that allow us to do what we are doing

Therefore, if you are a happy ORCA user, please consider citing a few of the papers listed below in the main body of your paper

In addition to the list printed below, the program has created the file xtb_opt.bibtex that contains the list in bibtex format
You can import this file easily into all common literature databanks and citation aid programs


List of essential papers. We consider these as the minimum necessary citations

  1. Neese,F.
     Software update: the ORCA program system, version 5.0
     WIRES Comput. Molec. Sci., 2022 12(1)e1606
     doi.org/10.1002/wcms.1606
  2. Grimme,S.; Hansen,A.; Ehlert,S.; Mewes,J.
     r2SCAN-3c: A 'Swiss army knife' composite electronic-structure method
     J. Chem. Phys., 2021 154 064103
     doi.org/10.1063/5.0040021

List of papers to cite with high priority. The work reported in these papers was absolutely
necessary for this run to complete.
Our perspective: the developers of density functionals and basis sets usually get cited in chemistry papers
Good! But without the algorithms to do something with them, the functionals or basis sets would not do anything.
Hence, in our opinion, the algorithm design and method developments papers are equally worthy of getting cited

  1. Neese,F.
     An improvement of the resolution of the identity approximation for the formation of the Coulomb matrix
     J. Comp. Chem., 2003 24(14)1740-1747
     doi.org/10.1002/jcc.10318
  2. Neese,F.
     The SHARK Integral Generation and Digestion System
     J. Comp. Chem., 2022  1-16
     doi.org/10.1002/jcc.26942
  3. Lehtola,S.; Steigemann,C.; Oliveira,M.; Marques,M.
     Recent developments in Libxc - A comprehensive library of functionals for density functional theory
     Software X, 2018 7 
     doi.org/10.1016/j.softx.2017.11.002
  4. Caldeweyher,E.; Bannwarth,C.; Grimme,S.
     Extension of the D3 dispersion coefficient model
     J. Chem. Phys., 2017 147 034112
     doi.org/10.1063/1.4993215
  5. Caldeweyher,E.; Ehlert,S.; Hansen,A.; Neugebauer,H.; Spicher,S.; Bannwarth,C.; Grimme,S.
     A generally applicable atomic-charge dependent London dispersion correction
     J. Chem. Phys., 2019 150 154122
     doi.org/10.1063/1.5090222
  6. Caldeweyher,E.; Mewes,J.; Ehlert,S.; Grimme,S.
     Extension and evaluation of the D4 London-dispersion model for periodic systems
     Phys. Chem. Chem. Phys., 2020 22(16)8499-8512
     doi.org/10.1039/D0CP00502A
  7. Wittmann,L.; Gordiy,I.; Friede,M.; Helmich-Paris,B.; Grimme,S.; Hansen,A.; Bursch,M.
     Extension of the D3 and D4 London Dispersion Corrections to the full Actinides Series
     Phys. Chem. Chem. Phys., 2024 26(32)21379-21394
     doi.org/https://doi.org/10.1039/D4CP01514B 

List of suggested additional citations. These are papers that are important in the 'surrounding' of 
of this run, or papers that preceded the highly important papers. If you like your results we are grateful for a citation.

  1. Neese,F.
     The ORCA program system
     WIRES Comput. Molec. Sci., 2012 2(1)73-78
     doi.org/10.1002/wcms.81
  2. Neese,F.
     Software update: the ORCA program system, version 4.0
     WIRES Comput. Molec. Sci., 2018 8(1)1-6
     doi.org/10.1002/wcms.1327
  3. Neese,F.; Wennmohs,F.; Becker,U.; Riplinger,C.
     The ORCA quantum chemistry program package
     J. Chem. Phys., 2020 152 Art. No. L224108
     doi.org/10.1063/5.0004608

List of optional additional citations

  1. Neese,F.
     Approximate second-order SCF convergence for spin unrestricted wavefunctions
     Chem. Phys. Lett., 2000 325(1-3)93-98
     doi.org/10.1016/s0009-2614(00)00662-x

Timings for individual modules:

Sum of individual times          ...        7.238 sec (=   0.121 min)
Startup calculation              ...        0.410 sec (=   0.007 min)   5.7 %
SCF iterations                   ...        3.832 sec (=   0.064 min)  52.9 %
Property calculations            ...        0.323 sec (=   0.005 min)   4.5 %
SCF Gradient evaluation          ...        2.673 sec (=   0.045 min)  36.9 %
                             ****ORCA TERMINATED NORMALLY****
TOTAL RUN TIME: 0 days 0 hours 0 minutes 8 seconds 403 msec
  ------------------------------------------------------------------------
          * successful ORCA run, taking over control again...

         :::::::::::::::::::::::::::::::::::::::::::::::::::::
         ::                  ORCA SUMMARY                   ::
         :::::::::::::::::::::::::::::::::::::::::::::::::::::
         :: total energy            -194.298790147240 Eh    ::
         :: gradient norm              0.024711815048 Eh/a0 ::
         :: HOMO-LUMO gap              0.000000000000 eV    ::
         :::::::::::::::::::::::::::::::::::::::::::::::::::::

      ----------------------------------------------------------- 
     |                       L-ANC optimizer                     |
      ----------------------------------------------------------- 
          low memory version by Sebastian Ehlert

          ...................................................
          :                      SETUP                      :
          :.................................................:
          :   energy convergence        0.5000000E-05 Eh    :
          :   grad. convergence         0.1000000E-02 Eh/a0 :
          :   optimization log               true           :
          :   writing optlog all                1     steps :
          :   Hessian reset                     8     steps :
          :   maximium step len.        1.0000000     a0    :
          :   LBFGS images                      8           :
          ...................................................
 * calculating model hessian...
Using Lindh-Hessian (1995)
 Shifting diagonal of input Hessian by   1.000000000000000E-002
 Lowest  eigenvalues of input Hessian
    0.000000    0.000000    0.000000    0.000000    0.000000    0.000000
    0.016081    0.019614    0.023101    0.032458    0.052117    0.061231
    0.062728    0.067623    0.069655    0.076097    0.087852    0.111178
 Highest eigenvalues
    1.117106    1.163839    1.186318    1.256875    1.296212    1.500190
 

........................................................................
.............................. CYCLE    1 ..............................
........................................................................
                         * ORCA takes the control...
  ------------------------------------------------------------------------

                                 *****************
                                 * O   R   C   A *
                                 *****************

                                            #,                                       
                                            ###                                      
                                            ####                                     
                                            #####                                    
                                            ######                                   
                                           ########,                                 
                                     ,,################,,,,,                         
                               ,,#################################,,                 
                          ,,##########################################,,             
                       ,#########################################, ''#####,          
                    ,#############################################,,   '####,        
                  ,##################################################,,,,####,       
                ,###########''''           ''''###############################       
              ,#####''   ,,,,##########,,,,          '''####'''          '####       
            ,##' ,,,,###########################,,,                        '##       
           ' ,,###''''                  '''############,,,                           
         ,,##''                                '''############,,,,        ,,,,,,###''
      ,#''                                            '''#######################'''  
     '                                                          ''''####''''         
             ,#######,   #######,   ,#######,      ##                                
            ,#'     '#,  ##    ##  ,#'     '#,    #''#        ,####,   ,####,        
            ##       ##  ##   ,#'  ##            #'  '#       #'       #'  '#        
            ##       ##  #######   ##           ,######,      #####,   #    #        
            '#,     ,#'  ##    ##  '#,     ,#' ,#      #,     #,   #   #,  ,#        
             '#######'   ##     ##  '#######'  #'      '#     '####' # '####'        



                #########################################################
                #                        -***-                          #
                #          Department of theory and spectroscopy        #
                #                                                       #
                #                      Frank Neese                      #
                #                                                       #
                #     Directorship, Architecture, Infrastructure        #
                #                    SHARK, DRIVERS                     #
                #        Core code/Algorithms in most modules           #
                #                                                       #
                #        Max Planck Institute fuer Kohlenforschung      #
                #                Kaiser Wilhelm Platz 1                 #
                #                 D-45470 Muelheim/Ruhr                 #
                #                      Germany                          #
                #                                                       #
                #                  All rights reserved                  #
                #                        -***-                          #
                #########################################################


                         Program Version 6.0.1  -  RELEASE   -


 With contributions from (in alphabetic order):
[Max-Planck-Institut fuer Kohlenforschung]                               
  Daniel Aravena         : Magnetic Suceptibility                        
  Michael Atanasov       : Ab Initio Ligand Field Theory (pilot matlab implementation)
  Alexander A. Auer      : GIAO ZORA, VPT2 properties, NMR spectrum      
  Ute Becker             : All parallelization in ORCA, NUMFREQ, NUMCALC 
  Giovanni Bistoni       : ED, misc. LED, open-shell LED, HFLD           
  Martin Brehm           : Molecular dynamics                            
  Dmytro Bykov           : pre 5.0 version of the SCF Hessian            
  Marcos Casanova-Páez   : Triplet and SCS-CIS(D). UHF-(DLPNO)-IP/EA/STEOM-CCSD. UHF-CVS-IP/STEOM-CCSD   
  Vijay G. Chilkuri      : MRCI spin determinant printing, contributions to CSF-ICE 
  Pauline Colinet        : FMM embedding                                 
  Dipayan Datta          : RHF DLPNO-CCSD density                        
  Achintya Kumar Dutta   : EOM-CC, STEOM-CC                              
  Nicolas Foglia         : Exact transition moments, OPA infrastructure, MCD improvements    
  Dmitry Ganyushin       : Spin-Orbit,Spin-Spin,Magnetic field MRCI      
  Miquel Garcia-Rates    : C-PCM and meta-GGA Hessian, CCSD/C-PCM, Gaussian charge scheme 
  Tiago L. C. Gouveia    : GS-ROHF, GS-ROCIS                             
  Yang Guo               : DLPNO-NEVPT2, F12-NEVPT2, CIM, IAO-localization        
  Andreas Hansen         : Spin unrestricted coupled pair/coupled cluster methods 
  Ingolf Harden          : AUTO-CI MPn and infrastructure                
  Benjamin Helmich-Paris : MC-RPA, TRAH-(SCF,CASSCF), AVAS, COSX integrals, SCF dyn. polar. 
  Lee Huntington         : MR-EOM, pCC                                   
  Robert Izsak           : Overlap fitted RIJCOSX, COSX-SCS-MP3, EOM     
  Riya Kayal             : Wick's Theorem for AUTO-CI, AUTO-CI UHF-CCSDT 
  Emily Kempfer          : AUTO-CI, RHF CISDT and CCSDT                  
  Christian Kollmar      : KDIIS, OOCD, Brueckner-CCSD(T), CCSD density, CASPT2, CASPT2-K, improved NEVPT2 
  Axel Koslowski         : Symmetry handling                             
  Simone Kossmann        : meta-GGA functionals, TD-DFT gradient, OOMP2, (MP2 Hessian; deprecated post 5.0) 
  Lucas Lang             : DCDCAS                                        
  Marvin Lechner         : AUTO-CI (C++ implementation), FIC-MRCC        
  Spencer Leger          : CASSCF response                               
  Dagmar Lenk            : GEPOL surface, SMD, ORCA-2-JSON               
  Dimitrios Liakos       : Extrapolation schemes; Compound Job, initial MDCI parallelization 
  Dimitrios Manganas     : Further ROCIS development; embedding schemes. LFT, Crystal Embedding 
  Dimitrios Pantazis     : SARC Basis sets                               
  Anastasios Papadopoulos: AUTO-CI, single reference methods and gradients 
  Taras Petrenko         : pre 6.0 DFT Hessian and TD-DFT gradient, (ASA, deprecated), ECA, 1-Electron XAS/XES, NRVS 
  Peter Pinski           : DLPNO-MP2, DLPNO-MP2 Gradient                 
  Christoph Reimann      : Effective Core Potentials                     
  Marius Retegan         : Local ZFS, SOC                                
  Christoph Riplinger    : Optimizer, TS searches, QM/MM, DLPNO-CCSD(T), (RO)-DLPNO pert. Triples 
  Michael Roemelt        : Original ROCIS implementation                 
  Masaaki Saitow         : Open-shell DLPNO-CCSD energy and density      
  Barbara Sandhoefer     : DKH picture change effects                    
  Kantharuban Sivalingam : CASSCF convergence/infrastructure, NEVPT2 and variants, FIC-MRCI 
  Bernardo de Souza      : ESD, SOC TD-DFT                               
  Georgi L. Stoychev     : AutoAux, RI-MP2 NMR, DLPNO-MP2 response, X2C  
  Van Anh Tran           : RI-MP2 g-tensors                              
  Willem Van den Heuvel  : Paramagnetic NMR                              
  Zikuan Wang            : NOTCH, Electric field optimization            
  Frank Wennmohs         : Technical directorship and infrastructure     
  Hang Xu                : AUTO-CI-Response properties                   
                                                                         
[FACCTs GmbH]                                                            
  Markus Bursch, Miquel Garcia-Rates, Christoph Riplinger, Bernardo de Souza, Georgi L. Stoychev 
                                                                 
  APM, Basis sets (HGBS, AHGBS, def-TZVP (Ac-Lr), def2-XVPD (La-Lu)), CI-OPT, improved COSX, DLPNO-Multilevel,           
  DOCKER, DRACO, updates on ESD, GOAT, IRC, LR-CPCM, MBIS, meta-GGA TD-DFT gradient, ML-optimized integration grids, 
  MM, NACMEs, nearIR, NEB, NEB-TS, NL-DFT gradient (VV10), 2- and 3-layer-ONIOM, interface openCOSMO-RS, QMMM,   
  Crystal-QMMM, SF, symmetry and pop. for TD-DFT, r2SCAN hybrids, SOLVATOR                                   
                                                                         
[Other institutions]                                                     
  V. Asgeirsson          : NEB                                           
  Christoph Bannwarth    : sTDA-DFT, sTD-DFT, PBEh-3c, B97-3c, D3        
  Sebastian Ehlert       : rSCAN, r2SCAN, r2SCAN-3c, D4, dhf basis sets  
  Marvin Friede          : D4 for Fr, Ra, Ac-Lr                          
  Lars Goerigk           : TD-DFT with DH, B97 family of functionals     
  Stefan Grimme          : VdW corrections, initial TS optimization, DFT functionals, gCP, sTDA/sTD-DF 
  Waldemar Hujo          : DFT-NL                                        
  H. Jonsson             : NEB                                           
  Holger Kruse           : gCP                                           
  Marcel Mueller         : wB97X-3c, vDZP basis set                      
  Hagen Neugebauer       : wr2SCAN                                       
  Tobias Risthaus        : range-separated hybrid DFT                    
  Lukas Wittmann         : regularized MP2, r2SCAN double-hybrids, wr2SCAN        
                                                                         
We gratefully acknowledge several colleagues who have allowed us to      
interface, adapt or use parts of their codes:                            
  Ed Valeev, F. Pavosevic, A. Kumar             : LibInt (2-el integral package), F12 methods 
  Garnet Chan, S. Sharma, J. Yang, R. Olivares  : DMRG                   
  Ulf Ekstrom                                   : XCFun DFT Library      
  Mihaly Kallay                                 : mrcc  (arbitrary order and MRCC methods)
  Frank Weinhold                                : gennbo (NPA and NBO analysis)           
  Simon Mueller                                 : openCOSMO-RS                            
  Christopher J. Cramer and Donald G. Truhlar   : smd solvation model                     
  S Lehtola, MJT Oliveira, MAL Marques          : LibXC Library                           
  Liviu Ungur et al                             : ANISO software                          


 Your calculation uses the libint2 library for the computation of 2-el integrals
 For citations please refer to: http://libint.valeyev.net

 Your ORCA version has been built with support for libXC version: 6.2.2
 For citations please refer to: https://libxc.gitlab.io

 This ORCA versions uses:
   CBLAS   interface :  Fast vector & matrix operations
   LAPACKE interface :  Fast linear algebra routines
   SCALAPACK package :  Parallel linear algebra routines
   Shared memory     :  Shared parallel matrices
   BLAS/LAPACK       :  OpenBLAS 0.3.27  USE64BITINT DYNAMIC_ARCH NO_AFFINITY Zen SINGLE_THREADED
        Core in use  :  Zen
   Copyright (c) 2011-2014, The OpenBLAS Project




***************************************
The coordinates will be read from file: xtb_opt.xyz
***************************************


Your calculation utilizes the geometrical counterpoise correction gCP
Please cite in your paper:
H.Kruse, S. Grimme J.Chem.Phys., 136, (2012), 154101 
   

Your calculation utilizes the atom-pairwise dispersion correction
based on EEQ partial charges (D4)


================================================================================

----- Orbital basis set information -----
Your calculation utilizes the basis: def2-mTZVPP
   Stefan Grimme, Andreas Hansen, Sebastian Ehlert, and Jan-Michael Mewes 
   J. Chem. Phys. 154, 064103 (2021). DOI: 10.1063/5.0040021

----- AuxJ basis set information -----
Your calculation utilizes the auxiliary basis: def2/J
   F. Weigend, Phys. Chem. Chem. Phys. 8, 1057 (2006).

================================================================================
                                        WARNINGS
                       Please study these warnings very carefully!
================================================================================

WARNING: Old DensityContainer found on disk!
         Will remove this file - 
         If you want to keep old densities, please start your calculation with a different basename. 



WARNING: SCAN, rSCAN, or r2SCAN functional requested.
  ===> : libXC variant has now been activated.



================================================================================
                                       INPUT FILE
================================================================================
NAME = xtb_opt.inp
|  1> ! r2scan-3c def2/J RI DEFGRID2 scfconv7 ENGRAD tightSCF miniprint
|  2> * xyzfile 0 1 xtb_opt.xyz
|  3> 
|  4>                          ****END OF INPUT****
================================================================================

                     *******************************
                     * Energy+Gradient Calculation *
                     *******************************

---------------------------------
CARTESIAN COORDINATES (ANGSTROEM)
---------------------------------
  C     -1.586356    0.166944    0.496144
  C     -0.672700   -0.487970   -0.538105
  C      0.690684    0.195164   -0.634851
  O      1.422252    0.141927    0.581660
  H     -2.521615   -0.385475    0.611195
  H     -1.089978    0.211882    1.467893
  H     -1.829547    1.190097    0.197732
  H     -1.142035   -0.469189   -1.528091
  H     -0.515950   -1.545122   -0.285523
  H      1.273195   -0.234759   -1.465790
  H      0.551263    1.260996   -0.844977
  H      1.522673   -0.782866    0.832542

----------------------------
CARTESIAN COORDINATES (A.U.)
----------------------------
  NO LB      ZA    FRAG     MASS         X           Y           Z
   0 C     6.0000    0    12.011   -2.997779    0.315478    0.937576
   1 C     6.0000    0    12.011   -1.271219   -0.922129   -1.016871
   2 C     6.0000    0    12.011    1.305203    0.368807   -1.199695
   3 O     8.0000    0    15.999    2.687667    0.268204    1.099179
   4 H     1.0000    0     1.008   -4.765161   -0.728443    1.154991
   5 H     1.0000    0     1.008   -2.059761    0.400399    2.773916
   6 H     1.0000    0     1.008   -3.457344    2.248958    0.373659
   7 H     1.0000    0     1.008   -2.158134   -0.886639   -2.887674
   8 H     1.0000    0     1.008   -0.975004   -2.919858   -0.539560
   9 H     1.0000    0     1.008    2.405990   -0.443630   -2.769942
  10 H     1.0000    0     1.008    1.041737    2.382937   -1.596774
  11 H     1.0000    0     1.008    2.877435   -1.479403    1.573275

------------------------------------------------------------------------------
                   ___                                                        
                  /   \      - P O W E R E D   B Y -                         
                 /     \                                                     
                 |  |  |   _    _      __       _____    __    __             
                 |  |  |  | |  | |    /  \     |  _  \  |  |  /  |          
                  \  \/   | |  | |   /    \    | | | |  |  | /  /          
                 / \  \   | |__| |  /  /\  \   | |_| |  |  |/  /          
                |  |  |   |  __  | /  /__\  \  |    /   |      \           
                |  |  |   | |  | | |   __   |  |    \   |  |\   \          
                \     /   | |  | | |  |  |  |  | |\  \  |  | \   \       
                 \___/    |_|  |_| |__|  |__|  |_| \__\ |__|  \__/        
                                                                              
                      - O R C A' S   B I G   F R I E N D -                    
                                      &                                       
                       - I N T E G R A L  F E E D E R -                       
                                                                              
 v1 FN, 2020, v2 2021, v3 2022-2024                                           
------------------------------------------------------------------------------


----------------------
SHARK INTEGRAL PACKAGE
----------------------

Number of atoms                             ...     12
Number of basis functions                   ...    121
Number of shells                            ...     61
Maximum angular momentum                    ...      2
Integral batch strategy                     ... SHARK/LIBINT Hybrid
RI-J (if used) integral strategy            ... SPLIT-RIJ (Revised 2003 algorithm where possible)
Printlevel                                  ...      1
Contraction scheme used                     ... SEGMENTED contraction
Prescreening option                         ... SCHWARTZ
   Thresh                                   ... 3.000e-11
   Tcut                                     ... 1.000e-12
   Tpresel                                  ... 1.000e-12 
Coulomb Range Separation                    ... NOT USED
Exchange Range Separation                   ... NOT USED
Multipole approximations                    ... NOT USED
Finite Nucleus Model                        ... NOT USED
CABS basis                                  ... NOT available
Auxiliary Coulomb fitting basis             ... AVAILABLE
   # of basis functions in Aux-J            ...    284
   # of shells in Aux-J                     ...    100
   Maximum angular momentum in Aux-J        ...      4
Auxiliary J/K fitting basis                 ... NOT available
Auxiliary Correlation fitting basis         ... NOT available
Auxiliary 'external' fitting basis          ... NOT available

Checking pre-screening integrals            ... done (  0.0 sec) Dimension = 61
Check shell pair data                       ... done (  0.0 sec)
Shell pair information
Shell pair cut-off parameter TPreSel        ...   1.0e-12
Total number of shell pairs                 ...      1891
Shell pairs after pre-screening             ...      1851
Total number of primitive shell pairs       ...      6553
Primitive shell pairs kept                  ...      5079
          la=0 lb=0:    644 shell pairs
          la=1 lb=0:    705 shell pairs
          la=1 lb=1:    208 shell pairs
          la=2 lb=0:    179 shell pairs
          la=2 lb=1:    100 shell pairs
          la=2 lb=2:     15 shell pairs

Calculating one electron integrals          ... done (  0.0 sec)
Calculating RI/J V-Matrix + Cholesky decomp.... done (  0.0 sec)
Calculating Nuclear repulsion               ... done (  0.0 sec) ENN=    132.515552447160 Eh

Diagonalization of the overlap matrix:
Smallest eigenvalue                        ... 3.918e-04
Time for diagonalization                   ...    0.001 sec
Threshold for overlap eigenvalues          ... 1.000e-07
Number of eigenvalues below threshold      ... 0
Time for construction of square roots      ...    0.003 sec
Total time needed                          ...    0.005 sec

-------------------
DFT GRID GENERATION
-------------------

General Integration Accuracy     IntAcc      ... 4.388
Radial Grid Type                 RadialGrid  ... OptM3 with GC (2021)
Angular Grid (max. ang.)         AngularGrid ... 4 (Lebedev-302)
Angular grid pruning method      GridPruning ... 4 (adaptive)
Weight generation scheme         WeightScheme... mBecke (2022)
Basis function cutoff            BFCut       ... 1.0000e-11
Integration weight cutoff        WCut        ... 1.0000e-14
Partially contracted basis set               ... off
Rotationally invariant grid construction     ... off
Angular grids for H and He will be reduced by one unit
Diffuse basis detected: some atoms will have their outermost
                        angular grid increased by 1.

Total number of grid points                  ...    50388
Total number of batches                      ...      793
Average number of points per batch           ...       63
Average number of grid points per atom       ...     4199
Initializing property integral containers    ... done (  0.0 sec)

SHARK setup successfully completed in   0.4 seconds

Maximum memory used throughout the entire STARTUP-calculation: 22.0 MB
Occupation numbers will be reassigned to an Aufbau configuration
             **** ENERGY FILE WAS UPDATED (xtb_opt.en.tmp) ****
Finished Guess after   0.1 sec
Maximum memory used throughout the entire GUESS-calculation: 9.0 MB
----------------------------------------D-I-I-S--------------------------------------------
Iteration    Energy (Eh)           Delta-E    RMSDP     MaxDP     DIISErr   Damp  Time(sec)
-------------------------------------------------------------------------------------------
               ***  Starting incremental Fock matrix formation  ***
                              *** Initializing SOSCF ***
---------------------------------------S-O-S-C-F--------------------------------------
Iteration    Energy (Eh)           Delta-E    RMSDP     MaxDP     MaxGrad    Time(sec)
--------------------------------------------------------------------------------------
    1    -194.3040101302258620     0.00e+00  2.80e-04  4.18e-03  3.22e-04     0.7
               *** Restarting incremental Fock matrix formation ***
    2    -194.3041781661748075    -1.68e-04  1.43e-04  2.36e-03  4.53e-04     0.6
    3    -194.3041832631183468    -5.10e-06  4.71e-05  5.37e-04  4.34e-04     0.6
    4    -194.3041898396920431    -6.58e-06  2.43e-05  2.81e-04  1.23e-04     0.6
    5    -194.3041901271176641    -2.87e-07  9.06e-06  1.28e-04  1.04e-04     0.5
    6    -194.3041902769104183    -1.50e-07  8.47e-06  1.51e-04  3.93e-05     0.5
    7    -194.3041903388263165    -6.19e-08  2.26e-06  3.39e-05  9.57e-06     0.5
                 **** Energy Check signals convergence ****

               *****************************************************
               *                     SUCCESS                       *
               *           SCF CONVERGED AFTER   7 CYCLES          *
               *****************************************************

             **** ENERGY FILE WAS UPDATED (xtb_opt.en.tmp) ****

----------------
TOTAL SCF ENERGY
----------------

Total Energy       :       -194.30419033882632 Eh           -5287.28582 eV

Components:
Nuclear Repulsion  :        132.51555244715982 Eh            3605.93150 eV
Electronic Energy  :       -326.81974278598614 Eh           -8893.21732 eV
One Electron Energy:       -525.12859827089937 Eh          -14289.47562 eV
Two Electron Energy:        198.30885548491324 Eh            5396.25830 eV

Virial components:
Potential Energy   :       -387.71238001137465 Eh          -10550.19022 eV
Kinetic Energy     :        193.40818967254833 Eh            5262.90440 eV
Virial Ratio       :          2.00463269248213

DFT components:
N(Alpha)           :       17.000015533792 electrons
N(Beta)            :       17.000015533792 electrons
N(Total)           :       34.000031067585 electrons
E(X)               :      -26.723419583720 Eh       
E(C)               :       -1.061044520795 Eh       
E(XC)              :      -27.784464104515 Eh       

---------------
SCF CONVERGENCE
---------------

  Last Energy change         ...    6.1916e-08  Tolerance :   1.0000e-07
  Last MAX-Density change    ...    3.3931e-05  Tolerance :   1.0000e-07
  Last RMS-Density change    ...    2.2568e-06  Tolerance :   5.0000e-09
  Last DIIS Error            ...    3.2714e-03  Tolerance :   1.0000e-07
  Last Orbital Gradient      ...    9.5701e-06  Tolerance :   1.0000e-04
  Last Orbital Rotation      ...    1.5598e-05  Tolerance :   1.0000e-04


----------------
ORBITAL ENERGIES
----------------

  NO   OCC          E(Eh)            E(eV) 
   0   2.0000     -18.946881      -515.5709 
   1   2.0000     -10.074585      -274.1434 
   2   2.0000     -10.031615      -272.9741 
   3   2.0000     -10.017722      -272.5961 
   4   2.0000      -0.982385       -26.7321 
   5   2.0000      -0.742599       -20.2072 
   6   2.0000      -0.642343       -17.4791 
   7   2.0000      -0.563900       -15.3445 
   8   2.0000      -0.458256       -12.4698 
   9   2.0000      -0.431413       -11.7393 
  10   2.0000      -0.421421       -11.4675 
  11   2.0000      -0.372253       -10.1295 
  12   2.0000      -0.340889        -9.2761 
  13   2.0000      -0.330989        -9.0067 
  14   2.0000      -0.309045        -8.4095 
  15   2.0000      -0.287246        -7.8164 
  16   2.0000      -0.236538        -6.4365 
  17   0.0000       0.065996         1.7958 
  18   0.0000       0.108598         2.9551 
  19   0.0000       0.122278         3.3273 
  20   0.0000       0.131944         3.5904 
  21   0.0000       0.138301         3.7634 
  22   0.0000       0.157404         4.2832 
  23   0.0000       0.171634         4.6704 
  24   0.0000       0.190508         5.1840 
  25   0.0000       0.196629         5.3506 
  26   0.0000       0.214057         5.8248 
  27   0.0000       0.226227         6.1560 
*Only the first 10 virtual orbitals were printed.
Total SCF time: 0 days 0 hours 0 min 4 sec 
Finished LeanSCF after   5.9 sec

Maximum memory used throughout the entire LEANSCF-calculation: 12.9 MB


-------------------------------------------------------------------------------
                          DFT DISPERSION CORRECTION                            
                                                                               
                                DFTD4 V3.4.0                                   
-------------------------------------------------------------------------------
-------------------------   ----------------
Dispersion correction           -0.002119006
-------------------------   ----------------

------------------   -----------------
gCP correction             0.006907462
------------------   -----------------

-------------------------   --------------------
FINAL SINGLE POINT ENERGY      -194.299401882777
-------------------------   --------------------

------------------------------------------------------------------------------
                         ORCA SCF GRADIENT CALCULATION
------------------------------------------------------------------------------

Nuc. rep. gradient        (SHARK) ... done (  0.0 sec)
HCore & Overlap gradient  (SHARK) ... done (  0.1 sec)
Split-RIJ-J gradient      (SHARK) ... done (  0.4 sec)
XC gradient                       ... done (  1.8 sec)
Dispersion correction             ... done (  0.0 sec)

-------------------
DISPERSION GRADIENT
-------------------

   1   C   :   -0.000040305    0.000006310    0.000015502
   2   C   :   -0.000008799   -0.000010265   -0.000012327
   3   C   :    0.000020032    0.000003216   -0.000020039
   4   O   :    0.000048597   -0.000012271    0.000014641
   5   H   :   -0.000024488   -0.000001624    0.000007803
   6   H   :   -0.000013312    0.000002158    0.000010533
   7   H   :   -0.000020511    0.000007789    0.000005289
   8   H   :   -0.000009158   -0.000003963   -0.000010934
   9   H   :   -0.000003505   -0.000007760   -0.000002655
  10   H   :    0.000016795    0.000000648   -0.000007587
  11   H   :    0.000014072    0.000004661   -0.000003750
  12   H   :    0.000020582    0.000011099    0.000003524

Difference to translation invariance:
           :   -0.0000000000    0.0000000000   -0.0000000000

Difference to rotation invariance:
           :   -0.0000000000    0.0000000000    0.0000000000

Norm of the Dispersion gradient    ...    0.0000931463
RMS gradient                       ...    0.0000155244
MAX gradient                       ...    0.0000485971
gCP correction                   ... done

------------------
CARTESIAN GRADIENT
------------------

   1   C   :   -0.001525650    0.000791351    0.000955203
   2   C   :   -0.001560399   -0.001104401   -0.001593812
   3   C   :    0.004721143    0.000658428    0.004292040
   4   O   :   -0.002943460   -0.000722570   -0.004967865
   5   H   :    0.000862803    0.000308517    0.000061402
   6   H   :    0.000107083   -0.000114127   -0.001022037
   7   H   :    0.000511383   -0.001231842   -0.000096571
   8   H   :    0.000418922    0.000388047    0.001078774
   9   H   :    0.000386029    0.001213995    0.000521413
  10   H   :   -0.000052123    0.000268453   -0.000280923
  11   H   :   -0.000700427   -0.000767192    0.000417822
  12   H   :   -0.000225306    0.000311342    0.000634554

Difference to translation invariance:
           :    0.0000000000    0.0000000000    0.0000000000

Difference to rotation invariance:
           :   -0.0000029668   -0.0000758069    0.0000317241

Norm of the Cartesian gradient     ...    0.0097012440
RMS gradient                       ...    0.0016168740
MAX gradient                       ...    0.0049678652

-------
TIMINGS
-------

Total SCF gradient time     ....        2.254 sec

Densities                   ....       0.000 sec  (  0.0%)
One electron gradient       ....       0.061 sec  (  2.7%)
RI-J Coulomb gradient       ....       0.358 sec  ( 15.9%)
XC gradient                 ....       1.795 sec  ( 79.7%)

Maximum memory used throughout the entire SCFGRAD-calculation: 29.0 MB

------------------------------------------------------------------------------
                              ORCA PROPERTY CALCULATIONS
------------------------------------------------------------------------------

GBWName                                 ... xtb_opt.gbw
Number of atoms                         ...     12
Number of basis functions               ...    121
Max core memory                         ...   1024 MB

Electric properties:
Dipole moment                           ... YES
Quadrupole moment                       ...  NO
Static polarizability (Dipole/Dipole)   ...  NO
Static polarizability (Dipole/Quad.)    ...  NO
Static polarizability (Quad./Quad.)     ...  NO
Static polarizability (Velocity)        ...  NO

Atomic electric properties:
Dipole moment                           ...  NO
Quadrupole moment                       ...  NO
Static polarizability                   ...  NO

Choice of electric origin               ... Center of mass
Position of electric origin             ...     0.004241    -0.000047     0.004832

General magnetic properties:
Magnetizability                         ...  NO

EPR properties:
g-Tensor (aka g-matrix)                 ...  NO
Zero-Field splitting spin-orbit         ...  NO
Zero-field splitting spin-spin          ...  NO
Hyperfine couplings                     ...  NO (   0 nuclei)
Quadrupole couplings                    ...  NO (   0 nuclei)
Contact density                         ...  NO (   0 nuclei)

NMR properties:
Chemical shifts                         ...  NO (   0 nuclei)
Spin-rotation constants                 ...  NO (   0 nuclei)
Spin-spin couplings                     ...  NO (   0 nuclei,    0 pairs)

Choice of magnetic origin               ... GIAO
Position of magnetic origin             ...     0.000000     0.000000     0.000000

Properties with geometric perturbations:
SCF Hessian                             ...  NO
IR spectrum                             ...  NO
VCD spectrum                            ...  NO
X-ray spectroscopy properties:
SCF XES/XAS/RIXS spectra                ...  NO


-------------
DIPOLE MOMENT
-------------

Method             : SCF
Type of density    : Electron Density
Multiplicity       :   1
Irrep              :   0
Energy             :  -194.3041903388263165 Eh
Relativity type    : 
Basis              : AO
                                X                 Y                 Z
Electronic contribution:      3.251323419       0.204450687       0.664118946
Nuclear contribution   :     -3.515875829      -0.705507503      -0.962891451
                        -----------------------------------------
Total Dipole Moment    :     -0.264552410      -0.501056816      -0.298772505
                        -----------------------------------------
Magnitude (a.u.)       :      0.640555165
Magnitude (Debye)      :      1.628161838



--------------------
Rotational spectrum 
--------------------
 
Rotational constants in cm-1:             0.474600             0.168451             0.143848 
Rotational constants in MHz :         14228.137956          5050.040093          4312.445697 

Dipole components along the rotational axes: 
x,y,z [a.u.] :    -0.295373     0.406514    -0.397256 
x,y,z [Debye]:    -0.750778     1.033277    -1.009744 

 

Dipole moment calculation done in   0.6 sec 

Maximum memory used throughout the entire PROP-calculation: 7.1 MB

--------------------------------
SUGGESTED CITATIONS FOR THIS RUN
--------------------------------

Below you find a list of papers that are relevant to this ORCA run
We neither can nor want to force you to cite these papers, but we appreciate if you do
You receive ORCA, which is the product of decades of hard work by many enthusiastic individuals, for free
The only thing we kindly ask in return is that you cite our papers,
We deeply appreciate it, if you show your appreciation for ORCA by not just citing the generic ORCA reference.

Please note that relegating all ORCA citations to the supporting information does *not* help us.
SI sections are not indexed - citations you put there will not count into any citation statistics
But we need these citations in order to attract the funding resources that allow us to do what we are doing

Therefore, if you are a happy ORCA user, please consider citing a few of the papers listed below in the main body of your paper

In addition to the list printed below, the program has created the file xtb_opt.bibtex that contains the list in bibtex format
You can import this file easily into all common literature databanks and citation aid programs


List of essential papers. We consider these as the minimum necessary citations

  1. Neese,F.
     Software update: the ORCA program system, version 5.0
     WIRES Comput. Molec. Sci., 2022 12(1)e1606
     doi.org/10.1002/wcms.1606
  2. Grimme,S.; Hansen,A.; Ehlert,S.; Mewes,J.
     r2SCAN-3c: A 'Swiss army knife' composite electronic-structure method
     J. Chem. Phys., 2021 154 064103
     doi.org/10.1063/5.0040021

List of papers to cite with high priority. The work reported in these papers was absolutely
necessary for this run to complete.
[...]
-------------------------------------------------------------------------------------------
               ***  Starting incremental Fock matrix formation  ***
                              *** Initializing SOSCF ***
---------------------------------------S-O-S-C-F--------------------------------------
Iteration    Energy (Eh)           Delta-E    RMSDP     MaxDP     MaxGrad    Time(sec)
--------------------------------------------------------------------------------------
    1    -194.3043354318766660     0.00e+00  5.68e-07  1.19e-05  1.29e-06     0.7
               *** Restarting incremental Fock matrix formation ***
    2    -194.3043354318690490     7.62e-12  9.05e-07  1.75e-05  6.42e-06     0.6
                  *** Gradient check signals convergence ***

               *****************************************************
               *                     SUCCESS                       *
               *           SCF CONVERGED AFTER   2 CYCLES          *
               *****************************************************

             **** ENERGY FILE WAS UPDATED (xtb_opt.en.tmp) ****

----------------
TOTAL SCF ENERGY
----------------

Total Energy       :       -194.30433543186905 Eh           -5287.28977 eV

Components:
Nuclear Repulsion  :        132.26302128123427 Eh            3599.05978 eV
Electronic Energy  :       -326.56735671310332 Eh           -8886.34955 eV
One Electron Energy:       -524.64906165142327 Eh          -14276.42677 eV
Two Electron Energy:        198.08170493831994 Eh            5390.07722 eV

Virial components:
Potential Energy   :       -387.68808118150275 Eh          -10549.52902 eV
Kinetic Energy     :        193.38374574963373 Eh            5262.23925 eV
Virial Ratio       :          2.00476042946974

DFT components:
N(Alpha)           :       17.000013126379 electrons
N(Beta)            :       17.000013126379 electrons
N(Total)           :       34.000026252758 electrons
E(X)               :      -26.716622999404 Eh       
E(C)               :       -1.060568072832 Eh       
E(XC)              :      -27.777191072236 Eh       

---------------
SCF CONVERGENCE
---------------

  Last Energy change         ...   -7.6170e-12  Tolerance :   1.0000e-07
  Last MAX-Density change    ...    1.7522e-05  Tolerance :   1.0000e-07
  Last RMS-Density change    ...    9.0464e-07  Tolerance :   5.0000e-09
  Last DIIS Error            ...    1.8284e-05  Tolerance :   1.0000e-07
  Last Orbital Gradient      ...    6.4200e-06  Tolerance :   1.0000e-04
  Last Orbital Rotation      ...    8.0297e-06  Tolerance :   1.0000e-04


----------------
ORBITAL ENERGIES
----------------

  NO   OCC          E(Eh)            E(eV) 
   0   2.0000     -18.946617      -515.5637 
   1   2.0000     -10.075214      -274.1605 
   2   2.0000     -10.031537      -272.9720 
   3   2.0000     -10.017702      -272.5955 
   4   2.0000      -0.979150       -26.6440 
   5   2.0000      -0.742552       -20.2059 
   6   2.0000      -0.642154       -17.4739 
   7   2.0000      -0.561939       -15.2911 
   8   2.0000      -0.458854       -12.4860 
   9   2.0000      -0.430683       -11.7195 
  10   2.0000      -0.418761       -11.3951 
  11   2.0000      -0.370504       -10.0819 
  12   2.0000      -0.340724        -9.2716 
  13   2.0000      -0.330363        -8.9896 
  14   2.0000      -0.307610        -8.3705 
  15   2.0000      -0.288556        -7.8520 
  16   2.0000      -0.236750        -6.4423 
  17   0.0000       0.064452         1.7538 
  18   0.0000       0.108469         2.9516 
  19   0.0000       0.121881         3.3165 
  20   0.0000       0.133046         3.6204 
  21   0.0000       0.140525         3.8239 
  22   0.0000       0.157149         4.2763 
  23   0.0000       0.172587         4.6963 
  24   0.0000       0.187933         5.1139 
  25   0.0000       0.196986         5.3603 
  26   0.0000       0.213144         5.7999 
  27   0.0000       0.224858         6.1187 
*Only the first 10 virtual orbitals were printed.
Total SCF time: 0 days 0 hours 0 min 1 sec 
Finished LeanSCF after   2.1 sec

Maximum memory used throughout the entire LEANSCF-calculation: 12.9 MB


-------------------------------------------------------------------------------
                          DFT DISPERSION CORRECTION                            
                                                                               
                                DFTD4 V3.4.0                                   
-------------------------------------------------------------------------------
-------------------------   ----------------
Dispersion correction           -0.002115800
-------------------------   ----------------

------------------   -----------------
gCP correction             0.006868452
------------------   -----------------

-------------------------   --------------------
FINAL SINGLE POINT ENERGY      -194.299582779133
-------------------------   --------------------

------------------------------------------------------------------------------
                         ORCA SCF GRADIENT CALCULATION
------------------------------------------------------------------------------

Nuc. rep. gradient        (SHARK) ... done (  0.0 sec)
HCore & Overlap gradient  (SHARK) ... done (  0.1 sec)
Split-RIJ-J gradient      (SHARK) ... done (  0.4 sec)
XC gradient                       ... done (  1.8 sec)
Dispersion correction             ... done (  0.0 sec)

-------------------
DISPERSION GRADIENT
-------------------

   1   C   :   -0.000040822    0.000006130    0.000015593
   2   C   :   -0.000009239   -0.000010448   -0.000012637
   3   C   :    0.000020726    0.000003037   -0.000019827
   4   O   :    0.000049737   -0.000011213    0.000013750
   5   H   :   -0.000024296   -0.000001529    0.000007629
   6   H   :   -0.000013807    0.000001947    0.000010951
   7   H   :   -0.000020143    0.000007717    0.000005546
   8   H   :   -0.000009157   -0.000003990   -0.000010870
   9   H   :   -0.000003780   -0.000008027   -0.000002732
  10   H   :    0.000016686    0.000000603   -0.000007557
  11   H   :    0.000014111    0.000004812   -0.000003992
  12   H   :    0.000019983    0.000010961    0.000004146

Difference to translation invariance:
           :   -0.0000000000   -0.0000000000    0.0000000000

Difference to rotation invariance:
           :    0.0000000000   -0.0000000000   -0.0000000000

Norm of the Dispersion gradient    ...    0.0000937975
RMS gradient                       ...    0.0000156329
MAX gradient                       ...    0.0000497372
gCP correction                   ... done

------------------
CARTESIAN GRADIENT
------------------

   1   C   :   -0.000047046    0.000010857    0.000027554
   2   C   :   -0.000042686   -0.000100660   -0.000087998
   3   C   :    0.000271267    0.000047735    0.000160665
   4   O   :   -0.000190311    0.000071758   -0.000085299
   5   H   :   -0.000086269   -0.000052189    0.000020029
   6   H   :    0.000072906   -0.000005412    0.000064256
   7   H   :   -0.000024685    0.000090597   -0.000034816
   8   H   :    0.000017659    0.000021692    0.000024206
   9   H   :   -0.000004982   -0.000006815    0.000006996
  10   H   :   -0.000007461   -0.000006674   -0.000020223
  11   H   :    0.000000847    0.000007791   -0.000056837
  12   H   :    0.000040761   -0.000078680   -0.000018532

Difference to translation invariance:
           :    0.0000000000    0.0000000000   -0.0000000000

Difference to rotation invariance:
           :   -0.0000220481   -0.0000797563   -0.0000118848

Norm of the Cartesian gradient     ...    0.0004654724
RMS gradient                       ...    0.0000775787
MAX gradient                       ...    0.0002712667

-------
TIMINGS
-------

Total SCF gradient time     ....        2.309 sec

Densities                   ....       0.000 sec  (  0.0%)
One electron gradient       ....       0.061 sec  (  2.6%)
RI-J Coulomb gradient       ....       0.359 sec  ( 15.5%)
XC gradient                 ....       1.849 sec  ( 80.1%)

Maximum memory used throughout the entire SCFGRAD-calculation: 29.0 MB

------------------------------------------------------------------------------
                              ORCA PROPERTY CALCULATIONS
------------------------------------------------------------------------------

GBWName                                 ... xtb_opt.gbw
Number of atoms                         ...     12
Number of basis functions               ...    121
Max core memory                         ...   1024 MB

Electric properties:
Dipole moment                           ... YES
Quadrupole moment                       ...  NO
Static polarizability (Dipole/Dipole)   ...  NO
Static polarizability (Dipole/Quad.)    ...  NO
Static polarizability (Quad./Quad.)     ...  NO
Static polarizability (Velocity)        ...  NO

Atomic electric properties:
Dipole moment                           ...  NO
Quadrupole moment                       ...  NO
Static polarizability                   ...  NO

Choice of electric origin               ... Center of mass
Position of electric origin             ...    -0.006780     0.011006     0.012692

General magnetic properties:
Magnetizability                         ...  NO

EPR properties:
g-Tensor (aka g-matrix)                 ...  NO
Zero-Field splitting spin-orbit         ...  NO
Zero-field splitting spin-spin          ...  NO
Hyperfine couplings                     ...  NO (   0 nuclei)
Quadrupole couplings                    ...  NO (   0 nuclei)
Contact density                         ...  NO (   0 nuclei)

NMR properties:
Chemical shifts                         ...  NO (   0 nuclei)
Spin-rotation constants                 ...  NO (   0 nuclei)
Spin-spin couplings                     ...  NO (   0 nuclei,    0 pairs)

Choice of magnetic origin               ... GIAO
Position of magnetic origin             ...     0.000000     0.000000     0.000000

Properties with geometric perturbations:
SCF Hessian                             ...  NO
IR spectrum                             ...  NO
VCD spectrum                            ...  NO
X-ray spectroscopy properties:
SCF XES/XAS/RIXS spectra                ...  NO


-------------
DIPOLE MOMENT
-------------

Method             : SCF
Type of density    : Electron Density
Multiplicity       :   1
Irrep              :   0
Energy             :  -194.3043354318690490 Eh
Relativity type    : 
Basis              : AO
                                X                 Y                 Z
Electronic contribution:      3.225530523       0.253635545       0.685360921
Nuclear contribution   :     -3.446110470      -0.768458428      -1.010831197
                        -----------------------------------------
Total Dipole Moment    :     -0.220579947      -0.514822883      -0.325470276
                        -----------------------------------------
Magnitude (a.u.)       :      0.647787786
Magnitude (Debye)      :      1.646545698



--------------------
Rotational spectrum 
--------------------
 
Rotational constants in cm-1:             0.470679             0.168663             0.143230 
Rotational constants in MHz :         14110.614208          5056.377238          4293.925202 

Dipole components along the rotational axes: 
x,y,z [a.u.] :    -0.258029     0.440950    -0.398263 
x,y,z [Debye]:    -0.655857     1.120806    -1.012304 

 

Dipole moment calculation done in   0.2 sec 

Maximum memory used throughout the entire PROP-calculation: 7.1 MB

--------------------------------
SUGGESTED CITATIONS FOR THIS RUN
--------------------------------

Below you find a list of papers that are relevant to this ORCA run
We neither can nor want to force you to cite these papers, but we appreciate if you do
You receive ORCA, which is the product of decades of hard work by many enthusiastic individuals, for free
The only thing we kindly ask in return is that you cite our papers,
We deeply appreciate it, if you show your appreciation for ORCA by not just citing the generic ORCA reference.

Please note that relegating all ORCA citations to the supporting information does *not* help us.
SI sections are not indexed - citations you put there will not count into any citation statistics
But we need these citations in order to attract the funding resources that allow us to do what we are doing

Therefore, if you are a happy ORCA user, please consider citing a few of the papers listed below in the main body of your paper

In addition to the list printed below, the program has created the file xtb_opt.bibtex that contains the list in bibtex format
You can import this file easily into all common literature databanks and citation aid programs


List of essential papers. We consider these as the minimum necessary citations

  1. Neese,F.
     Software update: the ORCA program system, version 5.0
     WIRES Comput. Molec. Sci., 2022 12(1)e1606
     doi.org/10.1002/wcms.1606
  2. Grimme,S.; Hansen,A.; Ehlert,S.; Mewes,J.
     r2SCAN-3c: A 'Swiss army knife' composite electronic-structure method
     J. Chem. Phys., 2021 154 064103
     doi.org/10.1063/5.0040021

List of papers to cite with high priority. The work reported in these papers was absolutely
necessary for this run to complete.
Our perspective: the developers of density functionals and basis sets usually get cited in chemistry papers
Good! But without the algorithms to do something with them, the functionals or basis sets would not do anything.
Hence, in our opinion, the algorithm design and method developments papers are equally worthy of getting cited

  1. Neese,F.
     An improvement of the resolution of the identity approximation for the formation of the Coulomb matrix
     J. Comp. Chem., 2003 24(14)1740-1747
     doi.org/10.1002/jcc.10318
  2. Neese,F.
     The SHARK Integral Generation and Digestion System
     J. Comp. Chem., 2022  1-16
     doi.org/10.1002/jcc.26942
  3. Lehtola,S.; Steigemann,C.; Oliveira,M.; Marques,M.
     Recent developments in Libxc - A comprehensive library of functionals for density functional theory
     Software X, 2018 7 
     doi.org/10.1016/j.softx.2017.11.002
  4. Caldeweyher,E.; Bannwarth,C.; Grimme,S.
     Extension of the D3 dispersion coefficient model
     J. Chem. Phys., 2017 147 034112
     doi.org/10.1063/1.4993215
  5. Caldeweyher,E.; Ehlert,S.; Hansen,A.; Neugebauer,H.; Spicher,S.; Bannwarth,C.; Grimme,S.
     A generally applicable atomic-charge dependent London dispersion correction
     J. Chem. Phys., 2019 150 154122
     doi.org/10.1063/1.5090222
  6. Caldeweyher,E.; Mewes,J.; Ehlert,S.; Grimme,S.
     Extension and evaluation of the D4 London-dispersion model for periodic systems
     Phys. Chem. Chem. Phys., 2020 22(16)8499-8512
     doi.org/10.1039/D0CP00502A
  7. Wittmann,L.; Gordiy,I.; Friede,M.; Helmich-Paris,B.; Grimme,S.; Hansen,A.; Bursch,M.
     Extension of the D3 and D4 London Dispersion Corrections to the full Actinides Series
     Phys. Chem. Chem. Phys., 2024 26(32)21379-21394
     doi.org/https://doi.org/10.1039/D4CP01514B 

List of suggested additional citations. These are papers that are important in the 'surrounding' of 
of this run, or papers that preceded the highly important papers. If you like your results we are grateful for a citation.

  1. Neese,F.
     The ORCA program system
     WIRES Comput. Molec. Sci., 2012 2(1)73-78
     doi.org/10.1002/wcms.81
  2. Neese,F.
     Software update: the ORCA program system, version 4.0
     WIRES Comput. Molec. Sci., 2018 8(1)1-6
     doi.org/10.1002/wcms.1327
  3. Neese,F.; Wennmohs,F.; Becker,U.; Riplinger,C.
     The ORCA quantum chemistry program package
     J. Chem. Phys., 2020 152 Art. No. L224108
     doi.org/10.1063/5.0004608

List of optional additional citations

  1. Neese,F.
     Approximate second-order SCF convergence for spin unrestricted wavefunctions
     Chem. Phys. Lett., 2000 325(1-3)93-98
     doi.org/10.1016/s0009-2614(00)00662-x

Timings for individual modules:

Sum of individual times          ...        5.818 sec (=   0.097 min)
Startup calculation              ...        0.416 sec (=   0.007 min)   7.2 %
SCF iterations                   ...        2.178 sec (=   0.036 min)  37.4 %
Property calculations            ...        0.226 sec (=   0.004 min)   3.9 %
SCF Gradient evaluation          ...        2.998 sec (=   0.050 min)  51.5 %
                             ****ORCA TERMINATED NORMALLY****
TOTAL RUN TIME: 0 days 0 hours 0 minutes 7 seconds 118 msec
  ------------------------------------------------------------------------
          * successful ORCA run, taking over control again...

         :::::::::::::::::::::::::::::::::::::::::::::::::::::
         ::                  ORCA SUMMARY                   ::
         :::::::::::::::::::::::::::::::::::::::::::::::::::::
         :: total energy            -194.299582779133 Eh    ::
         :: gradient norm              0.000465472386 Eh/a0 ::
         :: HOMO-LUMO gap              0.000000000000 eV    ::
         :::::::::::::::::::::::::::::::::::::::::::::::::::::

           -------------------------------------------------
          |                Property Printout                |
           -------------------------------------------------
           -------------------------------------------------
          |                Geometry Summary                 |
           -------------------------------------------------

      molecular mass/u    :       60.0951386
   center of mass at/Å    :       -0.0035676       0.0058266       0.0067246
  moments of inertia/u·Å² :        0.3581446E+02   0.9994743E+02   0.1176947E+03
rotational constants/cm⁻¹ :        0.4706934E+00   0.1686650E+00   0.1432319E+00

 * 11 selected distances

     #   Z          #   Z                                           value/Å
     1   6 C        2   6 C                                       1.5268002 (max)
     2   6 C        3   6 C                                       1.5249342
     3   6 C        4   8 O                                       1.4311540
     1   6 C        5   1 H                                       1.0940155
     1   6 C        6   1 H                                       1.0933333
     1   6 C        7   1 H                                       1.0954411
     2   6 C        8   1 H                                       1.0981318
     2   6 C        9   1 H                                       1.0994427
     3   6 C       10   1 H                                       1.1014162
     3   6 C       11   1 H                                       1.0960129
     4   8 O       12   1 H                                       0.9636600 (min)

 * 4 distinct bonds (by element types)

   Z      Z             #   av. dist./Å        max./Å        min./Å
   1 H    6 C           7     1.0968276     1.1014162     1.0933333
   6 C    6 C           2     1.5258672     1.5268002     1.5249342
   1 H    8 O           1     0.9636600     0.9636600     0.9636600
   6 C    8 O           1     1.4311540     1.4311540     1.4311540


optimized geometry written to: xtbopt.coord


           -------------------------------------------------
          | TOTAL ENERGY             -194.299582779133 Eh   |
          | GRADIENT NORM               0.000465472386 Eh/α |
           -------------------------------------------------

------------------------------------------------------------------------
 * finished run on 2025/04/15 at 19:42:26.714     
------------------------------------------------------------------------
 total:
 * wall-time:     0 d,  0 h,  1 min, 52.523 sec
 *  cpu-time:     0 d,  0 h,  0 min,  7.171 sec
 * ratio c/w:     0.064 speedup
 SCF:
 * wall-time:     0 d,  0 h,  0 min,  8.515 sec
 *  cpu-time:     0 d,  0 h,  0 min,  1.292 sec
 * ratio c/w:     0.152 speedup
 ANC optimizer:
 * wall-time:     0 d,  0 h,  1 min, 43.833 sec
 *  cpu-time:     0 d,  0 h,  0 min,  4.350 sec
 * ratio c/w:     0.042 speedup

