15
 energy: -420.710469744258 gnorm: 0.025743496297 xtb: 6.7.1 (edcfbbe)
C           -0.78149338934630       -1.71313772065914        0.00005129110002
C            0.53819814843849       -1.30136172507667        0.00001253350001
C            0.83971263037210        0.05976665352648       -0.00007981580004
C           -0.18991750448416        0.99945767194289       -0.00008709950004
C           -1.51236054627017        0.58134706005761       -0.00001486110001
C           -1.80422167409950       -0.78298029794696        0.00003528660002
O           -2.55045785683018        1.45467022544460        0.00000588320000
C            2.23882219159208        0.50171626882232       -0.00018779220008
O            3.20105236031847       -0.22226026499849        0.00021439750010
H           -1.02003077095200       -2.76576317132558        0.00007789190003
H            1.35073036749854       -2.01105518069115        0.00003785210002
H            0.04663241952066        2.05625358661118       -0.00013948100006
H           -2.83920488475813       -1.08587387418118        0.00004599050002
H           -2.22393287258548        2.36277509924701       -0.00001136230001
H            2.35758259094471        1.60508060921125       -0.00028462470013
15
 energy: -420.711097147773 gnorm: 0.007047536033 xtb: 6.7.1 (edcfbbe)
C           -0.78402621570657       -1.71589711887163        0.00002070917021
C            0.54203941877359       -1.31021649736776       -0.00000587761828
C            0.84129635496423        0.05380240770634       -0.00002118462192
C           -0.18552288106507        1.00037099382865       -0.00005691208053
C           -1.51280442710175        0.58375347835855       -0.00001418348891
C           -1.81110199274779       -0.78025982689133        0.00001912044374
O           -2.55879679335617        1.45482459840629       -0.00000507925317
C            2.24211723726659        0.51029525545544        0.00012548992962
O            3.20905496560333       -0.21948363832451        0.00013787302813
H           -1.02748452472917       -2.77200855378167        0.00006121475592
H            1.35744428891297       -2.02310517500240        0.00003261847635
H            0.05704933668734        2.06103338386316       -0.00010338558098
H           -2.85126863564635       -1.08402930151927        0.00004255164495
H           -2.23008722142935        2.36085713113725       -0.00001576546769
H            2.36320231820003        1.61869790811471       -0.00054113952513
15
 energy: -420.711151959259 gnorm: 0.002064037142 xtb: 6.7.1 (edcfbbe)
C           -0.78481636684928       -1.71664645882102        0.00009678952885
C            0.54359166253690       -1.31436919268402        0.00006346551193
C            0.84158278061269        0.05075707673284       -0.00014623574464
C           -0.18347642878432        1.00059607241849       -0.00014180372552
C           -1.51230253864633        0.58456049813568       -0.00002628268974
C           -1.81301259154532       -0.77873714488072        0.00005844564616
O           -2.56289973320197        1.45469204016717       -0.00000681580608
C            2.24293269213235        0.51410572036604       -0.00066667766298
O            3.21111765169226       -0.21602514649167        0.00019139745017
H           -1.03160155630695       -2.77348460079138        0.00011886632793
H            1.35935718749321       -2.02851088120726        0.00003614622539
H            0.06321594489114        2.06159432384552       -0.00022066604690
H           -2.85432246314557       -1.08323312633015        0.00009707770489
H           -2.23219360177593        2.35991838800719       -0.00004573412269
H            2.36393859919966        1.62341752091360        0.00026804374107
15
 energy: -420.711154730960 gnorm: 0.001125956828 xtb: 6.7.1 (edcfbbe)
C           -0.78484795523369       -1.71668576249676       -0.00007140890396
C            0.54376638253952       -1.31507448376158       -0.00007796606870
C            0.84140201336125        0.05016701245946        0.00021805357889
C           -0.18325297362434        1.00065679534258        0.00010162176630
C           -1.51208992211676        0.58460766495515       -0.00000832176856
C           -1.81298874100271       -0.77842119467562       -0.00003425959518
O           -2.56380840254271        1.45476787364294       -0.00006368904834
C            2.24300453833023        0.51463600920875        0.00126577620640
O            3.21152268171182       -0.21471995308705       -0.00018486125338
H           -1.03272806770271       -2.77331667560256       -0.00000739749340
H            1.35929092051158       -2.02937597014457        0.00005612249513
H            0.06504394863925        2.06115163635973        0.00008742991078
H           -2.85406819244170       -1.08334747899472       -0.00003317061427
H           -2.23204911995142        2.35970882796514       -0.00003874147974
H            2.36291412766022        1.62388083823393       -0.00153318765389
15
 energy: -420.711154545875 gnorm: 0.001359874289 xtb: 6.7.1 (edcfbbe)
C           -0.78484205899468       -1.71667222381267        0.00019132791059
C            0.54380203614064       -1.31576665753174        0.00016520256351
C            0.84100600203711        0.04946357807353       -0.00024358838562
C           -0.18310716724728        1.00059238590193       -0.00020337817558
C           -1.51170525710191        0.58448250056108       -0.00003983321860
C           -1.81265407867149       -0.77808787035789        0.00009871777476
O           -2.56472679284509        1.45494278290153       -0.00004535351343
C            2.24286104644147        0.51514958817559       -0.00150135007457
O            3.21196670110325       -0.21274376803680        0.00007628222111
H           -1.03424171230859       -2.77284645738680        0.00019865533819
H            1.35889713913357       -2.03020495208786        0.00005839917467
H            0.06752989265333        2.06021874227293       -0.00031980112817
H           -2.85324733368694       -1.08359264117138        0.00013408556550
H           -2.23122849330819        2.35942563017158       -0.00012361583113
H            2.36080131665693        1.62427447369161        0.00123022793045
15
 energy: -420.711156731744 gnorm: 0.000179658990 xtb: 6.7.1 (edcfbbe)
C           -0.78484906994080       -1.71670334090223        0.00006558924743
C            0.54359320143971       -1.31513299397080        0.00001024418532
C            0.84109524060329        0.04994587323961       -0.00010380670276
C           -0.18333340027721        1.00043318386951       -0.00010844064960
C           -1.51183999091135        0.58439212395683       -0.00002360018154
C           -1.81262894518790       -0.77839040656752        0.00004689025971
O           -2.56375379716934        1.45498588238043       -0.00001501151768
C            2.24265241175454        0.51473996482682       -0.00014539880563
O            3.21163793413450       -0.21356916983676        0.00006870415679
H           -1.03342174887079       -2.77301500172498        0.00011515929933
H            1.35890394760410       -2.02946184169178        0.00001365820900
H            0.06616671549674        2.06040246767340       -0.00016295189935
H           -2.85341823168757       -1.08355422660779        0.00008223547995
H           -2.23085459186480        2.35956826875777       -0.00005963632851
H            2.36116156177421        1.62399433868808       -0.00010764783693
15
 energy: -420.711156731744 gnorm: 0.000179658990 xtb: 6.7.1 (edcfbbe)
C           -0.78484906994080       -1.71670334090223        0.00006558924743
C            0.54359320143971       -1.31513299397080        0.00001024418532
C            0.84109524060329        0.04994587323961       -0.00010380670276
C           -0.18333340027721        1.00043318386951       -0.00010844064960
C           -1.51183999091135        0.58439212395683       -0.00002360018154
C           -1.81262894518790       -0.77839040656752        0.00004689025971
O           -2.56375379716934        1.45498588238043       -0.00001501151768
C            2.24265241175454        0.51473996482682       -0.00014539880563
O            3.21163793413450       -0.21356916983676        0.00006870415679
H           -1.03342174887079       -2.77301500172498        0.00011515929933
H            1.35890394760410       -2.02946184169178        0.00001365820900
H            0.06616671549674        2.06040246767340       -0.00016295189935
H           -2.85341823168757       -1.08355422660779        0.00008223547995
H           -2.23085459186480        2.35956826875777       -0.00005963632851
H            2.36116156177421        1.62399433868808       -0.00010764783693
