      -----------------------------------------------------------      
     |                   =====================                   |     
     |                           x T B                           |     
     |                   =====================                   |     
     |                         S. Grimme                         |     
     |          Mulliken Center for Theoretical Chemistry        |     
     |                    University of Bonn                     |     
      -----------------------------------------------------------      

   * xtb version 6.7.1 (edcfbbe) compiled by 'albert@albert-system' on 2024-07-22

   xtb is free software: you can redistribute it and/or modify it under
   the terms of the GNU Lesser General Public License as published by
   the Free Software Foundation, either version 3 of the License, or
   (at your option) any later version.
   
   xtb is distributed in the hope that it will be useful,
   but WITHOUT ANY WARRANTY; without even the implied warranty of
   MERCHANTABILITY or FITNESS FOR A PARTICULAR PURPOSE.  See the
   GNU Lesser General Public License for more details.
   
   Cite this work as:
   * C. Bannwarth, E. Caldeweyher, S. Ehlert, A. Hansen, P. Pracht,
     J. Seibert, S. Spicher, S. Grimme, WIREs Comput. Mol. Sci., 2020, 11,
     e01493. DOI: 10.1002/wcms.1493
   
   for GFN2-xTB:
   * C. Bannwarth, S. Ehlert and S. Grimme., J. Chem. Theory Comput., 2019,
     15, 1652-1671. DOI: 10.1021/acs.jctc.8b01176
   for GFN1-xTB:
   * S. Grimme, C. Bannwarth, P. Shushkov, J. Chem. Theory Comput., 2017,
     13, 1989-2009. DOI: 10.1021/acs.jctc.7b00118
   for GFN0-xTB:
   * P. Pracht, E. Caldeweyher, S. Ehlert, S. Grimme, ChemRxiv, 2019, preprint.
     DOI: 10.26434/chemrxiv.8326202.v1
   for GFN-FF:
   * S. Spicher and S. Grimme, Angew. Chem. Int. Ed., 2020, 59, 15665-15673.
     DOI: 10.1002/anie.202004239
   
   for ALPB and GBSA implicit solvation:
   * S. Ehlert, M. Stahn, S. Spicher, S. Grimme, J. Chem. Theory Comput.,
     2021, 17, 4250-4261. DOI: 10.1021/acs.jctc.1c00471
   
   for ddCOSMO and CPCM-X implicit solvation:
   * M. Stahn, S. Ehlert, S. Grimme, J. Phys. Chem. A,
     2023, XX, XXXX-XXXX. DOI: 10.1021/acs.jpca.3c04382
   
   for DFT-D4:
   * E. Caldeweyher, C. Bannwarth and S. Grimme, J. Chem. Phys., 2017,
     147, 034112. DOI: 10.1063/1.4993215
   * E. Caldeweyher, S. Ehlert, A. Hansen, H. Neugebauer, S. Spicher,
     C. Bannwarth and S. Grimme, J. Chem. Phys., 2019, 150, 154122.
     DOI: 10.1063/1.5090222
   * E. Caldeweyher, J.-M. Mewes, S. Ehlert and S. Grimme, Phys. Chem. Chem. Phys.
     2020, 22, 8499-8512. DOI: 10.1039/D0CP00502A
   
   for sTDA-xTB:
   * S. Grimme and C. Bannwarth, J. Chem. Phys., 2016, 145, 054103.
     DOI: 10.1063/1.4959605
   
   in the mass-spec context:
   * V. Asgeirsson, C. Bauer and S. Grimme, Chem. Sci., 2017, 8, 4879.
     DOI: 10.1039/c7sc00601b
   * J. Koopman and S. Grimme, ACS Omega 2019, 4, 12, 15120-15133.
     DOI: 10.1021/acsomega.9b02011
   
   for metadynamics refer to:
   * S. Grimme, J. Chem. Theory Comput., 2019, 155, 2847-2862
     DOI: 10.1021/acs.jctc.9b00143
   
   for SPH calculations refer to:
   * S. Spicher and S. Grimme, J. Chem. Theory Comput., 2021, 17, 1701-1714
     DOI: 10.1021/acs.jctc.0c01306
   
   for ONIOM refer to:
   * C. Plett, A. Katbashev, S. Ehlert, S. Grimme, M. Bursch,
     Phys. Chem. Chem. Phys., 2023, 25, 17860-17868. DOI: 10.1039/D3CP02178E
   
   for DIPRO refer to:
   * J. Kohn, N. Gildemeister, S. Grimme, D. Fazzi, A. Hansen,
     J. Chem. Phys., 2023, just accepted.
   
   for PTB refer to:
   * S. Grimme, M. Mueller, A. Hansen, J. Chem. Phys., 2023, 158, 124111.
     DOI: 10.1063/5.0137838
   
   with help from (in alphabetical order)
   P. Atkinson, C. Bannwarth, F. Bohle, G. Brandenburg, E. Caldeweyher
   M. Checinski, S. Dohm, S. Ehlert, S. Ehrlich, I. Gerasimov, C. Hölzer
   A. Katbashev, J. Kohn, J. Koopman, C. Lavigne, S. Lehtola, F. März, M. Müller,
   F. Musil, H. Neugebauer, J. Pisarek, C. Plett, P. Pracht, F. Pultar,
   J. Seibert, P. Shushkov, S. Spicher, M. Stahn, M. Steiner, T. Strunk,
   J. Stückrath, T. Rose, and J. Unsleber
   
 * started run on 2025/04/15 at 19:44:56.082     
   ID    Z sym.   atoms
    1    6 C      1, 3, 5-10
    2    8 O      2, 4
    3    1 H      11-18

           -------------------------------------------------
          |                Calculation Setup                |
           -------------------------------------------------

          program call               : /software/projects/pawsey0265/mwang1/xtb/bin/xtb xtb_opt.coord --opt normal --orca -I xtb_opt-xcontrol-inp
          hostname                   : nid002795
          coordinate file            : xtb_opt.coord
          omp threads                :                    12

           -------------------------------------------------
          |                   Orca driver                   |
           -------------------------------------------------
orca executable           : /software/projects/pawsey0265/mwang1/orca_avx2/orca
orca input file           : xtb_opt.inp
orca input line           : 
orca parallel             : true
orca number of threads    : 12
                         * ORCA takes the control...
  ------------------------------------------------------------------------

                                 *****************
                                 * O   R   C   A *
                                 *****************

                                            #,                                       
                                            ###                                      
                                            ####                                     
                                            #####                                    
                                            ######                                   
                                           ########,                                 
                                     ,,################,,,,,                         
                               ,,#################################,,                 
                          ,,##########################################,,             
                       ,#########################################, ''#####,          
                    ,#############################################,,   '####,        
                  ,##################################################,,,,####,       
                ,###########''''           ''''###############################       
              ,#####''   ,,,,##########,,,,          '''####'''          '####       
            ,##' ,,,,###########################,,,                        '##       
           ' ,,###''''                  '''############,,,                           
         ,,##''                                '''############,,,,        ,,,,,,###''
      ,#''                                            '''#######################'''  
     '                                                          ''''####''''         
             ,#######,   #######,   ,#######,      ##                                
            ,#'     '#,  ##    ##  ,#'     '#,    #''#        ,####,   ,####,        
            ##       ##  ##   ,#'  ##            #'  '#       #'       #'  '#        
            ##       ##  #######   ##           ,######,      #####,   #    #        
            '#,     ,#'  ##    ##  '#,     ,#' ,#      #,     #,   #   #,  ,#        
             '#######'   ##     ##  '#######'  #'      '#     '####' # '####'        



                #########################################################
                #                        -***-                          #
                #          Department of theory and spectroscopy        #
                #                                                       #
                #                      Frank Neese                      #
                #                                                       #
                #     Directorship, Architecture, Infrastructure        #
                #                    SHARK, DRIVERS                     #
                #        Core code/Algorithms in most modules           #
                #                                                       #
                #        Max Planck Institute fuer Kohlenforschung      #
                #                Kaiser Wilhelm Platz 1                 #
                #                 D-45470 Muelheim/Ruhr                 #
                #                      Germany                          #
                #                                                       #
                #                  All rights reserved                  #
                #                        -***-                          #
                #########################################################


                         Program Version 6.0.1  -  RELEASE   -


 With contributions from (in alphabetic order):
[Max-Planck-Institut fuer Kohlenforschung]                               
  Daniel Aravena         : Magnetic Suceptibility                        
  Michael Atanasov       : Ab Initio Ligand Field Theory (pilot matlab implementation)
  Alexander A. Auer      : GIAO ZORA, VPT2 properties, NMR spectrum      
  Ute Becker             : All parallelization in ORCA, NUMFREQ, NUMCALC 
  Giovanni Bistoni       : ED, misc. LED, open-shell LED, HFLD           
  Martin Brehm           : Molecular dynamics                            
  Dmytro Bykov           : pre 5.0 version of the SCF Hessian            
  Marcos Casanova-Páez   : Triplet and SCS-CIS(D). UHF-(DLPNO)-IP/EA/STEOM-CCSD. UHF-CVS-IP/STEOM-CCSD   
  Vijay G. Chilkuri      : MRCI spin determinant printing, contributions to CSF-ICE 
  Pauline Colinet        : FMM embedding                                 
  Dipayan Datta          : RHF DLPNO-CCSD density                        
  Achintya Kumar Dutta   : EOM-CC, STEOM-CC                              
  Nicolas Foglia         : Exact transition moments, OPA infrastructure, MCD improvements    
  Dmitry Ganyushin       : Spin-Orbit,Spin-Spin,Magnetic field MRCI      
  Miquel Garcia-Rates    : C-PCM and meta-GGA Hessian, CCSD/C-PCM, Gaussian charge scheme 
  Tiago L. C. Gouveia    : GS-ROHF, GS-ROCIS                             
  Yang Guo               : DLPNO-NEVPT2, F12-NEVPT2, CIM, IAO-localization        
  Andreas Hansen         : Spin unrestricted coupled pair/coupled cluster methods 
  Ingolf Harden          : AUTO-CI MPn and infrastructure                
  Benjamin Helmich-Paris : MC-RPA, TRAH-(SCF,CASSCF), AVAS, COSX integrals, SCF dyn. polar. 
  Lee Huntington         : MR-EOM, pCC                                   
  Robert Izsak           : Overlap fitted RIJCOSX, COSX-SCS-MP3, EOM     
  Riya Kayal             : Wick's Theorem for AUTO-CI, AUTO-CI UHF-CCSDT 
  Emily Kempfer          : AUTO-CI, RHF CISDT and CCSDT                  
  Christian Kollmar      : KDIIS, OOCD, Brueckner-CCSD(T), CCSD density, CASPT2, CASPT2-K, improved NEVPT2 
  Axel Koslowski         : Symmetry handling                             
  Simone Kossmann        : meta-GGA functionals, TD-DFT gradient, OOMP2, (MP2 Hessian; deprecated post 5.0) 
  Lucas Lang             : DCDCAS                                        
  Marvin Lechner         : AUTO-CI (C++ implementation), FIC-MRCC        
  Spencer Leger          : CASSCF response                               
  Dagmar Lenk            : GEPOL surface, SMD, ORCA-2-JSON               
  Dimitrios Liakos       : Extrapolation schemes; Compound Job, initial MDCI parallelization 
  Dimitrios Manganas     : Further ROCIS development; embedding schemes. LFT, Crystal Embedding 
  Dimitrios Pantazis     : SARC Basis sets                               
  Anastasios Papadopoulos: AUTO-CI, single reference methods and gradients 
  Taras Petrenko         : pre 6.0 DFT Hessian and TD-DFT gradient, (ASA, deprecated), ECA, 1-Electron XAS/XES, NRVS 
  Peter Pinski           : DLPNO-MP2, DLPNO-MP2 Gradient                 
  Christoph Reimann      : Effective Core Potentials                     
  Marius Retegan         : Local ZFS, SOC                                
  Christoph Riplinger    : Optimizer, TS searches, QM/MM, DLPNO-CCSD(T), (RO)-DLPNO pert. Triples 
  Michael Roemelt        : Original ROCIS implementation                 
  Masaaki Saitow         : Open-shell DLPNO-CCSD energy and density      
  Barbara Sandhoefer     : DKH picture change effects                    
  Kantharuban Sivalingam : CASSCF convergence/infrastructure, NEVPT2 and variants, FIC-MRCI 
  Bernardo de Souza      : ESD, SOC TD-DFT                               
  Georgi L. Stoychev     : AutoAux, RI-MP2 NMR, DLPNO-MP2 response, X2C  
  Van Anh Tran           : RI-MP2 g-tensors                              
  Willem Van den Heuvel  : Paramagnetic NMR                              
  Zikuan Wang            : NOTCH, Electric field optimization            
  Frank Wennmohs         : Technical directorship and infrastructure     
  Hang Xu                : AUTO-CI-Response properties                   
                                                                         
[FACCTs GmbH]                                                            
  Markus Bursch, Miquel Garcia-Rates, Christoph Riplinger, Bernardo de Souza, Georgi L. Stoychev 
                                                                 
  APM, Basis sets (HGBS, AHGBS, def-TZVP (Ac-Lr), def2-XVPD (La-Lu)), CI-OPT, improved COSX, DLPNO-Multilevel,           
  DOCKER, DRACO, updates on ESD, GOAT, IRC, LR-CPCM, MBIS, meta-GGA TD-DFT gradient, ML-optimized integration grids, 
  MM, NACMEs, nearIR, NEB, NEB-TS, NL-DFT gradient (VV10), 2- and 3-layer-ONIOM, interface openCOSMO-RS, QMMM,   
  Crystal-QMMM, SF, symmetry and pop. for TD-DFT, r2SCAN hybrids, SOLVATOR                                   
                                                                         
[Other institutions]                                                     
  V. Asgeirsson          : NEB                                           
  Christoph Bannwarth    : sTDA-DFT, sTD-DFT, PBEh-3c, B97-3c, D3        
  Sebastian Ehlert       : rSCAN, r2SCAN, r2SCAN-3c, D4, dhf basis sets  
  Marvin Friede          : D4 for Fr, Ra, Ac-Lr                          
  Lars Goerigk           : TD-DFT with DH, B97 family of functionals     
  Stefan Grimme          : VdW corrections, initial TS optimization, DFT functionals, gCP, sTDA/sTD-DF 
  Waldemar Hujo          : DFT-NL                                        
  H. Jonsson             : NEB                                           
  Holger Kruse           : gCP                                           
  Marcel Mueller         : wB97X-3c, vDZP basis set                      
  Hagen Neugebauer       : wr2SCAN                                       
  Tobias Risthaus        : range-separated hybrid DFT                    
  Lukas Wittmann         : regularized MP2, r2SCAN double-hybrids, wr2SCAN        
                                                                         
We gratefully acknowledge several colleagues who have allowed us to      
interface, adapt or use parts of their codes:                            
  Ed Valeev, F. Pavosevic, A. Kumar             : LibInt (2-el integral package), F12 methods 
  Garnet Chan, S. Sharma, J. Yang, R. Olivares  : DMRG                   
  Ulf Ekstrom                                   : XCFun DFT Library      
  Mihaly Kallay                                 : mrcc  (arbitrary order and MRCC methods)
  Frank Weinhold                                : gennbo (NPA and NBO analysis)           
  Simon Mueller                                 : openCOSMO-RS                            
  Christopher J. Cramer and Donald G. Truhlar   : smd solvation model                     
  S Lehtola, MJT Oliveira, MAL Marques          : LibXC Library                           
  Liviu Ungur et al                             : ANISO software                          


 Your calculation uses the libint2 library for the computation of 2-el integrals
 For citations please refer to: http://libint.valeyev.net

 Your ORCA version has been built with support for libXC version: 6.2.2
 For citations please refer to: https://libxc.gitlab.io

 This ORCA versions uses:
   CBLAS   interface :  Fast vector & matrix operations
   LAPACKE interface :  Fast linear algebra routines
   SCALAPACK package :  Parallel linear algebra routines
   Shared memory     :  Shared parallel matrices
   BLAS/LAPACK       :  OpenBLAS 0.3.27  USE64BITINT DYNAMIC_ARCH NO_AFFINITY Zen SINGLE_THREADED
        Core in use  :  Zen
   Copyright (c) 2011-2014, The OpenBLAS Project




***************************************
The coordinates will be read from file: xtb_opt.xyz
***************************************


Your calculation utilizes the geometrical counterpoise correction gCP
Please cite in your paper:
H.Kruse, S. Grimme J.Chem.Phys., 136, (2012), 154101 
   

Your calculation utilizes the atom-pairwise dispersion correction
based on EEQ partial charges (D4)


================================================================================

----- Orbital basis set information -----
Your calculation utilizes the basis: def2-mTZVPP
   Stefan Grimme, Andreas Hansen, Sebastian Ehlert, and Jan-Michael Mewes 
   J. Chem. Phys. 154, 064103 (2021). DOI: 10.1063/5.0040021

----- AuxJ basis set information -----
Your calculation utilizes the auxiliary basis: def2/J
   F. Weigend, Phys. Chem. Chem. Phys. 8, 1057 (2006).

================================================================================
                                        WARNINGS
                       Please study these warnings very carefully!
================================================================================



WARNING: SCAN, rSCAN, or r2SCAN functional requested.
  ===> : libXC variant has now been activated.



================================================================================
                                       INPUT FILE
================================================================================
NAME = xtb_opt.inp
|  1> ! r2scan-3c def2/J RI DEFGRID2 scfconv7 ENGRAD tightSCF miniprint
|  2> * xyzfile 0 1 xtb_opt.xyz
|  3> 
|  4>                          ****END OF INPUT****
================================================================================

                     *******************************
                     * Energy+Gradient Calculation *
                     *******************************

---------------------------------
CARTESIAN COORDINATES (ANGSTROEM)
---------------------------------
  C     -3.366547    0.606604    0.001285
  O     -1.957615    0.772239    0.000151
  C     -1.237139   -0.361504   -0.000629
  O     -1.741174   -1.458393   -0.000835
  C      0.223518   -0.110315   -0.000621
  C      0.750143    1.178659   -0.000938
  C      2.120637    1.360149   -0.000330
  C      2.969690    0.264401    0.000662
  C      2.448896   -1.020095    0.000838
  C      1.080262   -1.208856    0.000161
  H     -3.683144    0.053184    0.888003
  H     -3.684886    0.055547   -0.886240
  H     -3.790977    1.607300    0.003045
  H      0.082755    2.026024   -0.001726
  H      2.530471    2.359412   -0.000546
  H      4.039664    0.412541    0.001311
  H      3.111783   -1.872496    0.001546
  H      0.650222   -2.199054    0.000371

----------------------------
CARTESIAN COORDINATES (A.U.)
----------------------------
  NO LB      ZA    FRAG     MASS         X           Y           Z
   0 C     6.0000    0    12.011   -6.361852    1.146315    0.002428
   1 O     8.0000    0    15.999   -3.699357    1.459320    0.000286
   2 C     6.0000    0    12.011   -2.337855   -0.683144   -0.001189
   3 O     8.0000    0    15.999   -3.290343   -2.755964   -0.001578
   4 C     6.0000    0    12.011    0.422387   -0.208465   -0.001174
   5 C     6.0000    0    12.011    1.417565    2.227343   -0.001772
   6 C     6.0000    0    12.011    4.007424    2.570308   -0.000624
   7 C     6.0000    0    12.011    5.611901    0.499646    0.001250
   8 C     6.0000    0    12.011    4.627743   -1.927701    0.001583
   9 C     6.0000    0    12.011    2.041399   -2.284408    0.000304
  10 H     1.0000    0     1.008   -6.960133    0.100502    1.678083
  11 H     1.0000    0     1.008   -6.963425    0.104969   -1.674752
  12 H     1.0000    0     1.008   -7.163908    3.037356    0.005754
  13 H     1.0000    0     1.008    0.156384    3.828630   -0.003261
  14 H     1.0000    0     1.008    4.781897    4.458642   -0.001031
  15 H     1.0000    0     1.008    7.633858    0.779589    0.002477
  16 H     1.0000    0     1.008    5.880417   -3.538506    0.002921
  17 H     1.0000    0     1.008    1.228741   -4.155610    0.000702

------------------------------------------------------------------------------
                   ___                                                        
                  /   \      - P O W E R E D   B Y -                         
                 /     \                                                     
                 |  |  |   _    _      __       _____    __    __             
                 |  |  |  | |  | |    /  \     |  _  \  |  |  /  |          
                  \  \/   | |  | |   /    \    | | | |  |  | /  /          
                 / \  \   | |__| |  /  /\  \   | |_| |  |  |/  /          
                |  |  |   |  __  | /  /__\  \  |    /   |      \           
                |  |  |   | |  | | |   __   |  |    \   |  |\   \          
                \     /   | |  | | |  |  |  |  | |\  \  |  | \   \       
                 \___/    |_|  |_| |__|  |__|  |_| \__\ |__|  \__/        
                                                                              
                      - O R C A' S   B I G   F R I E N D -                    
                                      &                                       
                       - I N T E G R A L  F E E D E R -                       
                                                                              
 v1 FN, 2020, v2 2021, v3 2022-2024                                           
------------------------------------------------------------------------------


----------------------
SHARK INTEGRAL PACKAGE
----------------------

Number of atoms                             ...     18
Number of basis functions                   ...    240
Number of shells                            ...    116
Maximum angular momentum                    ...      2
Integral batch strategy                     ... SHARK/LIBINT Hybrid
RI-J (if used) integral strategy            ... SPLIT-RIJ (Revised 2003 algorithm where possible)
Printlevel                                  ...      1
Contraction scheme used                     ... SEGMENTED contraction
Prescreening option                         ... SCHWARTZ
   Thresh                                   ... 3.000e-11
   Tcut                                     ... 1.000e-12
   Tpresel                                  ... 1.000e-12 
Coulomb Range Separation                    ... NOT USED
Exchange Range Separation                   ... NOT USED
Multipole approximations                    ... NOT USED
Finite Nucleus Model                        ... NOT USED
CABS basis                                  ... NOT available
Auxiliary Coulomb fitting basis             ... AVAILABLE
   # of basis functions in Aux-J            ...    578
   # of shells in Aux-J                     ...    190
   Maximum angular momentum in Aux-J        ...      4
Auxiliary J/K fitting basis                 ... NOT available
Auxiliary Correlation fitting basis         ... NOT available
Auxiliary 'external' fitting basis          ... NOT available

Checking pre-screening integrals            ... done (  0.0 sec) Dimension = 116
Check shell pair data                       ... done (  0.0 sec)
Shell pair information
Shell pair cut-off parameter TPreSel        ...   1.0e-12
Total number of shell pairs                 ...      6786
Shell pairs after pre-screening             ...      5868
Total number of primitive shell pairs       ...     24997
Primitive shell pairs kept                  ...     15047
          la=0 lb=0:   1831 shell pairs
          la=1 lb=0:   2196 shell pairs
          la=1 lb=1:    669 shell pairs
          la=2 lb=0:    689 shell pairs
          la=2 lb=1:    412 shell pairs
          la=2 lb=2:     71 shell pairs

Calculating one electron integrals          ... done (  0.0 sec)
Calculating RI/J V-Matrix + Cholesky decomp.... done (  0.0 sec)
Calculating Nuclear repulsion               ... done (  0.0 sec) ENN=    491.949633771203 Eh

Diagonalization of the overlap matrix:
Smallest eigenvalue                        ... 3.148e-05
Time for diagonalization                   ...    0.005 sec
Threshold for overlap eigenvalues          ... 1.000e-07
Number of eigenvalues below threshold      ... 0
Time for construction of square roots      ...    0.005 sec
Total time needed                          ...    0.011 sec

-------------------
DFT GRID GENERATION
-------------------

General Integration Accuracy     IntAcc      ... 4.388
Radial Grid Type                 RadialGrid  ... OptM3 with GC (2021)
Angular Grid (max. ang.)         AngularGrid ... 4 (Lebedev-302)
Angular grid pruning method      GridPruning ... 4 (adaptive)
Weight generation scheme         WeightScheme... mBecke (2022)
Basis function cutoff            BFCut       ... 1.0000e-11
Integration weight cutoff        WCut        ... 1.0000e-14
Partially contracted basis set               ... off
Rotationally invariant grid construction     ... off
Angular grids for H and He will be reduced by one unit
Diffuse basis detected: some atoms will have their outermost
                        angular grid increased by 1.

Total number of grid points                  ...    86600
Total number of batches                      ...     1362
Average number of points per batch           ...       63
Average number of grid points per atom       ...     4811
Initializing property integral containers    ... done (  0.0 sec)

SHARK setup successfully completed in   0.9 seconds

Maximum memory used throughout the entire STARTUP-calculation: 41.1 MB
Occupation numbers will be reassigned to an Aufbau configuration
             **** ENERGY FILE WAS UPDATED (xtb_opt.en.tmp) ****
Finished Guess after   0.1 sec
Maximum memory used throughout the entire GUESS-calculation: 17.7 MB
----------------------------------------D-I-I-S--------------------------------------------
Iteration    Energy (Eh)           Delta-E    RMSDP     MaxDP     DIISErr   Damp  Time(sec)
-------------------------------------------------------------------------------------------
               ***  Starting incremental Fock matrix formation  ***
                              *** Initializing SOSCF ***
---------------------------------------S-O-S-C-F--------------------------------------
Iteration    Energy (Eh)           Delta-E    RMSDP     MaxDP     MaxGrad    Time(sec)
--------------------------------------------------------------------------------------
    1    -460.0288443338601496     0.00e+00  1.09e-05  2.36e-04  6.32e-05     2.2
               *** Restarting incremental Fock matrix formation ***
    2    -460.0288441159790978     2.18e-07  2.36e-05  5.38e-04  1.47e-04     2.1
    3    -460.0288409601308217     3.16e-06  1.81e-05  4.36e-04  4.68e-04     1.6
    4    -460.0288446109524898    -3.65e-06  4.63e-06  1.24e-04  2.29e-05     1.6
                  *** Gradient check signals convergence ***

               *****************************************************
               *                     SUCCESS                       *
               *           SCF CONVERGED AFTER   4 CYCLES          *
               *****************************************************

             **** ENERGY FILE WAS UPDATED (xtb_opt.en.tmp) ****

----------------
TOTAL SCF ENERGY
----------------

Total Energy       :       -460.02884461095249 Eh          -12518.02127 eV

Components:
Nuclear Repulsion  :        491.94963377120274 Eh           13386.63010 eV
Electronic Energy  :       -951.97847838215523 Eh          -25904.65136 eV
One Electron Energy:      -1599.56695217970469 Eh          -43526.42961 eV
Two Electron Energy:        647.58847379754945 Eh           17621.77825 eV

Virial components:
Potential Energy   :       -918.31032189565587 Eh          -24988.49425 eV
Kinetic Energy     :        458.28147728470339 Eh           12470.47298 eV
Virial Ratio       :          2.00381286919254

DFT components:
N(Alpha)           :       35.999997253361 electrons
N(Beta)            :       35.999997253361 electrons
N(Total)           :       71.999994506722 electrons
E(X)               :      -61.099169884110 Eh       
E(C)               :       -2.343822496573 Eh       
E(XC)              :      -63.442992380683 Eh       

---------------
SCF CONVERGENCE
---------------

  Last Energy change         ...    3.6508e-06  Tolerance :   1.0000e-07
  Last MAX-Density change    ...    1.2357e-04  Tolerance :   1.0000e-07
  Last RMS-Density change    ...    4.6313e-06  Tolerance :   5.0000e-09
  Last DIIS Error            ...    2.8416e-04  Tolerance :   1.0000e-07
  Last Orbital Gradient      ...    2.2859e-05  Tolerance :   1.0000e-04
  Last Orbital Rotation      ...    1.3687e-04  Tolerance :   1.0000e-04


----------------
ORBITAL ENERGIES
----------------

  NO   OCC          E(Eh)            E(eV) 
   0   2.0000     -19.001076      -517.0456 
   1   2.0000     -18.934268      -515.2276 
   2   2.0000     -10.157563      -276.4013 
   3   2.0000     -10.086760      -274.4747 
   4   2.0000     -10.055736      -273.6305 
   5   2.0000     -10.049112      -273.4502 
   6   2.0000     -10.048313      -273.4285 
   7   2.0000     -10.046333      -273.3746 
   8   2.0000     -10.045954      -273.3643 
   9   2.0000     -10.045428      -273.3500 
  10   2.0000      -1.076111       -29.2825 
  11   2.0000      -0.983929       -26.7741 
  12   2.0000      -0.840218       -22.8635 
  13   2.0000      -0.749073       -20.3833 
  14   2.0000      -0.728259       -19.8169 
  15   2.0000      -0.693795       -18.8791 
  16   2.0000      -0.604168       -16.4402 
  17   2.0000      -0.585112       -15.9217 
  18   2.0000      -0.539898       -14.6914 
  19   2.0000      -0.511865       -13.9285 
  20   2.0000      -0.462691       -12.5905 
  21   2.0000      -0.454507       -12.3678 
  22   2.0000      -0.448589       -12.2067 
  23   2.0000      -0.425582       -11.5807 
  24   2.0000      -0.415418       -11.3041 
  25   2.0000      -0.401256       -10.9187 
  26   2.0000      -0.389859       -10.6086 
  27   2.0000      -0.380718       -10.3599 
  28   2.0000      -0.346105        -9.4180 
  29   2.0000      -0.336379        -9.1533 
  30   2.0000      -0.329815        -8.9747 
  31   2.0000      -0.317305        -8.6343 
  32   2.0000      -0.277904        -7.5621 
  33   2.0000      -0.249412        -6.7868 
  34   2.0000      -0.248041        -6.7496 
  35   2.0000      -0.245275        -6.6743 
  36   0.0000      -0.076481        -2.0812 
  37   0.0000      -0.041184        -1.1207 
  38   0.0000       0.025091         0.6828 
  39   0.0000       0.062685         1.7058 
  40   0.0000       0.093108         2.5336 
  41   0.0000       0.099290         2.7018 
  42   0.0000       0.122414         3.3311 
  43   0.0000       0.127857         3.4792 
  44   0.0000       0.128298         3.4912 
  45   0.0000       0.131852         3.5879 
  46   0.0000       0.145753         3.9661 
*Only the first 10 virtual orbitals were printed.
Total SCF time: 0 days 0 hours 0 min 8 sec 
Finished LeanSCF after   8.3 sec

Maximum memory used throughout the entire LEANSCF-calculation: 27.0 MB


-------------------------------------------------------------------------------
                          DFT DISPERSION CORRECTION                            
                                                                               
                                DFTD4 V3.4.0                                   
-------------------------------------------------------------------------------
-------------------------   ----------------
Dispersion correction           -0.005886827
-------------------------   ----------------

------------------   -----------------
gCP correction             0.008418422
------------------   -----------------

-------------------------   --------------------
FINAL SINGLE POINT ENERGY      -460.026313015428
-------------------------   --------------------

------------------------------------------------------------------------------
                         ORCA SCF GRADIENT CALCULATION
------------------------------------------------------------------------------

Nuc. rep. gradient        (SHARK) ... done (  0.0 sec)
HCore & Overlap gradient  (SHARK) ... done (  0.3 sec)
Split-RIJ-J gradient      (SHARK) ... done (  1.8 sec)
XC gradient                       ... done (  6.4 sec)
Dispersion correction             ... done (  0.0 sec)

-------------------
DISPERSION GRADIENT
-------------------

   1   C   :   -0.000088178    0.000008695    0.000000051
   2   O   :   -0.000078896    0.000024795    0.000000004
   3   C   :   -0.000087058   -0.000018684   -0.000000030
   4   O   :   -0.000064811   -0.000065293   -0.000000039
   5   C   :    0.000009305   -0.000012729   -0.000000048
   6   C   :    0.000034807    0.000065858   -0.000000064
   7   C   :    0.000069924    0.000066116   -0.000000017
   8   C   :    0.000085967    0.000011506    0.000000033
   9   C   :    0.000079008   -0.000047378    0.000000045
  10   C   :    0.000036280   -0.000067568    0.000000004
  11   H   :   -0.000028973    0.000004368    0.000004399
  12   H   :   -0.000028964    0.000004378   -0.000004373
  13   H   :   -0.000030826    0.000013612    0.000000033
  14   H   :    0.000001590    0.000044302   -0.000000043
  15   H   :    0.000022197    0.000036884   -0.000000008
  16   H   :    0.000037117    0.000005083    0.000000021
  17   H   :    0.000030328   -0.000029558    0.000000027
  18   H   :    0.000001184   -0.000044387    0.000000005

Difference to translation invariance:
           :    0.0000000000   -0.0000000000   -0.0000000000

Difference to rotation invariance:
           :    0.0000000000   -0.0000000000    0.0000000000

Norm of the Dispersion gradient    ...    0.0002826821
RMS gradient                       ...    0.0000384682
MAX gradient                       ...    0.0000881781
gCP correction                   ... done

------------------
CARTESIAN GRADIENT
------------------

   1   C   :    0.009162973    0.004448669   -0.000018357
   2   O   :   -0.009281114   -0.012134352    0.000002506
   3   C   :   -0.003990202    0.001610853   -0.000020021
   4   O   :    0.003590890    0.009743256    0.000011081
   5   C   :    0.002454590   -0.000892315    0.000001943
   6   C   :    0.002089242   -0.001082585    0.000009912
   7   C   :   -0.001849354   -0.003062547   -0.000002053
   8   C   :   -0.003102466   -0.000982374    0.000000553
   9   C   :   -0.001152463    0.002108598    0.000000251
  10   C   :    0.003223369    0.001872760   -0.000000738
  11   H   :    0.001278205    0.000478922   -0.000942992
  12   H   :    0.001284248    0.000489062    0.000961125
  13   H   :    0.000441930   -0.002065611    0.000002250
  14   H   :    0.001620085   -0.002779647   -0.000005403
  15   H   :   -0.001340206   -0.003429402    0.000001586
  16   H   :   -0.003708839   -0.000543553    0.000001519
  17   H   :   -0.002125618    0.003037958   -0.000002824
  18   H   :    0.001404730    0.003182309   -0.000000339

Difference to translation invariance:
           :   -0.0000000000   -0.0000000000    0.0000000000

Difference to rotation invariance:
           :    0.0000028558    0.0000038098    0.0003862763

Norm of the Cartesian gradient     ...    0.0243460141
RMS gradient                       ...    0.0033130729
MAX gradient                       ...    0.0121343519

-------
TIMINGS
-------

Total SCF gradient time     ....        8.462 sec

Densities                   ....       0.001 sec  (  0.0%)
One electron gradient       ....       0.275 sec  (  3.2%)
RI-J Coulomb gradient       ....       1.784 sec  ( 21.1%)
XC gradient                 ....       6.366 sec  ( 75.2%)

Maximum memory used throughout the entire SCFGRAD-calculation: 38.0 MB

------------------------------------------------------------------------------
                              ORCA PROPERTY CALCULATIONS
------------------------------------------------------------------------------

GBWName                                 ... xtb_opt.gbw
Number of atoms                         ...     18
Number of basis functions               ...    240
Max core memory                         ...   1024 MB

Electric properties:
Dipole moment                           ... YES
Quadrupole moment                       ...  NO
Static polarizability (Dipole/Dipole)   ...  NO
Static polarizability (Dipole/Quad.)    ...  NO
Static polarizability (Quad./Quad.)     ...  NO
Static polarizability (Velocity)        ...  NO

Atomic electric properties:
Dipole moment                           ...  NO
Quadrupole moment                       ...  NO
Static polarizability                   ...  NO

Choice of electric origin               ... Center of mass
Position of electric origin             ...     0.000020     0.000007     0.000000

General magnetic properties:
Magnetizability                         ...  NO

EPR properties:
g-Tensor (aka g-matrix)                 ...  NO
Zero-Field splitting spin-orbit         ...  NO
Zero-field splitting spin-spin          ...  NO
Hyperfine couplings                     ...  NO (   0 nuclei)
Quadrupole couplings                    ...  NO (   0 nuclei)
Contact density                         ...  NO (   0 nuclei)

NMR properties:
Chemical shifts                         ...  NO (   0 nuclei)
Spin-rotation constants                 ...  NO (   0 nuclei)
Spin-spin couplings                     ...  NO (   0 nuclei,    0 pairs)

Choice of magnetic origin               ... GIAO
Position of magnetic origin             ...     0.000000     0.000000     0.000000

Properties with geometric perturbations:
SCF Hessian                             ...  NO
IR spectrum                             ...  NO
VCD spectrum                            ...  NO
X-ray spectroscopy properties:
SCF XES/XAS/RIXS spectra                ...  NO


-------------
DIPOLE MOMENT
-------------

Method             : SCF
Type of density    : Electron Density
Multiplicity       :   1
Irrep              :   0
Energy             :  -460.0288446109524898 Eh
Relativity type    : 
Basis              : AO
                                X                 Y                 Z
Electronic contribution:      1.020434150      -1.552090270      -0.004454908
Nuclear contribution   :     -0.752889327       2.281278182       0.005397530
                        -----------------------------------------
Total Dipole Moment    :      0.267544824       0.729187912       0.000942622
                        -----------------------------------------
Magnitude (a.u.)       :      0.776721400
Magnitude (Debye)      :      1.974268900



--------------------
Rotational spectrum 
--------------------
 
Rotational constants in cm-1:             0.118693             0.028370             0.022996 
Rotational constants in MHz :          3558.312267           850.511877           689.410023 

Dipole components along the rotational axes: 
x,y,z [a.u.] :     0.267543    -0.729189     0.000943 
x,y,z [Debye]:     0.680041    -1.853450     0.002396 

 

Dipole moment calculation done in   0.0 sec 

Maximum memory used throughout the entire PROP-calculation: 16.6 MB

--------------------------------
SUGGESTED CITATIONS FOR THIS RUN
--------------------------------

Below you find a list of papers that are relevant to this ORCA run
We neither can nor want to force you to cite these papers, but we appreciate if you do
You receive ORCA, which is the product of decades of hard work by many enthusiastic individuals, for free
The only thing we kindly ask in return is that you cite our papers,
We deeply appreciate it, if you show your appreciation for ORCA by not just citing the generic ORCA reference.

Please note that relegating all ORCA citations to the supporting information does *not* help us.
SI sections are not indexed - citations you put there will not count into any citation statistics
But we need these citations in order to attract the funding resources that allow us to do what we are doing

Therefore, if you are a happy ORCA user, please consider citing a few of the papers listed below in the main body of your paper

In addition to the list printed below, the program has created the file xtb_opt.bibtex that contains the list in bibtex format
You can import this file easily into all common literature databanks and citation aid programs


List of essential papers. We consider these as the minimum necessary citations

  1. Neese,F.
     Software update: the ORCA program system, version 5.0
     WIRES Comput. Molec. Sci., 2022 12(1)e1606
     doi.org/10.1002/wcms.1606
  2. Grimme,S.; Hansen,A.; Ehlert,S.; Mewes,J.
     r2SCAN-3c: A 'Swiss army knife' composite electronic-structure method
     J. Chem. Phys., 2021 154 064103
     doi.org/10.1063/5.0040021

List of papers to cite with high priority. The work reported in these papers was absolutely
necessary for this run to complete.
Our perspective: the developers of density functionals and basis sets usually get cited in chemistry papers
Good! But without the algorithms to do something with them, the functionals or basis sets would not do anything.
Hence, in our opinion, the algorithm design and method developments papers are equally worthy of getting cited

  1. Neese,F.
     An improvement of the resolution of the identity approximation for the formation of the Coulomb matrix
     J. Comp. Chem., 2003 24(14)1740-1747
     doi.org/10.1002/jcc.10318
  2. Neese,F.
     The SHARK Integral Generation and Digestion System
     J. Comp. Chem., 2022  1-16
     doi.org/10.1002/jcc.26942
  3. Lehtola,S.; Steigemann,C.; Oliveira,M.; Marques,M.
     Recent developments in Libxc - A comprehensive library of functionals for density functional theory
     Software X, 2018 7 
     doi.org/10.1016/j.softx.2017.11.002
  4. Caldeweyher,E.; Bannwarth,C.; Grimme,S.
     Extension of the D3 dispersion coefficient model
     J. Chem. Phys., 2017 147 034112
     doi.org/10.1063/1.4993215
  5. Caldeweyher,E.; Ehlert,S.; Hansen,A.; Neugebauer,H.; Spicher,S.; Bannwarth,C.; Grimme,S.
     A generally applicable atomic-charge dependent London dispersion correction
     J. Chem. Phys., 2019 150 154122
     doi.org/10.1063/1.5090222
  6. Caldeweyher,E.; Mewes,J.; Ehlert,S.; Grimme,S.
     Extension and evaluation of the D4 London-dispersion model for periodic systems
     Phys. Chem. Chem. Phys., 2020 22(16)8499-8512
     doi.org/10.1039/D0CP00502A
  7. Wittmann,L.; Gordiy,I.; Friede,M.; Helmich-Paris,B.; Grimme,S.; Hansen,A.; Bursch,M.
     Extension of the D3 and D4 London Dispersion Corrections to the full Actinides Series
     Phys. Chem. Chem. Phys., 2024 26(32)21379-21394
     doi.org/https://doi.org/10.1039/D4CP01514B 

List of suggested additional citations. These are papers that are important in the 'surrounding' of 
of this run, or papers that preceded the highly important papers. If you like your results we are grateful for a citation.

  1. Neese,F.
     The ORCA program system
     WIRES Comput. Molec. Sci., 2012 2(1)73-78
     doi.org/10.1002/wcms.81
  2. Neese,F.
     Software update: the ORCA program system, version 4.0
     WIRES Comput. Molec. Sci., 2018 8(1)1-6
     doi.org/10.1002/wcms.1327
  3. Neese,F.; Wennmohs,F.; Becker,U.; Riplinger,C.
     The ORCA quantum chemistry program package
     J. Chem. Phys., 2020 152 Art. No. L224108
     doi.org/10.1063/5.0004608

List of optional additional citations

  1. Neese,F.
     Approximate second-order SCF convergence for spin unrestricted wavefunctions
     Chem. Phys. Lett., 2000 325(1-3)93-98
     doi.org/10.1016/s0009-2614(00)00662-x

Timings for individual modules:

Sum of individual times          ...       17.948 sec (=   0.299 min)
Startup calculation              ...        0.923 sec (=   0.015 min)   5.1 %
SCF iterations                   ...        8.427 sec (=   0.140 min)  47.0 %
Property calculations            ...        0.068 sec (=   0.001 min)   0.4 %
SCF Gradient evaluation          ...        8.530 sec (=   0.142 min)  47.5 %
                             ****ORCA TERMINATED NORMALLY****
TOTAL RUN TIME: 0 days 0 hours 0 minutes 18 seconds 371 msec
  ------------------------------------------------------------------------
          * successful ORCA run, taking over control again...

         :::::::::::::::::::::::::::::::::::::::::::::::::::::
         ::                  ORCA SUMMARY                   ::
         :::::::::::::::::::::::::::::::::::::::::::::::::::::
         :: total energy            -460.026313015428 Eh    ::
         :: gradient norm              0.024346014149 Eh/a0 ::
         :: HOMO-LUMO gap              0.000000000000 eV    ::
         :::::::::::::::::::::::::::::::::::::::::::::::::::::

      ----------------------------------------------------------- 
     |                       L-ANC optimizer                     |
      ----------------------------------------------------------- 
          low memory version by Sebastian Ehlert

          ...................................................
          :                      SETUP                      :
          :.................................................:
          :   energy convergence        0.5000000E-05 Eh    :
          :   grad. convergence         0.1000000E-02 Eh/a0 :
          :   optimization log               true           :
          :   writing optlog all                1     steps :
          :   Hessian reset                     8     steps :
          :   maximium step len.        1.0000000     a0    :
          :   LBFGS images                      8           :
          ...................................................
 * calculating model hessian...
Using Lindh-Hessian (1995)
 Shifting diagonal of input Hessian by   1.000000000000000E-002
 Lowest  eigenvalues of input Hessian
    0.000000    0.000000    0.000000    0.000000    0.000000    0.000000
    0.011877    0.014772    0.015504    0.019380    0.025211    0.030693
    0.033878    0.035080    0.036958    0.050209    0.073530    0.081955
 Highest eigenvalues
    1.593491    1.825949    1.900242    1.995935    2.050456    2.385725
 

........................................................................
.............................. CYCLE    1 ..............................
........................................................................
                         * ORCA takes the control...
  ------------------------------------------------------------------------

                                 *****************
                                 * O   R   C   A *
                                 *****************

                                            #,                                       
                                            ###                                      
                                            ####                                     
                                            #####                                    
                                            ######                                   
                                           ########,                                 
                                     ,,################,,,,,                         
                               ,,#################################,,                 
                          ,,##########################################,,             
                       ,#########################################, ''#####,          
                    ,#############################################,,   '####,        
                  ,##################################################,,,,####,       
                ,###########''''           ''''###############################       
              ,#####''   ,,,,##########,,,,          '''####'''          '####       
            ,##' ,,,,###########################,,,                        '##       
           ' ,,###''''                  '''############,,,                           
         ,,##''                                '''############,,,,        ,,,,,,###''
      ,#''                                            '''#######################'''  
     '                                                          ''''####''''         
             ,#######,   #######,   ,#######,      ##                                
            ,#'     '#,  ##    ##  ,#'     '#,    #''#        ,####,   ,####,        
            ##       ##  ##   ,#'  ##            #'  '#       #'       #'  '#        
            ##       ##  #######   ##           ,######,      #####,   #    #        
            '#,     ,#'  ##    ##  '#,     ,#' ,#      #,     #,   #   #,  ,#        
             '#######'   ##     ##  '#######'  #'      '#     '####' # '####'        



                #########################################################
                #                        -***-                          #
                #          Department of theory and spectroscopy        #
                #                                                       #
                #                      Frank Neese                      #
                #                                                       #
                #     Directorship, Architecture, Infrastructure        #
                #                    SHARK, DRIVERS                     #
                #        Core code/Algorithms in most modules           #
                #                                                       #
                #        Max Planck Institute fuer Kohlenforschung      #
                #                Kaiser Wilhelm Platz 1                 #
                #                 D-45470 Muelheim/Ruhr                 #
                #                      Germany                          #
                #                                                       #
                #                  All rights reserved                  #
                #                        -***-                          #
                #########################################################


                         Program Version 6.0.1  -  RELEASE   -


 With contributions from (in alphabetic order):
[Max-Planck-Institut fuer Kohlenforschung]                               
  Daniel Aravena         : Magnetic Suceptibility                        
  Michael Atanasov       : Ab Initio Ligand Field Theory (pilot matlab implementation)
  Alexander A. Auer      : GIAO ZORA, VPT2 properties, NMR spectrum      
  Ute Becker             : All parallelization in ORCA, NUMFREQ, NUMCALC 
  Giovanni Bistoni       : ED, misc. LED, open-shell LED, HFLD           
  Martin Brehm           : Molecular dynamics                            
  Dmytro Bykov           : pre 5.0 version of the SCF Hessian            
  Marcos Casanova-Páez   : Triplet and SCS-CIS(D). UHF-(DLPNO)-IP/EA/STEOM-CCSD. UHF-CVS-IP/STEOM-CCSD   
  Vijay G. Chilkuri      : MRCI spin determinant printing, contributions to CSF-ICE 
  Pauline Colinet        : FMM embedding                                 
  Dipayan Datta          : RHF DLPNO-CCSD density                        
  Achintya Kumar Dutta   : EOM-CC, STEOM-CC                              
  Nicolas Foglia         : Exact transition moments, OPA infrastructure, MCD improvements    
  Dmitry Ganyushin       : Spin-Orbit,Spin-Spin,Magnetic field MRCI      
  Miquel Garcia-Rates    : C-PCM and meta-GGA Hessian, CCSD/C-PCM, Gaussian charge scheme 
  Tiago L. C. Gouveia    : GS-ROHF, GS-ROCIS                             
  Yang Guo               : DLPNO-NEVPT2, F12-NEVPT2, CIM, IAO-localization        
  Andreas Hansen         : Spin unrestricted coupled pair/coupled cluster methods 
  Ingolf Harden          : AUTO-CI MPn and infrastructure                
  Benjamin Helmich-Paris : MC-RPA, TRAH-(SCF,CASSCF), AVAS, COSX integrals, SCF dyn. polar. 
  Lee Huntington         : MR-EOM, pCC                                   
  Robert Izsak           : Overlap fitted RIJCOSX, COSX-SCS-MP3, EOM     
  Riya Kayal             : Wick's Theorem for AUTO-CI, AUTO-CI UHF-CCSDT 
  Emily Kempfer          : AUTO-CI, RHF CISDT and CCSDT                  
  Christian Kollmar      : KDIIS, OOCD, Brueckner-CCSD(T), CCSD density, CASPT2, CASPT2-K, improved NEVPT2 
  Axel Koslowski         : Symmetry handling                             
  Simone Kossmann        : meta-GGA functionals, TD-DFT gradient, OOMP2, (MP2 Hessian; deprecated post 5.0) 
  Lucas Lang             : DCDCAS                                        
  Marvin Lechner         : AUTO-CI (C++ implementation), FIC-MRCC        
  Spencer Leger          : CASSCF response                               
  Dagmar Lenk            : GEPOL surface, SMD, ORCA-2-JSON               
  Dimitrios Liakos       : Extrapolation schemes; Compound Job, initial MDCI parallelization 
  Dimitrios Manganas     : Further ROCIS development; embedding schemes. LFT, Crystal Embedding 
  Dimitrios Pantazis     : SARC Basis sets                               
  Anastasios Papadopoulos: AUTO-CI, single reference methods and gradients 
  Taras Petrenko         : pre 6.0 DFT Hessian and TD-DFT gradient, (ASA, deprecated), ECA, 1-Electron XAS/XES, NRVS 
  Peter Pinski           : DLPNO-MP2, DLPNO-MP2 Gradient                 
  Christoph Reimann      : Effective Core Potentials                     
  Marius Retegan         : Local ZFS, SOC                                
  Christoph Riplinger    : Optimizer, TS searches, QM/MM, DLPNO-CCSD(T), (RO)-DLPNO pert. Triples 
  Michael Roemelt        : Original ROCIS implementation                 
  Masaaki Saitow         : Open-shell DLPNO-CCSD energy and density      
  Barbara Sandhoefer     : DKH picture change effects                    
  Kantharuban Sivalingam : CASSCF convergence/infrastructure, NEVPT2 and variants, FIC-MRCI 
  Bernardo de Souza      : ESD, SOC TD-DFT                               
  Georgi L. Stoychev     : AutoAux, RI-MP2 NMR, DLPNO-MP2 response, X2C  
  Van Anh Tran           : RI-MP2 g-tensors                              
  Willem Van den Heuvel  : Paramagnetic NMR                              
  Zikuan Wang            : NOTCH, Electric field optimization            
  Frank Wennmohs         : Technical directorship and infrastructure     
  Hang Xu                : AUTO-CI-Response properties                   
                                                                         
[FACCTs GmbH]                                                            
  Markus Bursch, Miquel Garcia-Rates, Christoph Riplinger, Bernardo de Souza, Georgi L. Stoychev 
                                                                 
  APM, Basis sets (HGBS, AHGBS, def-TZVP (Ac-Lr), def2-XVPD (La-Lu)), CI-OPT, improved COSX, DLPNO-Multilevel,           
  DOCKER, DRACO, updates on ESD, GOAT, IRC, LR-CPCM, MBIS, meta-GGA TD-DFT gradient, ML-optimized integration grids, 
  MM, NACMEs, nearIR, NEB, NEB-TS, NL-DFT gradient (VV10), 2- and 3-layer-ONIOM, interface openCOSMO-RS, QMMM,   
  Crystal-QMMM, SF, symmetry and pop. for TD-DFT, r2SCAN hybrids, SOLVATOR                                   
                                                                         
[Other institutions]                                                     
  V. Asgeirsson          : NEB                                           
  Christoph Bannwarth    : sTDA-DFT, sTD-DFT, PBEh-3c, B97-3c, D3        
  Sebastian Ehlert       : rSCAN, r2SCAN, r2SCAN-3c, D4, dhf basis sets  
  Marvin Friede          : D4 for Fr, Ra, Ac-Lr                          
  Lars Goerigk           : TD-DFT with DH, B97 family of functionals     
  Stefan Grimme          : VdW corrections, initial TS optimization, DFT functionals, gCP, sTDA/sTD-DF 
  Waldemar Hujo          : DFT-NL                                        
  H. Jonsson             : NEB                                           
  Holger Kruse           : gCP                                           
  Marcel Mueller         : wB97X-3c, vDZP basis set                      
  Hagen Neugebauer       : wr2SCAN                                       
  Tobias Risthaus        : range-separated hybrid DFT                    
  Lukas Wittmann         : regularized MP2, r2SCAN double-hybrids, wr2SCAN        
                                                                         
We gratefully acknowledge several colleagues who have allowed us to      
interface, adapt or use parts of their codes:                            
  Ed Valeev, F. Pavosevic, A. Kumar             : LibInt (2-el integral package), F12 methods 
  Garnet Chan, S. Sharma, J. Yang, R. Olivares  : DMRG                   
  Ulf Ekstrom                                   : XCFun DFT Library      
  Mihaly Kallay                                 : mrcc  (arbitrary order and MRCC methods)
  Frank Weinhold                                : gennbo (NPA and NBO analysis)           
  Simon Mueller                                 : openCOSMO-RS                            
  Christopher J. Cramer and Donald G. Truhlar   : smd solvation model                     
  S Lehtola, MJT Oliveira, MAL Marques          : LibXC Library                           
  Liviu Ungur et al                             : ANISO software                          


 Your calculation uses the libint2 library for the computation of 2-el integrals
 For citations please refer to: http://libint.valeyev.net

 Your ORCA version has been built with support for libXC version: 6.2.2
 For citations please refer to: https://libxc.gitlab.io

 This ORCA versions uses:
   CBLAS   interface :  Fast vector & matrix operations
   LAPACKE interface :  Fast linear algebra routines
   SCALAPACK package :  Parallel linear algebra routines
   Shared memory     :  Shared parallel matrices
   BLAS/LAPACK       :  OpenBLAS 0.3.27  USE64BITINT DYNAMIC_ARCH NO_AFFINITY Zen SINGLE_THREADED
        Core in use  :  Zen
   Copyright (c) 2011-2014, The OpenBLAS Project




***************************************
The coordinates will be read from file: xtb_opt.xyz
***************************************


Your calculation utilizes the geometrical counterpoise correction gCP
Please cite in your paper:
H.Kruse, S. Grimme J.Chem.Phys., 136, (2012), 154101 
   

Your calculation utilizes the atom-pairwise dispersion correction
based on EEQ partial charges (D4)


================================================================================

----- Orbital basis set information -----
Your calculation utilizes the basis: def2-mTZVPP
   Stefan Grimme, Andreas Hansen, Sebastian Ehlert, and Jan-Michael Mewes 
   J. Chem. Phys. 154, 064103 (2021). DOI: 10.1063/5.0040021

----- AuxJ basis set information -----
Your calculation utilizes the auxiliary basis: def2/J
   F. Weigend, Phys. Chem. Chem. Phys. 8, 1057 (2006).

================================================================================
                                        WARNINGS
                       Please study these warnings very carefully!
================================================================================

WARNING: Old DensityContainer found on disk!
         Will remove this file - 
         If you want to keep old densities, please start your calculation with a different basename. 



WARNING: SCAN, rSCAN, or r2SCAN functional requested.
  ===> : libXC variant has now been activated.



================================================================================
                                       INPUT FILE
================================================================================
NAME = xtb_opt.inp
|  1> ! r2scan-3c def2/J RI DEFGRID2 scfconv7 ENGRAD tightSCF miniprint
|  2> * xyzfile 0 1 xtb_opt.xyz
|  3> 
|  4>                          ****END OF INPUT****
================================================================================

                     *******************************
                     * Energy+Gradient Calculation *
                     *******************************

---------------------------------
CARTESIAN COORDINATES (ANGSTROEM)
---------------------------------
  C     -3.375757    0.603728    0.001227
  O     -1.956815    0.777424    0.000252
  C     -1.238563   -0.364945   -0.000433
  O     -1.744878   -1.466604   -0.000804
  C      0.223080   -0.108804   -0.000537
  C      0.752771    1.183795   -0.000891
  C      2.128431    1.366236   -0.000338
  C      2.978787    0.265302    0.000589
  C      2.452910   -1.023396    0.000789
  C      1.079065   -1.211847    0.000181
  H     -3.696221    0.051547    0.889218
  H     -3.697788    0.053819   -0.887597
  H     -3.798288    1.607890    0.002890
  H      0.084605    2.035106   -0.001540
  H      2.539717    2.369224   -0.000562
  H      4.053015    0.412373    0.001176
  H      3.116452   -1.880501    0.001490
  H      0.646034   -2.205003    0.000396

----------------------------
CARTESIAN COORDINATES (A.U.)
----------------------------
  NO LB      ZA    FRAG     MASS         X           Y           Z
   0 C     6.0000    0    12.011   -6.379257    1.140881    0.002319
   1 O     8.0000    0    15.999   -3.697844    1.469118    0.000477
   2 C     6.0000    0    12.011   -2.340545   -0.689645   -0.000818
   3 O     8.0000    0    15.999   -3.297342   -2.771480   -0.001520
   4 C     6.0000    0    12.011    0.421561   -0.205611   -0.001015
   5 C     6.0000    0    12.011    1.422530    2.237049   -0.001684
   6 C     6.0000    0    12.011    4.022152    2.581812   -0.000640
   7 C     6.0000    0    12.011    5.629091    0.501347    0.001114
   8 C     6.0000    0    12.011    4.635328   -1.933938    0.001491
   9 C     6.0000    0    12.011    2.039138   -2.290060    0.000342
  10 H     1.0000    0     1.008   -6.984845    0.097409    1.680379
  11 H     1.0000    0     1.008   -6.987806    0.101703   -1.677315
  12 H     1.0000    0     1.008   -7.177723    3.038473    0.005460
  13 H     1.0000    0     1.008    0.159881    3.845793   -0.002909
  14 H     1.0000    0     1.008    4.799370    4.477184   -0.001062
  15 H     1.0000    0     1.008    7.659088    0.779272    0.002223
  16 H     1.0000    0     1.008    5.889241   -3.553631    0.002816
  17 H     1.0000    0     1.008    1.220828   -4.166852    0.000749

------------------------------------------------------------------------------
                   ___                                                        
                  /   \      - P O W E R E D   B Y -                         
                 /     \                                                     
                 |  |  |   _    _      __       _____    __    __             
                 |  |  |  | |  | |    /  \     |  _  \  |  |  /  |          
                  \  \/   | |  | |   /    \    | | | |  |  | /  /          
                 / \  \   | |__| |  /  /\  \   | |_| |  |  |/  /          
                |  |  |   |  __  | /  /__\  \  |    /   |      \           
                |  |  |   | |  | | |   __   |  |    \   |  |\   \          
                \     /   | |  | | |  |  |  |  | |\  \  |  | \   \       
                 \___/    |_|  |_| |__|  |__|  |_| \__\ |__|  \__/        
                                                                              
                      - O R C A' S   B I G   F R I E N D -                    
                                      &                                       
                       - I N T E G R A L  F E E D E R -                       
                                                                              
 v1 FN, 2020, v2 2021, v3 2022-2024                                           
------------------------------------------------------------------------------


----------------------
SHARK INTEGRAL PACKAGE
----------------------

Number of atoms                             ...     18
Number of basis functions                   ...    240
Number of shells                            ...    116
Maximum angular momentum                    ...      2
Integral batch strategy                     ... SHARK/LIBINT Hybrid
RI-J (if used) integral strategy            ... SPLIT-RIJ (Revised 2003 algorithm where possible)
Printlevel                                  ...      1
Contraction scheme used                     ... SEGMENTED contraction
Prescreening option                         ... SCHWARTZ
   Thresh                                   ... 3.000e-11
   Tcut                                     ... 1.000e-12
   Tpresel                                  ... 1.000e-12 
Coulomb Range Separation                    ... NOT USED
Exchange Range Separation                   ... NOT USED
Multipole approximations                    ... NOT USED
Finite Nucleus Model                        ... NOT USED
CABS basis                                  ... NOT available
Auxiliary Coulomb fitting basis             ... AVAILABLE
   # of basis functions in Aux-J            ...    578
   # of shells in Aux-J                     ...    190
   Maximum angular momentum in Aux-J        ...      4
Auxiliary J/K fitting basis                 ... NOT available
Auxiliary Correlation fitting basis         ... NOT available
Auxiliary 'external' fitting basis          ... NOT available

Checking pre-screening integrals            ... done (  0.0 sec) Dimension = 116
Check shell pair data                       ... done (  0.0 sec)
Shell pair information
Shell pair cut-off parameter TPreSel        ...   1.0e-12
Total number of shell pairs                 ...      6786
Shell pairs after pre-screening             ...      5865
Total number of primitive shell pairs       ...     24997
Primitive shell pairs kept                  ...     15034
          la=0 lb=0:   1830 shell pairs
          la=1 lb=0:   2194 shell pairs
          la=1 lb=1:    669 shell pairs
          la=2 lb=0:    689 shell pairs
          la=2 lb=1:    412 shell pairs
          la=2 lb=2:     71 shell pairs

Calculating one electron integrals          ... done (  0.0 sec)
Calculating RI/J V-Matrix + Cholesky decomp.... done (  0.0 sec)
Calculating Nuclear repulsion               ... done (  0.0 sec) ENN=    490.375684649859 Eh

Diagonalization of the overlap matrix:
Smallest eigenvalue                        ... 3.230e-05
Time for diagonalization                   ...    0.005 sec
Threshold for overlap eigenvalues          ... 1.000e-07
Number of eigenvalues below threshold      ... 0
Time for construction of square roots      ...    0.005 sec
Total time needed                          ...    0.011 sec

-------------------
DFT GRID GENERATION
-------------------

General Integration Accuracy     IntAcc      ... 4.388
Radial Grid Type                 RadialGrid  ... OptM3 with GC (2021)
Angular Grid (max. ang.)         AngularGrid ... 4 (Lebedev-302)
Angular grid pruning method      GridPruning ... 4 (adaptive)
Weight generation scheme         WeightScheme... mBecke (2022)
Basis function cutoff            BFCut       ... 1.0000e-11
Integration weight cutoff        WCut        ... 1.0000e-14
Partially contracted basis set               ... off
Rotationally invariant grid construction     ... off
Angular grids for H and He will be reduced by one unit
Diffuse basis detected: some atoms will have their outermost
                        angular grid increased by 1.

Total number of grid points                  ...    86621
Total number of batches                      ...     1364
Average number of points per batch           ...       63
Average number of grid points per atom       ...     4812
Initializing property integral containers    ... done (  0.0 sec)

SHARK setup successfully completed in   0.9 seconds

Maximum memory used throughout the entire STARTUP-calculation: 41.1 MB
Occupation numbers will be reassigned to an Aufbau configuration
             **** ENERGY FILE WAS UPDATED (xtb_opt.en.tmp) ****
Finished Guess after   0.1 sec
Maximum memory used throughout the entire GUESS-calculation: 17.7 MB
----------------------------------------D-I-I-S--------------------------------------------
Iteration    Energy (Eh)           Delta-E    RMSDP     MaxDP     DIISErr   Damp  Time(sec)
-------------------------------------------------------------------------------------------
               ***  Starting incremental Fock matrix formation  ***
    1    -460.0292821544609296     0.00e+00  5.69e-05  1.64e-03  4.09e-03  0.700   2.1
                              *** Initializing SOSCF ***
---------------------------------------S-O-S-C-F--------------------------------------
Iteration    Energy (Eh)           Delta-E    RMSDP     MaxDP     MaxGrad    Time(sec)
--------------------------------------------------------------------------------------
    2    -460.0293263340621479    -4.42e-05  1.63e-04  4.76e-03  2.77e-03     1.7
               *** Restarting incremental Fock matrix formation ***
    3    -460.0294169528181101    -9.06e-05  6.10e-05  1.26e-03  3.36e-04     2.1
    4    -460.0294069419436482     1.00e-05  4.36e-05  1.13e-03  7.58e-04     1.7
    5    -460.0294217166442650    -1.48e-05  3.61e-05  8.16e-04  2.56e-04     1.7
    6    -460.0294196003442266     2.12e-06  1.98e-05  3.58e-04  2.99e-04     1.7
    7    -460.0294231914056127    -3.59e-06  1.18e-05  2.82e-04  6.37e-05     1.7
    8    -460.0294228343742589     3.57e-07  7.54e-06  1.57e-04  1.28e-04     1.6
    9    -460.0294232922653919    -4.58e-07  2.72e-06  8.29e-05  1.09e-05     1.6
                  *** Gradient check signals convergence ***

               *****************************************************
               *                     SUCCESS                       *
               *           SCF CONVERGED AFTER   9 CYCLES          *
               *****************************************************

             **** ENERGY FILE WAS UPDATED (xtb_opt.en.tmp) ****

----------------
TOTAL SCF ENERGY
----------------

Total Energy       :       -460.02942329226539 Eh          -12518.03701 eV

Components:
Nuclear Repulsion  :        490.37568464985884 Eh           13343.80077 eV
Electronic Energy  :       -950.40510794212423 Eh          -25861.83778 eV
One Electron Energy:      -1596.46670298237450 Eh          -43442.06754 eV
Two Electron Energy:        646.06159504025027 Eh           17580.22976 eV

Virial components:
Potential Energy   :       -918.14592070638571 Eh          -24984.02067 eV
Kinetic Energy     :        458.11649741412032 Eh           12465.98365 eV
Virial Ratio       :          2.00417563193848

DFT components:
N(Alpha)           :       35.999999491555 electrons
N(Beta)            :       35.999999491555 electrons
N(Total)           :       71.999998983109 electrons
E(X)               :      -61.060020274177 Eh       
E(C)               :       -2.341828734383 Eh       
E(XC)              :      -63.401849008560 Eh       

---------------
SCF CONVERGENCE
---------------

  Last Energy change         ...    4.5789e-07  Tolerance :   1.0000e-07
  Last MAX-Density change    ...    8.2938e-05  Tolerance :   1.0000e-07
  Last RMS-Density change    ...    2.7179e-06  Tolerance :   5.0000e-09
  Last DIIS Error            ...    2.7690e-03  Tolerance :   1.0000e-07
  Last Orbital Gradient      ...    1.0882e-05  Tolerance :   1.0000e-04
  Last Orbital Rotation      ...    3.5310e-05  Tolerance :   1.0000e-04


----------------
ORBITAL ENERGIES
----------------

  NO   OCC          E(Eh)            E(eV) 
   0   2.0000     -19.001693      -517.0624 
   1   2.0000     -18.935568      -515.2630 
   2   2.0000     -10.158887      -276.4374 
   3   2.0000     -10.087915      -274.5061 
   4   2.0000     -10.057323      -273.6737 
   5   2.0000     -10.051160      -273.5060 
   6   2.0000     -10.050288      -273.4822 
   7   2.0000     -10.048089      -273.4224 
   8   2.0000     -10.047978      -273.4194 
   9   2.0000     -10.047396      -273.4036 
  10   2.0000      -1.071902       -29.1679 
  11   2.0000      -0.981592       -26.7105 
  12   2.0000      -0.838059       -22.8047 
  13   2.0000      -0.747547       -20.3418 
  14   2.0000      -0.727057       -19.7842 
  15   2.0000      -0.691797       -18.8247 
  16   2.0000      -0.603769       -16.4294 
  17   2.0000      -0.584327       -15.9004 
  18   2.0000      -0.539042       -14.6681 
  19   2.0000      -0.509705       -13.8698 
  20   2.0000      -0.461946       -12.5702 
  21   2.0000      -0.451917       -12.2973 
  22   2.0000      -0.447332       -12.1725 
  23   2.0000      -0.424857       -11.5610 
  24   2.0000      -0.414941       -11.2911 
  25   2.0000      -0.400684       -10.9032 
  26   2.0000      -0.388447       -10.5702 
  27   2.0000      -0.379816       -10.3353 
  28   2.0000      -0.344899        -9.3852 
  29   2.0000      -0.336443        -9.1551 
  30   2.0000      -0.330339        -8.9890 
  31   2.0000      -0.317962        -8.6522 
  32   2.0000      -0.278137        -7.5685 
  33   2.0000      -0.248846        -6.7714 
  34   2.0000      -0.247753        -6.7417 
  35   2.0000      -0.245700        -6.6858 
  36   0.0000      -0.077725        -2.1150 
  37   0.0000      -0.042357        -1.1526 
  38   0.0000       0.023099         0.6286 
  39   0.0000       0.061173         1.6646 
  40   0.0000       0.090767         2.4699 
  41   0.0000       0.098290         2.6746 
  42   0.0000       0.122170         3.3244 
  43   0.0000       0.126247         3.4354 
  44   0.0000       0.127051         3.4572 
  45   0.0000       0.131988         3.5916 
  46   0.0000       0.144851         3.9416 
*Only the first 10 virtual orbitals were printed.
Total SCF time: 0 days 0 hours 0 min 16 sec 
Finished LeanSCF after  16.0 sec

Maximum memory used throughout the entire LEANSCF-calculation: 27.1 MB


-------------------------------------------------------------------------------
                          DFT DISPERSION CORRECTION                            
                                                                               
                                DFTD4 V3.4.0                                   
-------------------------------------------------------------------------------
-------------------------   ----------------
Dispersion correction           -0.005872321
-------------------------   ----------------

------------------   -----------------
gCP correction             0.008302917
------------------   -----------------

-------------------------   --------------------
FINAL SINGLE POINT ENERGY      -460.026992696827
-------------------------   --------------------

------------------------------------------------------------------------------
                         ORCA SCF GRADIENT CALCULATION
------------------------------------------------------------------------------

Nuc. rep. gradient        (SHARK) ... done (  0.0 sec)
HCore & Overlap gradient  (SHARK) ... done (  0.3 sec)
Split-RIJ-J gradient      (SHARK) ... done (  1.8 sec)
XC gradient                       ... done (  5.8 sec)
Dispersion correction             ... done (  0.0 sec)

-------------------
DISPERSION GRADIENT
-------------------

   1   C   :   -0.000087504    0.000008897    0.000000046
   2   O   :   -0.000079361    0.000024817    0.000000007
   3   C   :   -0.000086632   -0.000018950   -0.000000023
   4   O   :   -0.000064248   -0.000065413   -0.000000038
   5   C   :    0.000008934   -0.000012673   -0.000000044
   6   C   :    0.000034524    0.000066186   -0.000000061
   7   C   :    0.000069717    0.000066294   -0.000000019
   8   C   :    0.000085855    0.000011464    0.000000028
   9   C   :    0.000078899   -0.000047536    0.000000041
  10   C   :    0.000035903   -0.000067757    0.000000004
  11   H   :   -0.000028786    0.000004545    0.000004173
  12   H   :   -0.000028778    0.000004554   -0.000004148
  13   H   :   -0.000030602    0.000013259    0.000000030
  14   H   :    0.000001525    0.000044395   -0.000000039
  15   H   :    0.000022102    0.000036887   -0.000000008
  16   H   :    0.000037170    0.000005057    0.000000019
  17   H   :    0.000030275   -0.000029656    0.000000026
  18   H   :    0.000001007   -0.000044372    0.000000005

Difference to translation invariance:
           :   -0.0000000000    0.0000000000    0.0000000000

Difference to rotation invariance:
           :    0.0000000000    0.0000000000    0.0000000000

Norm of the Dispersion gradient    ...    0.0002823066
RMS gradient                       ...    0.0000384171
MAX gradient                       ...    0.0000875044
gCP correction                   ... done

------------------
CARTESIAN GRADIENT
------------------

   1   C   :    0.005998767    0.001779355   -0.000007967
   2   O   :   -0.003730583   -0.004606800   -0.000009487
   3   C   :   -0.000672496    0.003511486    0.000024636
   4   O   :   -0.000009507    0.000403324   -0.000008535
   5   C   :    0.000514466   -0.000299723   -0.000009369
   6   C   :    0.000560190   -0.000261203   -0.000003354
   7   C   :   -0.000499509   -0.000623649    0.000002191
   8   C   :   -0.000746268   -0.000089688    0.000001458
   9   C   :   -0.000364693    0.000422108    0.000001042
  10   C   :    0.000466213    0.000485755   -0.000002313
  11   H   :   -0.000146274   -0.000025679   -0.000152105
  12   H   :   -0.000149847   -0.000020502    0.000159647
  13   H   :   -0.000054437   -0.000516827    0.000003943
  14   H   :    0.000154408   -0.000658247   -0.000002833
  15   H   :   -0.000270034   -0.000729323    0.000000848
  16   H   :   -0.000840948   -0.000022785    0.000002284
  17   H   :   -0.000462454    0.000661986    0.000001013
  18   H   :    0.000253006    0.000590412   -0.000001098

Difference to translation invariance:
           :   -0.0000000000   -0.0000000000   -0.0000000000

Difference to rotation invariance:
           :    0.0000031460    0.0000033610    0.0003447632

Norm of the Cartesian gradient     ...    0.0096509124
RMS gradient                       ...    0.0013133228
MAX gradient                       ...    0.0059987671

-------
TIMINGS
-------

Total SCF gradient time     ....        7.856 sec

Densities                   ....       0.001 sec  (  0.0%)
One electron gradient       ....       0.275 sec  (  3.5%)
RI-J Coulomb gradient       ....       1.775 sec  ( 22.6%)
XC gradient                 ....       5.769 sec  ( 73.4%)

Maximum memory used throughout the entire SCFGRAD-calculation: 38.0 MB

------------------------------------------------------------------------------
                              ORCA PROPERTY CALCULATIONS
------------------------------------------------------------------------------

GBWName                                 ... xtb_opt.gbw
Number of atoms                         ...     18
Number of basis functions               ...    240
Max core memory                         ...   1024 MB

Electric properties:
[...]
E(X)               :      -61.044935385447 Eh       
E(C)               :       -2.340870367251 Eh       
E(XC)              :      -63.385805752698 Eh       

---------------
SCF CONVERGENCE
---------------

  Last Energy change         ...    3.8980e-09  Tolerance :   1.0000e-07
  Last MAX-Density change    ...    5.6366e-05  Tolerance :   1.0000e-07
  Last RMS-Density change    ...    2.4435e-06  Tolerance :   5.0000e-09
  Last DIIS Error            ...    5.2607e-05  Tolerance :   1.0000e-07
  Last Orbital Gradient      ...    1.5092e-05  Tolerance :   1.0000e-04
  Last Orbital Rotation      ...    3.8512e-05  Tolerance :   1.0000e-04


----------------
ORBITAL ENERGIES
----------------

  NO   OCC          E(Eh)            E(eV) 
   0   2.0000     -19.001127      -517.0469 
   1   2.0000     -18.936289      -515.2826 
   2   2.0000     -10.159186      -276.4455 
   3   2.0000     -10.088404      -274.5194 
   4   2.0000     -10.057899      -273.6894 
   5   2.0000     -10.051693      -273.5205 
   6   2.0000     -10.050790      -273.4959 
   7   2.0000     -10.048487      -273.4332 
   8   2.0000     -10.048466      -273.4327 
   9   2.0000     -10.047847      -273.4158 
  10   2.0000      -1.068277       -29.0693 
  11   2.0000      -0.980736       -26.6872 
  12   2.0000      -0.837266       -22.7832 
  13   2.0000      -0.746414       -20.3110 
  14   2.0000      -0.726539       -19.7701 
  15   2.0000      -0.690087       -18.7782 
  16   2.0000      -0.603661       -16.4265 
  17   2.0000      -0.583959       -15.8903 
  18   2.0000      -0.537946       -14.6383 
  19   2.0000      -0.508227       -13.8296 
  20   2.0000      -0.461615       -12.5612 
  21   2.0000      -0.449942       -12.2436 
  22   2.0000      -0.446036       -12.1373 
  23   2.0000      -0.424372       -11.5478 
  24   2.0000      -0.414911       -11.2903 
  25   2.0000      -0.400283       -10.8922 
  26   2.0000      -0.388011       -10.5583 
  27   2.0000      -0.379971       -10.3395 
  28   2.0000      -0.344755        -9.3813 
  29   2.0000      -0.336751        -9.1634 
  30   2.0000      -0.330481        -8.9928 
  31   2.0000      -0.318225        -8.6594 
  32   2.0000      -0.278184        -7.5698 
  33   2.0000      -0.248715        -6.7679 
  34   2.0000      -0.247507        -6.7350 
  35   2.0000      -0.246081        -6.6962 
  36   0.0000      -0.077928        -2.1205 
  37   0.0000      -0.042581        -1.1587 
  38   0.0000       0.022678         0.6171 
  39   0.0000       0.059297         1.6135 
  40   0.0000       0.088771         2.4156 
  41   0.0000       0.097928         2.6648 
  42   0.0000       0.122200         3.3252 
  43   0.0000       0.125786         3.4228 
  44   0.0000       0.126806         3.4506 
  45   0.0000       0.132116         3.5951 
  46   0.0000       0.144817         3.9407 
*Only the first 10 virtual orbitals were printed.
Total SCF time: 0 days 0 hours 0 min 5 sec 
Finished LeanSCF after   7.6 sec

Maximum memory used throughout the entire LEANSCF-calculation: 26.9 MB


-------------------------------------------------------------------------------
                          DFT DISPERSION CORRECTION                            
                                                                               
                                DFTD4 V3.4.0                                   
-------------------------------------------------------------------------------
-------------------------   ----------------
Dispersion correction           -0.005863727
-------------------------   ----------------

------------------   -----------------
gCP correction             0.008244287
------------------   -----------------

-------------------------   --------------------
FINAL SINGLE POINT ENERGY      -460.027108070059
-------------------------   --------------------

------------------------------------------------------------------------------
                         ORCA SCF GRADIENT CALCULATION
------------------------------------------------------------------------------

Nuc. rep. gradient        (SHARK) ... done (  0.0 sec)
HCore & Overlap gradient  (SHARK) ... done (  0.3 sec)
Split-RIJ-J gradient      (SHARK) ... done (  1.8 sec)
XC gradient                       ... done (  5.6 sec)
Dispersion correction             ... done (  0.0 sec)

-------------------
DISPERSION GRADIENT
-------------------

   1   C   :   -0.000086355    0.000009006    0.000000029
   2   O   :   -0.000080360    0.000024764    0.000000011
   3   C   :   -0.000086255   -0.000018957   -0.000000020
   4   O   :   -0.000064098   -0.000065199   -0.000000030
   5   C   :    0.000008871   -0.000012378   -0.000000024
   6   C   :    0.000034428    0.000066414   -0.000000042
   7   C   :    0.000069558    0.000066167   -0.000000020
   8   C   :    0.000085705    0.000011251    0.000000013
   9   C   :    0.000078678   -0.000047686    0.000000031
  10   C   :    0.000035635   -0.000067672    0.000000012
  11   H   :   -0.000028694    0.000004566    0.000004020
  12   H   :   -0.000028692    0.000004573   -0.000004002
  13   H   :   -0.000030325    0.000012919    0.000000023
  14   H   :    0.000001578    0.000044554   -0.000000026
  15   H   :    0.000022080    0.000036799   -0.000000010
  16   H   :    0.000037189    0.000004930    0.000000008
  17   H   :    0.000030187   -0.000029753    0.000000018
  18   H   :    0.000000869   -0.000044300    0.000000008

Difference to translation invariance:
           :   -0.0000000000    0.0000000000    0.0000000000

Difference to rotation invariance:
           :    0.0000000000   -0.0000000000    0.0000000000

Norm of the Dispersion gradient    ...    0.0002817824
RMS gradient                       ...    0.0000383457
MAX gradient                       ...    0.0000863546
gCP correction                   ... done

------------------
CARTESIAN GRADIENT
------------------

   1   C   :   -0.000518898   -0.000072426    0.000008829
   2   O   :    0.000172000    0.000278897    0.000015525
   3   C   :    0.000061352   -0.000541636   -0.000073595
   4   O   :    0.000091943    0.000260992    0.000025940
   5   C   :    0.000019596    0.000055772    0.000021102
   6   C   :    0.000025578   -0.000017494    0.000001418
   7   C   :   -0.000044913   -0.000016360   -0.000004422
   8   C   :   -0.000008816   -0.000019111    0.000000618
   9   C   :    0.000027621    0.000033017   -0.000004699
  10   C   :    0.000036426    0.000026650    0.000010691
  11   H   :    0.000041991    0.000034278   -0.000013300
  12   H   :    0.000043976    0.000035597    0.000010397
  13   H   :    0.000044128   -0.000007871    0.000001571
  14   H   :    0.000042985   -0.000055133    0.000000157
  15   H   :   -0.000038398   -0.000042245   -0.000000475
  16   H   :   -0.000038398   -0.000005334    0.000002955
  17   H   :    0.000001334    0.000041633   -0.000000362
  18   H   :    0.000040493    0.000010774   -0.000002351

Difference to translation invariance:
           :   -0.0000000000   -0.0000000000   -0.0000000000

Difference to rotation invariance:
           :    0.0000021859    0.0000022636    0.0003395900

Norm of the Cartesian gradient     ...    0.0008917662
RMS gradient                       ...    0.0001213540
MAX gradient                       ...    0.0005416364

-------
TIMINGS
-------

Total SCF gradient time     ....        7.650 sec

Densities                   ....       0.000 sec  (  0.0%)
One electron gradient       ....       0.275 sec  (  3.6%)
RI-J Coulomb gradient       ....       1.777 sec  ( 23.2%)
XC gradient                 ....       5.562 sec  ( 72.7%)

Maximum memory used throughout the entire SCFGRAD-calculation: 38.0 MB

------------------------------------------------------------------------------
                              ORCA PROPERTY CALCULATIONS
------------------------------------------------------------------------------

GBWName                                 ... xtb_opt.gbw
Number of atoms                         ...     18
Number of basis functions               ...    240
Max core memory                         ...   1024 MB

Electric properties:
Dipole moment                           ... YES
Quadrupole moment                       ...  NO
Static polarizability (Dipole/Dipole)   ...  NO
Static polarizability (Dipole/Quad.)    ...  NO
Static polarizability (Quad./Quad.)     ...  NO
Static polarizability (Velocity)        ...  NO

Atomic electric properties:
Dipole moment                           ...  NO
Quadrupole moment                       ...  NO
Static polarizability                   ...  NO

Choice of electric origin               ... Center of mass
Position of electric origin             ...     0.001245     0.003759     0.000256

General magnetic properties:
Magnetizability                         ...  NO

EPR properties:
g-Tensor (aka g-matrix)                 ...  NO
Zero-Field splitting spin-orbit         ...  NO
Zero-field splitting spin-spin          ...  NO
Hyperfine couplings                     ...  NO (   0 nuclei)
Quadrupole couplings                    ...  NO (   0 nuclei)
Contact density                         ...  NO (   0 nuclei)

NMR properties:
Chemical shifts                         ...  NO (   0 nuclei)
Spin-rotation constants                 ...  NO (   0 nuclei)
Spin-spin couplings                     ...  NO (   0 nuclei,    0 pairs)

Choice of magnetic origin               ... GIAO
Position of magnetic origin             ...     0.000000     0.000000     0.000000

Properties with geometric perturbations:
SCF Hessian                             ...  NO
IR spectrum                             ...  NO
VCD spectrum                            ...  NO
X-ray spectroscopy properties:
SCF XES/XAS/RIXS spectra                ...  NO


-------------
DIPOLE MOMENT
-------------

Method             : SCF
Type of density    : Electron Density
Multiplicity       :   1
Irrep              :   0
Energy             :  -460.0294886300328017 Eh
Relativity type    : 
Basis              : AO
                                X                 Y                 Z
Electronic contribution:      1.024010881      -1.534581033      -0.002520210
Nuclear contribution   :     -0.767626051       2.247178317       0.003042757
                        -----------------------------------------
Total Dipole Moment    :      0.256384830       0.712597284       0.000522547
                        -----------------------------------------
Magnitude (a.u.)       :      0.757316541
Magnitude (Debye)      :      1.924945669



--------------------
Rotational spectrum 
--------------------
 
Rotational constants in cm-1:             0.117718             0.028112             0.022791 
Rotational constants in MHz :          3529.100874           842.772587           683.249466 

Dipole components along the rotational axes: 
x,y,z [a.u.] :     0.257120    -0.712332     0.000543 
x,y,z [Debye]:     0.653546    -1.810605     0.001381 

 

Dipole moment calculation done in   0.2 sec 

Maximum memory used throughout the entire PROP-calculation: 16.6 MB

--------------------------------
SUGGESTED CITATIONS FOR THIS RUN
--------------------------------

Below you find a list of papers that are relevant to this ORCA run
We neither can nor want to force you to cite these papers, but we appreciate if you do
You receive ORCA, which is the product of decades of hard work by many enthusiastic individuals, for free
The only thing we kindly ask in return is that you cite our papers,
We deeply appreciate it, if you show your appreciation for ORCA by not just citing the generic ORCA reference.

Please note that relegating all ORCA citations to the supporting information does *not* help us.
SI sections are not indexed - citations you put there will not count into any citation statistics
But we need these citations in order to attract the funding resources that allow us to do what we are doing

Therefore, if you are a happy ORCA user, please consider citing a few of the papers listed below in the main body of your paper

In addition to the list printed below, the program has created the file xtb_opt.bibtex that contains the list in bibtex format
You can import this file easily into all common literature databanks and citation aid programs


List of essential papers. We consider these as the minimum necessary citations

  1. Neese,F.
     Software update: the ORCA program system, version 5.0
     WIRES Comput. Molec. Sci., 2022 12(1)e1606
     doi.org/10.1002/wcms.1606
  2. Grimme,S.; Hansen,A.; Ehlert,S.; Mewes,J.
     r2SCAN-3c: A 'Swiss army knife' composite electronic-structure method
     J. Chem. Phys., 2021 154 064103
     doi.org/10.1063/5.0040021

List of papers to cite with high priority. The work reported in these papers was absolutely
necessary for this run to complete.
Our perspective: the developers of density functionals and basis sets usually get cited in chemistry papers
Good! But without the algorithms to do something with them, the functionals or basis sets would not do anything.
Hence, in our opinion, the algorithm design and method developments papers are equally worthy of getting cited

  1. Neese,F.
     An improvement of the resolution of the identity approximation for the formation of the Coulomb matrix
     J. Comp. Chem., 2003 24(14)1740-1747
     doi.org/10.1002/jcc.10318
  2. Neese,F.
     The SHARK Integral Generation and Digestion System
     J. Comp. Chem., 2022  1-16
     doi.org/10.1002/jcc.26942
  3. Lehtola,S.; Steigemann,C.; Oliveira,M.; Marques,M.
     Recent developments in Libxc - A comprehensive library of functionals for density functional theory
     Software X, 2018 7 
     doi.org/10.1016/j.softx.2017.11.002
  4. Caldeweyher,E.; Bannwarth,C.; Grimme,S.
     Extension of the D3 dispersion coefficient model
     J. Chem. Phys., 2017 147 034112
     doi.org/10.1063/1.4993215
  5. Caldeweyher,E.; Ehlert,S.; Hansen,A.; Neugebauer,H.; Spicher,S.; Bannwarth,C.; Grimme,S.
     A generally applicable atomic-charge dependent London dispersion correction
     J. Chem. Phys., 2019 150 154122
     doi.org/10.1063/1.5090222
  6. Caldeweyher,E.; Mewes,J.; Ehlert,S.; Grimme,S.
     Extension and evaluation of the D4 London-dispersion model for periodic systems
     Phys. Chem. Chem. Phys., 2020 22(16)8499-8512
     doi.org/10.1039/D0CP00502A
  7. Wittmann,L.; Gordiy,I.; Friede,M.; Helmich-Paris,B.; Grimme,S.; Hansen,A.; Bursch,M.
     Extension of the D3 and D4 London Dispersion Corrections to the full Actinides Series
     Phys. Chem. Chem. Phys., 2024 26(32)21379-21394
     doi.org/https://doi.org/10.1039/D4CP01514B 

List of suggested additional citations. These are papers that are important in the 'surrounding' of 
of this run, or papers that preceded the highly important papers. If you like your results we are grateful for a citation.

  1. Neese,F.
     The ORCA program system
     WIRES Comput. Molec. Sci., 2012 2(1)73-78
     doi.org/10.1002/wcms.81
  2. Neese,F.
     Software update: the ORCA program system, version 4.0
     WIRES Comput. Molec. Sci., 2018 8(1)1-6
     doi.org/10.1002/wcms.1327
  3. Neese,F.; Wennmohs,F.; Becker,U.; Riplinger,C.
     The ORCA quantum chemistry program package
     J. Chem. Phys., 2020 152 Art. No. L224108
     doi.org/10.1063/5.0004608

List of optional additional citations

  1. Neese,F.
     Approximate second-order SCF convergence for spin unrestricted wavefunctions
     Chem. Phys. Lett., 2000 325(1-3)93-98
     doi.org/10.1016/s0009-2614(00)00662-x

Timings for individual modules:

Sum of individual times          ...       16.999 sec (=   0.283 min)
Startup calculation              ...        1.152 sec (=   0.019 min)   6.8 %
SCF iterations                   ...        7.737 sec (=   0.129 min)  45.5 %
Property calculations            ...        0.243 sec (=   0.004 min)   1.4 %
SCF Gradient evaluation          ...        7.867 sec (=   0.131 min)  46.3 %
                             ****ORCA TERMINATED NORMALLY****
TOTAL RUN TIME: 0 days 0 hours 0 minutes 18 seconds 385 msec
  ------------------------------------------------------------------------
          * successful ORCA run, taking over control again...

         :::::::::::::::::::::::::::::::::::::::::::::::::::::
         ::                  ORCA SUMMARY                   ::
         :::::::::::::::::::::::::::::::::::::::::::::::::::::
         :: total energy            -460.027108070059 Eh    ::
         :: gradient norm              0.000891766177 Eh/a0 ::
         :: HOMO-LUMO gap              0.000000000000 eV    ::
         :::::::::::::::::::::::::::::::::::::::::::::::::::::

           -------------------------------------------------
          |                Property Printout                |
           -------------------------------------------------
           -------------------------------------------------
          |                Geometry Summary                 |
           -------------------------------------------------

      molecular mass/u    :      136.1482230
   center of mass at/Å    :        0.0006383       0.0019845       0.0001354
  moments of inertia/u·Å² :        0.1432016E+03   0.5996522E+03   0.7396581E+03
rotational constants/cm⁻¹ :        0.1177196E+00   0.2811235E-01   0.2279111E-01

 * 17 selected distances

     #   Z          #   Z                                           value/Å
     1   6 C        2   8 O                                       1.4420735 (max)
     2   8 O        3   6 C                                       1.3552057
     3   6 C        4   8 O                                       1.2118884
     5   6 C        6   6 C                                       1.3981104
     6   6 C        7   6 C                                       1.3895143
     7   6 C        8   6 C                                       1.3924913
     8   6 C        9   6 C                                       1.3931743
     5   6 C       10   6 C                                       1.3976457
     9   6 C       10   6 C                                       1.3880687
     1   6 C       11   1 H                                       1.0930820
     1   6 C       12   1 H                                       1.0930877
     1   6 C       13   1 H                                       1.0898324
     6   6 C       14   1 H                                       1.0830536 (min)
     7   6 C       15   1 H                                       1.0850593
     8   6 C       16   1 H                                       1.0853675
     9   6 C       17   1 H                                       1.0850457
    10   6 C       18   1 H                                       1.0843145

 * 3 distinct bonds (by element types)

   Z      Z             #   av. dist./Å        max./Å        min./Å
   1 H    6 C           8     1.0873553     1.0930877     1.0830536
   6 C    6 C           6     1.3931675     1.3981104     1.3880687
   6 C    8 O           3     1.3363892     1.4420735     1.2118884


optimized geometry written to: xtbopt.coord


           -------------------------------------------------
          | TOTAL ENERGY             -460.027108070059 Eh   |
          | GRADIENT NORM               0.000891766177 Eh/α |
           -------------------------------------------------

------------------------------------------------------------------------
 * finished run on 2025/04/15 at 19:47:08.640     
------------------------------------------------------------------------
 total:
 * wall-time:     0 d,  0 h,  2 min, 12.557 sec
 *  cpu-time:     0 d,  0 h,  0 min,  2.463 sec
 * ratio c/w:     0.019 speedup
 SCF:
 * wall-time:     0 d,  0 h,  0 min, 18.444 sec
 *  cpu-time:     0 d,  0 h,  0 min,  0.766 sec
 * ratio c/w:     0.042 speedup
 ANC optimizer:
 * wall-time:     0 d,  0 h,  1 min, 54.040 sec
 *  cpu-time:     0 d,  0 h,  0 min,  1.489 sec
 * ratio c/w:     0.013 speedup

