20
 energy: -25.644735763789 gnorm: 0.017263443418 xtb: 6.7.1 (edcfbbe)
C           -2.37950879753981        0.86527180747010       -0.84614868388013
N           -1.60874821815558        0.11362867160992        0.13530360521302
C           -2.33938746122368       -0.96934513097214        0.76214032357251
C           -0.22368285767251        0.05081309899449        0.05340997908379
C            0.52276878562835        1.15256274823361       -0.41181136119479
C            1.90747715951118        1.10307503293303       -0.46384514201722
C            2.60331867136372       -0.02936838808412       -0.04597644222588
C            1.87738261839867       -1.11678668556261        0.42630672581017
C            0.48817994865573       -1.08859329664876        0.47452488165930
H           -3.04706059529897        0.19201319618589       -1.40394431415432
H           -1.72205706434659        1.34294653237118       -1.57352566201013
H           -2.99719802182823        1.64097877245238       -0.37256857516083
H           -3.36719239401155       -0.64051038685647        0.94393502830088
H           -1.89687265427491       -1.22373743439651        1.73005763053275
H           -2.37875184584953       -1.88345010923181        0.14274970897380
H            0.01758401916745        2.06800249282625       -0.69827047201012
H            2.45095473956817        1.97277551102692       -0.82086461908400
H            3.68649609321115       -0.05946410572454       -0.08395099169852
H            2.39471147490702       -2.01370870691442        0.75374222554098
H           -0.03999576056582       -1.96705944325346        0.82418530666468
20
 energy: -25.645626815316 gnorm: 0.004134832990 xtb: 6.7.1 (edcfbbe)
C           -2.37079092285138        0.85525351798160       -0.84599336558125
N           -1.60309981151955        0.10897929380078        0.12883544112067
C           -2.33863798222197       -0.96166621739625        0.75759252617629
C           -0.22284571309593        0.04496703069284        0.04627790178998
C            0.52006464934559        1.14681974934071       -0.40357912191050
C            1.89884756033274        1.10220183766514       -0.45373150040800
C            2.59057464111928       -0.02722288116887       -0.04474338869295
C            1.87101483345981       -1.11311175473074        0.42203490979433
C            0.48910108597462       -1.08645396539154        0.46639937409239
H           -3.04265120204015        0.18445388000121       -1.39435691395880
H           -1.71591257173031        1.33433989039314       -1.57009957355476
H           -2.97736876559645        1.62413744117481       -0.35542574790963
H           -3.36019827955371       -0.62269519513323        0.93672893527034
H           -1.89181559660666       -1.20765831051093        1.72142505754891
H           -2.37989692376833       -1.87192671391329        0.14056223409273
H            0.01593370663447        2.05594249355630       -0.69716008585464
H            2.44091919100431        1.96657423178963       -0.81454923473780
H            3.66963600722866       -0.05668552538347       -0.08489683472964
H            2.38914157756253       -2.00469403355343        0.75051584165165
H           -0.03359764403331       -1.96151059275547        0.81961269771662
20
 energy: -25.645685033112 gnorm: 0.001653313225 xtb: 6.7.1 (edcfbbe)
C           -2.36786479089114        0.85140588328655       -0.84720046887586
N           -1.60044265927209        0.10554510186229        0.12407033914877
C           -2.33847765703859       -0.95805279186509        0.75806863301652
C           -0.22242575200342        0.04169602419697        0.04405397021726
C            0.51838901398521        1.14378786504947       -0.40298842741690
C            1.89612655624418        1.10211857325723       -0.45289272126467
C            2.58734158344019       -0.02605256605726       -0.04435912478764
C            1.87037128098623       -1.11345593869765        0.42036630913038
C            0.48998761272231       -1.08762565035170        0.46356909167384
H           -3.04050829083234        0.18207582026898       -1.39372329146420
H           -1.71584849239642        1.33135496386119       -1.57155715635192
H           -2.97219314715206        1.61835571724286       -0.35259182757746
H           -3.35609240332593       -0.61134476615029        0.93802679504761
H           -1.88923074524766       -1.20126767598927        1.72014135012630
H           -2.38639252969473       -1.86850817825797        0.14441539334426
H            0.01412324642576        2.05233095649983       -0.69458027007606
H            2.43769694128896        1.96856210810112       -0.80573487130282
H            3.66548863674886       -0.05365136442211       -0.08286196116902
H            2.38960353198671       -2.00357458429743        0.74711262292208
H           -0.03123409632978       -1.96365532107880        0.81411476757548
20
 energy: -25.645707645037 gnorm: 0.001284606041 xtb: 6.7.1 (edcfbbe)
C           -2.36699844242342        0.84837904159660       -0.85023656418949
N           -1.59863444975134        0.10044753452257        0.11680635209405
C           -2.33949425610807       -0.95480184942910        0.76063451140378
C           -0.22191483724577        0.03798005279946        0.04055113045516
C            0.51759791989920        1.14253651816537       -0.40158461301154
C            1.89560465831001        1.10460480906854       -0.44804794871741
C            2.58707594064205       -0.02421236597624       -0.04202960251818
C            1.87163636725564       -1.11507904604920        0.41782682532108
C            0.49127688511779       -1.09103841905386        0.45877189618845
H           -3.04094157398119        0.18055042110843       -1.39644683686911
H           -1.71714481887790        1.32948482617188       -1.57536857997421
H           -2.97005240965771        1.61466678702983       -0.35299045647623
H           -3.35293374329851       -0.59918547190874        0.94548747913205
H           -1.88526443043555       -1.19650474114517        1.72038908693811
H           -2.39834157502544       -1.86732034443067        0.15171272588637
H            0.01222019844509        2.05049381603401       -0.69264175394042
H            2.43659806707719        1.97206621312482       -0.79791780917799
H            3.66516523736328       -0.05024584525684       -0.07934011412778
H            2.39245307755959       -2.00425358705843        0.74312818360772
H           -0.02948997522068       -1.96852417285432        0.80674523989151
20
 energy: -25.645734913077 gnorm: 0.001580636497 xtb: 6.7.1 (edcfbbe)
C           -2.36765608097743        0.84406172381452       -0.85646436181617
N           -1.59698237990926        0.09123550944412        0.10376462211756
C           -2.34151777505782       -0.95020628033303        0.76617925911006
C           -0.22086287571894        0.03315134337731        0.03492513204997
C            0.51752120786506        1.14140207831593       -0.40107883365200
C            1.89616229487634        1.10767650391552       -0.44225787741603
C            2.58854785899695       -0.02141067913047       -0.03748749224240
C            1.87436204096052       -1.11692831877697        0.41480841577827
C            0.49342735444536       -1.09668201170586        0.45051116782270
H           -3.04459880101041        0.17885286766942       -1.40308871377047
H           -1.71957150004294        1.32694378044213       -1.58243940298141
H           -2.96879232756195        1.61009837156653       -0.35544865038854
H           -3.34790682576706       -0.58022271730054        0.96399139328809
H           -1.87561712402431       -1.19155459169701        1.72068147406043
H           -2.42192049713169       -1.86652784502274        0.16470231692366
H            0.01020208630220        2.04910107904067       -0.69045275083749
H            2.43675251827963        1.97874199968656       -0.78387404668177
H            3.66721755286124       -0.04423444282457       -0.06956996315439
H            2.39738690510508       -2.00609240807330        0.73660829234370
H           -0.02773579284631       -1.97736178594931        0.79143917136217
20
 energy: -25.645745463651 gnorm: 0.000935863795 xtb: 6.7.1 (edcfbbe)
C           -2.36891200621018        0.84086502114142       -0.86117431119392
N           -1.59663570446916        0.08514215159859        0.09505861853750
C           -2.34164670802558       -0.94711244246783        0.77030219707780
C           -0.22023045161960        0.03107012757722        0.03036740395437
C            0.51797431820990        1.14163813915526       -0.40063053686437
C            1.89674148476908        1.10988167925555       -0.43610187870246
C            2.58961607591458       -0.01939883859852       -0.03250270697765
C            1.87519090387248       -1.11771747785356        0.41227569687714
C            0.49419271075509       -1.09983820486727        0.44349684962756
H           -3.04863573474140        0.17709833501212       -1.40661646432296
H           -1.72117719929707        1.32296756513570       -1.58818939472293
H           -2.96778690165184        1.60753494908225       -0.35812644499196
H           -3.34236432042649       -0.56785146089484        0.98044431078599
H           -1.86527432748051       -1.19035968501035        1.71926694840020
H           -2.43870760776240       -1.86446497264628        0.17270737591371
H            0.00964287357718        2.04886437133916       -0.69000262060438
H            2.43715340363160        1.98218114754889       -0.77534517847993
H            3.66851019716079       -0.04062615067336       -0.06080603745899
H            2.39859056470989       -2.00749538573585        0.73260556131807
H           -0.02782373127212       -1.98233469163938        0.77841976374316
20
 energy: -25.645748975966 gnorm: 0.000364665570 xtb: 6.7.1 (edcfbbe)
C           -2.36938443351353        0.83921286144498       -0.86325333558274
N           -1.59671080445670        0.08312956487284        0.09231717757545
C           -2.34114943674228       -0.94569298689955        0.77212172455808
C           -0.22006898441562        0.03076184330564        0.02853904588843
C            0.51795839275198        1.14183802795916       -0.40109594281349
C            1.89669891214046        1.11019913683031       -0.43465640823288
C            2.58989194245551       -0.01860338570292       -0.03022938775137
C            1.87518877340160       -1.11771838525018        0.41175168576463
C            0.49423448835981       -1.10079338559657        0.44031143225258
H           -3.05122115014329        0.17579467392297       -1.40648031669442
H           -1.72160143818430        1.31888733547098       -1.59178795943600
H           -2.96611267838452        1.60756775609061       -0.36032706749749
H           -3.33856825025489       -0.56213852527309        0.98982500388817
H           -1.85917188997560       -1.19167330482967        1.71737777602849
H           -2.44684886652594       -1.86231311713584        0.17516026569231
H            0.00945042165929        2.04900331589458       -0.69030646718954
H            2.43721474925033        1.98407341344735       -0.77025644309493
H            3.66881707058663       -0.03860149821534       -0.05539378454832
H            2.39804405013483       -2.00844950883631        0.73075467586457
H           -0.02824302849952       -1.98443965504104        0.77107747724440
20
 energy: -25.645750925922 gnorm: 0.000405345838 xtb: 6.7.1 (edcfbbe)
C           -2.36952051547138        0.83835625803080       -0.86422085109297
N           -1.59684377767683        0.08287217405353        0.09204711298327
C           -2.34092302238920       -0.94509891797808        0.77294688766535
C           -0.22004645822219        0.03066485024707        0.02743025027564
C            0.51787189223954        1.14216044606186       -0.40115522753383
C            1.89669826978635        1.11086183659817       -0.43285203105157
C            2.59004756906035       -0.01784598141409       -0.02841485156055
C            1.87515015819172       -1.11784022410410        0.41107513140269
C            0.49419648346732       -1.10131213176643        0.43822387666094
H           -3.05371975937315        0.17492053764204       -1.40440713453755
H           -1.72163449563758        1.31449666573534       -1.59501660163947
H           -2.96371784847962        1.60939582743907       -0.36239747057822
H           -3.33626716822240       -0.55928390983263        0.99611387488415
H           -1.85543081074690       -1.19434438174924        1.71548811033446
H           -2.45198256414461       -1.86029750291115        0.17481759447138
H            0.00932773394520        2.04913647422242       -0.69089536901980
H            2.43715740106724        1.98475097487091       -0.76849329939296
H            3.66894291447047       -0.03724427230762       -0.05225820880297
H            2.39751873410039       -2.00886408560115        0.73021272048239
H           -0.02840689632044       -1.98544046077780        0.76720463796558
20
 energy: -25.645752581699 gnorm: 0.000393443778 xtb: 6.7.1 (edcfbbe)
C           -2.36917112733045        0.83743261444661       -0.86504363081692
N           -1.59685820719962        0.08320648416169        0.09269616517345
C           -2.34116810587437       -0.94453048446392        0.77362224597971
C           -0.22002593137790        0.03034552414760        0.02695780170531
C            0.51755561589807        1.14217766140248       -0.40105399922232
C            1.89643063248786        1.11147741945301       -0.43169934295547
C            2.58997903384791       -0.01694406240562       -0.02701404589217
C            1.87534889543128       -1.11775507766533        0.41074107181987
C            0.49438023262982       -1.10183195766855        0.43668876832293
H           -3.05703496509037        0.17409224390853       -1.40052107925840
H           -1.72128307125985        1.30804848738730       -1.59949754524967
H           -2.95937947256349        1.61277988103907       -0.36511123835211
H           -3.33430243839821       -0.55619945427150        1.00241875274717
H           -1.85237934468907       -1.19815669856467        1.71322264564218
H           -2.45776532004641       -1.85751745738368        0.17307019485317
H            0.00883861290306        2.04893177423979       -0.69109146429653
H            2.43678190371674        1.98574072456563       -0.76651993917003
H            3.66890544161726       -0.03547555540488       -0.04941424670697
H            2.39764390068448       -2.00900293202467        0.72927010596502
H           -0.02807844574249       -1.98677495843996        0.76372793162772
20
 energy: -25.645753598111 gnorm: 0.000211272607 xtb: 6.7.1 (edcfbbe)
C           -2.36844261207196        0.83707525328047       -0.86528563378386
N           -1.59687396230406        0.08386371058535        0.09398405206290
C           -2.34172088814603       -0.94451479616586        0.77362922920260
C           -0.22007189324520        0.03009643595920        0.02761619278947
C            0.51713312608482        1.14218293071908       -0.40043619118179
C            1.89603049050725        1.11201139090665       -0.43132385522654
C            2.58980264005577       -0.01636002991578       -0.02678583537778
C            1.87559459914611       -1.11770040549372        0.41041371191776
C            0.49457848741746       -1.10213119699259        0.43651355634278
H           -3.05966976349547        0.17398385966519       -1.39654880508981
H           -1.72042630957025        1.30238575567686       -1.60309933481089
H           -2.95488304425628        1.61662927461069       -0.36743082072913
H           -3.33370042206643       -0.55500299973067        1.00512556814056
H           -1.85179233925987       -1.20130400608386        1.71163504002941
H           -2.46082752525143       -1.85565497256992        0.17086347916141
H            0.00799222741277        2.04873085949482       -0.69039798852586
H            2.43616741328750        1.98642665333218       -0.76597778300816
H            3.66876596719478       -0.03450570807613       -0.04897228683424
H            2.39831988800751       -2.00874778892927        0.72866536718034
H           -0.02755823980273       -1.98742004381376        0.76326148965675
20
 energy: -25.645754232395 gnorm: 0.000175686629 xtb: 6.7.1 (edcfbbe)
C           -2.36772168332560        0.83698148345543       -0.86548521698597
N           -1.59683996569195        0.08374167467111        0.09427571121331
C           -2.34230748656344       -0.94469785838093        0.77348196432239
C           -0.22010160456478        0.02976102117738        0.02830285586212
C            0.51677613711403        1.14213673987208       -0.39969922566823
C            1.89564939226439        1.11238297368207       -0.43120658662717
C            2.58962420087075       -0.01606063647598       -0.02716807971210
C            1.87584317703539       -1.11752686059893        0.41042791631634
C            0.49480439381971       -1.10227881774940        0.43706152547565
H           -3.06109476029156        0.17450663506992       -1.39457094086659
H           -1.71949913854246        1.29924066054925       -1.60507198296297
H           -2.95171129232992        1.61900059169713       -0.36860436254715
H           -3.33398506968037       -0.55459860702083        1.00544101429911
H           -1.85231617163958       -1.20230863521119        1.71121302039546
H           -2.46206250112456       -1.85532051372935        0.17002657591641
H            0.00713943514635        2.04857946494224       -0.68911594905410
H            2.43556219997473        1.98691217808145       -0.76582463568498
H            3.66859414450298       -0.03418908340840       -0.04996495019291
H            2.39911706710551       -2.00847730857191        0.72796488067698
H           -0.02705263443537       -1.98774092559222        0.76396561774033
20
 energy: -25.645755038400 gnorm: 0.000300722278 xtb: 6.7.1 (edcfbbe)
C           -2.36672660220345        0.83705947838333       -0.86573260162626
N           -1.59686600653567        0.08311035536943        0.09426039388295
C           -2.34302784026064       -0.94515594013346        0.77316108299513
C           -0.22016972480395        0.02938008550561        0.02938922377202
C            0.51624921139463        1.14216203104238       -0.39854483523303
C            1.89507233402414        1.11280669731711       -0.43115265201688
C            2.58939255541904       -0.01580894866346       -0.02807987432347
C            1.87614099778252       -1.11740544814269        0.41013286155095
C            0.49509180484046       -1.10246059868197        0.43793539893851
H           -3.06323932752893        0.17584462654829       -1.39212737970164
H           -1.71808853652893        1.29525892869134       -1.60756718301426
H           -2.94714971554099        1.62238755989045       -0.36982327303649
H           -3.33468497922473       -0.55474891720458        1.00459343157994
H           -1.85358739638375       -1.20292042734077        1.71111560220013
H           -2.46266822135925       -1.85564546657371        0.16956546001728
H            0.00591429664943        2.04849382120718       -0.68708176097724
H            2.43464941435621        1.98756037080430       -0.76568875313644
H            3.66837319346769       -0.03394746855627       -0.05187218829356
H            2.40013597633022       -2.00800242577293        0.72741326237421
H           -0.02639359424978       -1.98792413723065        0.76555293596407
20
 energy: -25.645756006215 gnorm: 0.000338880750 xtb: 6.7.1 (edcfbbe)
C           -2.36565306734011        0.83733959528933       -0.86601808386562
N           -1.59696346116660        0.08186666663934        0.09369595194582
C           -2.34372581331576       -0.94595598842150        0.77259681971388
C           -0.22027877418253        0.02891002222702        0.03029355386816
C            0.51559158505129        1.14225396224529       -0.39728095018418
C            1.89437939707456        1.11331183962250       -0.43086764887291
C            2.58916315194510       -0.01542508651328       -0.02887875921325
C            1.87648371709928       -1.11703695709288        0.41026523031176
C            0.49542871945540       -1.10255188334373        0.43904868883360
H           -3.06677784023261        0.17811974303478       -1.38864967031058
H           -1.71654217113580        1.28998743457143       -1.61097986196704
H           -2.94083835012643        1.62716652923477       -0.37100511579249
H           -3.33556605002255       -0.55542220569382        1.00310412146622
H           -1.85502379154643       -1.20323209988831        1.71110405802819
H           -2.46283644249544       -1.85679043856043        0.16941954874021
H            0.00453097232850        2.04853900414028       -0.68466442679317
H            2.43352965955761        1.98826298534319       -0.76554875154479
H            3.66810492071043       -0.03372443105248       -0.05430661570064
H            2.40108742070876       -2.00757952942861        0.72672590562002
H           -0.02567594272239       -1.98799498589398        0.76739515763275
20
 energy: -25.645757343312 gnorm: 0.000295108196 xtb: 6.7.1 (edcfbbe)
C           -2.36442057457507        0.83793389436119       -0.86623288015720
N           -1.59712540613139        0.07988694061811        0.09256335445305
C           -2.34438301982503       -0.94724614583460        0.77176816297937
C           -0.22043638327512        0.02838565702859        0.03124386607308
C            0.51471057149819        1.14233085477547       -0.39604002319451
C            1.89347338622341        1.11384367340698       -0.43055806655891
C            2.58886827606046       -0.01494995207590       -0.02979404529360
C            1.87683667106675       -1.11670781287878        0.41010626787814
C            0.49582507226229       -1.10268772421539        0.44011514056079
H           -3.07262252614661        0.18197163179182       -1.38322975301604
H           -1.71493947969588        1.28263940121080       -1.61584512986865
H           -2.93158853858151        1.63417773152039       -0.37203280080858
H           -3.33661707561113       -0.55684842915736        1.00089205628786
H           -1.85660222664213       -1.20339942793564        1.71113982575522
H           -2.46250737079443       -1.85886547932808        0.16953863538190
H            0.00287633605733        2.04844769427348       -0.68253734788945
H            2.43211474111687        1.98918004059946       -0.76510632681154
H            3.66779732320862       -0.03304043046644       -0.05634073263482
H            2.40201985575199       -2.00689846188352        0.72661385073350
H           -0.02486179232335       -1.98810947935168        0.76918509804633
20
 energy: -25.645759964027 gnorm: 0.000457691410 xtb: 6.7.1 (edcfbbe)
C           -2.36252528571530        0.83943088661067       -0.86637296307836
N           -1.59744224846738        0.07567992171667        0.08967214057268
C           -2.34526061621450       -0.94995654127947        0.77005499151834
C           -0.22076856478949        0.02714514431114        0.03202250636131
C            0.51304180303325        1.14219266337691       -0.39467233595737
C            1.89183630027915        1.11478731319924       -0.42981563708109
C            2.58841067083891       -0.01361827115400       -0.03011148291109
C            1.87753845504721       -1.11584248456232        0.41063990302480
C            0.49657021554657       -1.10308877079122        0.44149519434649
H           -3.08578402305753        0.19049144735464       -1.37122414039702
H           -1.71298163475307        1.26780875103776       -1.62599558547616
H           -2.91253646793481        1.64879716584369       -0.37322446122556
H           -3.33810181718778       -0.55988347959615        0.99704308138398
H           -1.85873722318313       -1.20392553468193        1.71078650384442
H           -2.46182086531798       -1.86314148433339        0.16987055380977
H           -0.00003913712760        2.04788172627061       -0.68021155459570
H            2.42955747053015        1.99077794863655       -0.76422502465410
H            3.66729473569957       -0.03118467991781       -0.05837863356743
H            2.40359033927326       -2.00571017464797        0.72672316486195
H           -0.02342426685525       -1.98859737093470        0.77137293113609
20
 energy: -25.645760216427 gnorm: 0.002396288678 xtb: 6.7.1 (edcfbbe)
C           -2.35843433390806        0.84328049757082       -0.86645099205039
N           -1.59811170540268        0.06494354955325        0.08167837249143
C           -2.34708940168350       -0.95667647595765        0.76585886756134
C           -0.22152003056666        0.02373499197970        0.03267905888891
C            0.50908893829933        1.14134577172032       -0.39278645872606
C            1.88803228435415        1.11704704585846       -0.42782790899892
C            2.58742647106022       -0.01010419325904       -0.02970554134599
C            1.87929545404125       -1.11379629850598        0.41210310005933
C            0.49844204226519       -1.10441259472122        0.44378889359557
H           -3.11933378890018        0.21270330077260       -1.34049774883348
H           -1.71032932258970        1.23147132965233       -1.65123742751739
H           -2.86503725250620        1.68450870018365       -0.37549781807998
H           -3.34048986941076       -0.56624505848164        0.99022228658429
H           -1.86176689826198       -1.20630383312722        1.70869992263635
H           -2.46223717158037       -1.87324960394823        0.17031233766695
H           -0.00690331071012        2.04559360578968       -0.67748096190603
H            2.42360397552442        1.99470320565894       -0.76157400502177
H            3.66630389422067       -0.02549330478470       -0.05960058441901
H            2.40742720061427       -2.00245520584182        0.72833641122327
H           -0.01994933521503       -1.99055125365334        0.77442934810752
20
 energy: -25.645765754348 gnorm: 0.001026252302 xtb: 6.7.1 (edcfbbe)
C           -2.35989282656937        0.84270900322247       -0.86601616951012
N           -1.59796833328869        0.06748839184218        0.08323852184063
C           -2.34621940941367       -0.95526846300194        0.76665733268514
C           -0.22134988578796        0.02469238121877        0.03195463701695
C            0.51023561359881        1.14140535560655       -0.39410918117875
C            1.88917620059381        1.11620226933874       -0.42856866883191
C            2.58775495332733       -0.01103087173843       -0.02926622969044
C            1.87873019406717       -1.11424557516813        0.41218312513485
C            0.49785645114211       -1.10394454881510        0.44304801024650
H           -3.11108000407777        0.20825362654576       -1.34786187535207
H           -1.71249866343968        1.24172961280643       -1.64425198357711
H           -2.87719957445433        1.67495127700581       -0.37409538901399
H           -3.33967862920119       -0.56543227514074        0.99154140543356
H           -1.86053642128932       -1.20562021842670        1.70904897044501
H           -2.46124975104249       -1.87117425228581        0.17016507504069
H           -0.00471266152467        2.04596562728266       -0.67970870365723
H            2.42542249858071        1.99331045142469       -0.76262942490410
H            3.66663667550398       -0.02692226180064       -0.05823867403111
H            2.40606573577060       -2.00319395124961        0.72890175704064
H           -0.02107432285112       -1.98983140220802        0.77345661677882
20
 energy: -25.645772128712 gnorm: 0.000591939613 xtb: 6.7.1 (edcfbbe)
C           -2.35990967654312        0.84476775552582       -0.86485993147095
N           -1.59807887051935        0.06427633740251        0.07992931039258
C           -2.34589140348304       -0.95760176784351        0.76490424256775
C           -0.22156118749572        0.02357286435018        0.03033179789731
C            0.50950909672284        1.14032933890832       -0.39635518564334
C            1.88858330643303        1.11613960943210       -0.42877587861771
C            2.58772810358880       -0.00988170771557       -0.02720404971525
C            1.87905844077193       -1.11348071038913        0.41393771641673
C            0.49819728574614       -1.10428410799276        0.44292971480836
H           -3.12040216323870        0.21691706459248       -1.33861173924853
H           -1.71561170841427        1.23526166201393       -1.64915635819012
H           -2.86490500567950        1.68286754643643       -0.37177093261744
H           -3.33951410688796       -0.56827539212338        0.98954257040348
H           -1.85999707755220       -1.20660970861626        1.70755806928610
H           -2.46036888383494       -1.87439017215914        0.16977009824270
H           -0.00562420257593        2.04409582288744       -0.68404868998694
H            2.42451056506851        1.99336495758912       -0.76308451536489
H            3.66665041949666       -0.02477292213530       -0.05467537369108
H            2.40653077940238       -2.00189216819041        0.73198101907216
H           -0.02048587136130       -1.99036012551392        0.77310726737501
20
 energy: -25.645792561281 gnorm: 0.003542663429 xtb: 6.7.1 (edcfbbe)
C           -2.35725909723011        0.85625823550073       -0.85967984879906
N           -1.59861262173695        0.04294754095910        0.05992311448433
C           -2.34625072538109       -0.97189293645089        0.75451351764389
C           -0.22280445352049        0.01529412344108        0.02301768403850
C            0.50365236227188        1.13410342075027       -0.40581569189991
C            1.88335769600951        1.11755314176077       -0.42844610400950
C            2.58699281625604       -0.00198778392904       -0.01714613303595