      -----------------------------------------------------------      
     |                   =====================                   |     
     |                           x T B                           |     
     |                   =====================                   |     
     |                         S. Grimme                         |     
     |          Mulliken Center for Theoretical Chemistry        |     
     |                    University of Bonn                     |     
      -----------------------------------------------------------      

   * xtb version 6.7.1 (edcfbbe) compiled by 'albert@albert-system' on 2024-07-22

   xtb is free software: you can redistribute it and/or modify it under
   the terms of the GNU Lesser General Public License as published by
   the Free Software Foundation, either version 3 of the License, or
   (at your option) any later version.
   
   xtb is distributed in the hope that it will be useful,
   but WITHOUT ANY WARRANTY; without even the implied warranty of
   MERCHANTABILITY or FITNESS FOR A PARTICULAR PURPOSE.  See the
   GNU Lesser General Public License for more details.
   
   Cite this work as:
   * C. Bannwarth, E. Caldeweyher, S. Ehlert, A. Hansen, P. Pracht,
     J. Seibert, S. Spicher, S. Grimme, WIREs Comput. Mol. Sci., 2020, 11,
     e01493. DOI: 10.1002/wcms.1493
   
   for GFN2-xTB:
   * C. Bannwarth, S. Ehlert and S. Grimme., J. Chem. Theory Comput., 2019,
     15, 1652-1671. DOI: 10.1021/acs.jctc.8b01176
   for GFN1-xTB:
   * S. Grimme, C. Bannwarth, P. Shushkov, J. Chem. Theory Comput., 2017,
     13, 1989-2009. DOI: 10.1021/acs.jctc.7b00118
   for GFN0-xTB:
   * P. Pracht, E. Caldeweyher, S. Ehlert, S. Grimme, ChemRxiv, 2019, preprint.
     DOI: 10.26434/chemrxiv.8326202.v1
   for GFN-FF:
   * S. Spicher and S. Grimme, Angew. Chem. Int. Ed., 2020, 59, 15665-15673.
     DOI: 10.1002/anie.202004239
   
   for ALPB and GBSA implicit solvation:
   * S. Ehlert, M. Stahn, S. Spicher, S. Grimme, J. Chem. Theory Comput.,
     2021, 17, 4250-4261. DOI: 10.1021/acs.jctc.1c00471
   
   for ddCOSMO and CPCM-X implicit solvation:
   * M. Stahn, S. Ehlert, S. Grimme, J. Phys. Chem. A,
     2023, XX, XXXX-XXXX. DOI: 10.1021/acs.jpca.3c04382
   
   for DFT-D4:
   * E. Caldeweyher, C. Bannwarth and S. Grimme, J. Chem. Phys., 2017,
     147, 034112. DOI: 10.1063/1.4993215
   * E. Caldeweyher, S. Ehlert, A. Hansen, H. Neugebauer, S. Spicher,
     C. Bannwarth and S. Grimme, J. Chem. Phys., 2019, 150, 154122.
     DOI: 10.1063/1.5090222
   * E. Caldeweyher, J.-M. Mewes, S. Ehlert and S. Grimme, Phys. Chem. Chem. Phys.
     2020, 22, 8499-8512. DOI: 10.1039/D0CP00502A
   
   for sTDA-xTB:
   * S. Grimme and C. Bannwarth, J. Chem. Phys., 2016, 145, 054103.
     DOI: 10.1063/1.4959605
   
   in the mass-spec context:
   * V. Asgeirsson, C. Bauer and S. Grimme, Chem. Sci., 2017, 8, 4879.
     DOI: 10.1039/c7sc00601b
   * J. Koopman and S. Grimme, ACS Omega 2019, 4, 12, 15120-15133.
     DOI: 10.1021/acsomega.9b02011
   
   for metadynamics refer to:
   * S. Grimme, J. Chem. Theory Comput., 2019, 155, 2847-2862
     DOI: 10.1021/acs.jctc.9b00143
   
   for SPH calculations refer to:
   * S. Spicher and S. Grimme, J. Chem. Theory Comput., 2021, 17, 1701-1714
     DOI: 10.1021/acs.jctc.0c01306
   
   for ONIOM refer to:
   * C. Plett, A. Katbashev, S. Ehlert, S. Grimme, M. Bursch,
     Phys. Chem. Chem. Phys., 2023, 25, 17860-17868. DOI: 10.1039/D3CP02178E
   
   for DIPRO refer to:
   * J. Kohn, N. Gildemeister, S. Grimme, D. Fazzi, A. Hansen,
     J. Chem. Phys., 2023, just accepted.
   
   for PTB refer to:
   * S. Grimme, M. Mueller, A. Hansen, J. Chem. Phys., 2023, 158, 124111.
     DOI: 10.1063/5.0137838
   
   with help from (in alphabetical order)
   P. Atkinson, C. Bannwarth, F. Bohle, G. Brandenburg, E. Caldeweyher
   M. Checinski, S. Dohm, S. Ehlert, S. Ehrlich, I. Gerasimov, C. Hölzer
   A. Katbashev, J. Kohn, J. Koopman, C. Lavigne, S. Lehtola, F. März, M. Müller,
   F. Musil, H. Neugebauer, J. Pisarek, C. Plett, P. Pracht, F. Pultar,
   J. Seibert, P. Shushkov, S. Spicher, M. Stahn, M. Steiner, T. Strunk,
   J. Stückrath, T. Rose, and J. Unsleber
   
 * started run on 2025/04/15 at 19:15:46.519     
   ID    Z sym.   atoms
    1    6 C      1-7
    2    1 H      8-21

           -------------------------------------------------
          |                Calculation Setup                |
           -------------------------------------------------

          program call               : /software/projects/pawsey0265/mwang1/xtb/bin/xtb xtb_rrho.coord --gfn2 --ohess vtight --chrg 0 --enso --norestart -I rrho-xcontrol-inp --parallel 1
          hostname                   : nid002793
          coordinate file            : xtb_rrho.coord
          omp threads                :                     1


           -------------------------------------------------
          |                 G F N 2 - x T B                 |
           -------------------------------------------------

        Reference                      10.1021/acs.jctc.8b01176
      * Hamiltonian:
        H0-scaling (s, p, d)           1.850000    2.230000    2.230000
        zeta-weighting                 0.500000
      * Dispersion:
        s8                             2.700000
        a1                             0.520000
        a2                             5.000000
        s9                             5.000000
      * Repulsion:
        kExp                           1.500000    1.000000
        rExp                           1.000000
      * Coulomb:
        alpha                          2.000000
        third order                    shell-resolved
        anisotropic                    true
        a3                             3.000000
        a5                             4.000000
        cn-shift                       1.200000
        cn-exp                         4.000000
        max-rad                        5.000000


          ...................................................
          :                      SETUP                      :
          :.................................................:
          :  # basis functions                  42          :
          :  # atomic orbitals                  42          :
          :  # shells                           28          :
          :  # electrons                        42          :
          :  max. iterations                   250          :
          :  Hamiltonian                  GFN2-xTB          :
          :  restarted?                      false          :
          :  GBSA solvation                  false          :
          :  PC potential                    false          :
          :  electronic temp.          300.0000000     K    :
          :  accuracy                    1.0000000          :
          :  -> integral cutoff          0.2500000E+02      :
          :  -> integral neglect         0.1000000E-07      :
          :  -> SCF convergence          0.1000000E-05 Eh   :
          :  -> wf. convergence          0.1000000E-03 e    :
          :  Broyden damping             0.4000000          :
          :  net charge                          0          :
          :  unpaired electrons                  0          :
          ...................................................

 iter      E             dE          RMSdq      gap      omega  full diag
   1    -22.4092570 -0.224093E+02  0.249E+00   12.92       0.0  T
   2    -22.4676017 -0.583447E-01  0.141E+00   12.89       1.0  T
   3    -22.4682311 -0.629451E-03  0.751E-01   12.86       1.0  T
   4    -22.4683763 -0.145127E-03  0.108E-01   12.85       1.0  T
   5    -22.4684270 -0.507407E-04  0.544E-02   12.85       1.0  T
   6    -22.4684276 -0.612737E-06  0.799E-03   12.85       2.7  T
   7    -22.4684279 -0.321237E-06  0.216E-03   12.85      10.1  T
   8    -22.4684279 -0.694549E-08  0.344E-04   12.85      63.4  T
   9    -22.4684279 -0.471591E-09  0.110E-04   12.85     197.9  T

   *** convergence criteria satisfied after 9 iterations ***

         #    Occupation            Energy/Eh            Energy/eV
      -------------------------------------------------------------
         1        2.0000           -0.6285846             -17.1047
       ...           ...                  ...                  ...
        15        2.0000           -0.4524801             -12.3126
        16        2.0000           -0.4456563             -12.1269
        17        2.0000           -0.4316019             -11.7445
        18        2.0000           -0.4266583             -11.6100
        19        2.0000           -0.4144837             -11.2787
        20        2.0000           -0.4100020             -11.1567
        21        2.0000           -0.4070152             -11.0754 (HOMO)
        22                          0.0651349               1.7724 (LUMO)
        23                          0.0835838               2.2744
        24                          0.0896095               2.4384
        25                          0.1044078               2.8411
        26                          0.1060023               2.8845
       ...                                ...                  ...
        42                          0.2990844               8.1385
      -------------------------------------------------------------
                  HL-Gap            0.4721501 Eh           12.8479 eV
             Fermi-level           -0.1709402 Eh           -4.6515 eV

 SCC (total)                   0 d,  0 h,  0 min,  0.043 sec
 SCC setup                      ...        0 min,  0.000 sec (  0.632%)
 Dispersion                     ...        0 min,  0.000 sec (  0.420%)
 classical contributions        ...        0 min,  0.000 sec (  0.116%)
 integral evaluation            ...        0 min,  0.002 sec (  5.735%)
 iterations                     ...        0 min,  0.033 sec ( 76.877%)
 molecular gradient             ...        0 min,  0.007 sec ( 15.746%)
 printout                       ...        0 min,  0.000 sec (  0.423%)

         :::::::::::::::::::::::::::::::::::::::::::::::::::::
         ::                     SUMMARY                     ::
         :::::::::::::::::::::::::::::::::::::::::::::::::::::
         :: total energy             -22.152705858130 Eh    ::
         :: gradient norm              0.021078744291 Eh/a0 ::
         :: HOMO-LUMO gap             12.847858723696 eV    ::
         ::.................................................::
         :: SCC energy               -22.468367265325 Eh    ::
         :: -> isotropic ES            0.003233435054 Eh    ::
         :: -> anisotropic ES          0.006708036876 Eh    ::
         :: -> anisotropic XC          0.012938179515 Eh    ::
         :: -> dispersion             -0.014044029285 Eh    ::
         :: repulsion energy           0.315661407195 Eh    ::
         :: add. restraining           0.000000000000 Eh    ::
         :: total charge              -0.000000000000 e     ::
         :::::::::::::::::::::::::::::::::::::::::::::::::::::

      ----------------------------------------------------------- 
     |                   =====================                   |
     |                        A N C O P T                        |
     |                   =====================                   |
     |               Approximate Normal Coordinate               |
     |                Rational Function Optimizer                |
      ----------------------------------------------------------- 
      ----------------------------------------------------------- 
     |                   =====================                   |
     |                        A N C O P T                        |
     |                   =====================                   |
     |               Approximate Normal Coordinate               |
     |                Rational Function Optimizer                |
      ----------------------------------------------------------- 

          ...................................................
          :                      SETUP                      :
          :.................................................:
          :   optimization level         verytight          :
          :   max. optcycles                   420          :
          :   ANC micro-cycles                  20          :
          :   degrees of freedom                57          :
          :.................................................:
          :   RF solver                   davidson          :
          :   write xtbopt.log                true          :
          :   linear?                        false          :
          :   energy convergence         0.1000000E-06 Eh   :
          :   grad. convergence          0.2000000E-03 Eh/α :
          :   maxmium RF displ.          1.0000000          :
          :   Hlow (freq-cutoff)         0.1000000E-01      :
          :   Hmax (freq-cutoff)         5.0000000          :
          :   S6 in model hess.         20.0000000          :
          ...................................................

generating ANC from exact Hessian ...
Using Lindh-Hessian (1995)
 Shifting diagonal of input Hessian by   5.704360344979138E-003
 Lowest  eigenvalues of input Hessian
    0.000000    0.000000    0.000000    0.000000    0.000000    0.000000
    0.010000    0.012764    0.014284    0.015932    0.018770    0.023221
    0.025919    0.028657    0.030382    0.054428    0.054642    0.055811
 Highest eigenvalues
    1.177687    1.189856    1.206463    1.212389    1.260887    1.288697
 

........................................................................
.............................. CYCLE    1 ..............................
........................................................................

 iter      E             dE          RMSdq      gap      omega  full diag
   1    -22.4684279 -0.224684E+02  0.290E-05   12.85       0.0  T
   2    -22.4684279 -0.849099E-12  0.171E-05   12.85    1279.5  T
   3    -22.4684279  0.177636E-13  0.459E-06   12.85    4754.3  T
     SCC iter.                  ...        0 min,  0.001 sec
     gradient                   ...        0 min,  0.007 sec
 * total energy  :   -22.1527059 Eh     change       -0.9361401E-11 Eh
   gradient norm :     0.0210785 Eh/α   predicted     0.0000000E+00 (-100.00%)
   displ. norm   :     0.1393410 α      lambda       -0.1429739E-02
   maximum displ.:     0.0799293 α      in ANC's #22, #6, #9, ...

........................................................................
.............................. CYCLE    2 ..............................
........................................................................

 iter      E             dE          RMSdq      gap      omega  full diag
   1    -22.4787304 -0.224787E+02  0.133E-01   13.09       0.0  T
   2    -22.4787360 -0.560370E-05  0.759E-02   13.09       1.0  T
   3    -22.4787364 -0.325911E-06  0.732E-03   13.09       3.0  T
   4    -22.4787364 -0.713796E-08  0.169E-03   13.09      12.9  T
   5    -22.4787364 -0.245148E-08  0.334E-04   13.09      65.3  T
   6    -22.4787364 -0.421178E-09  0.139E-04   13.09     156.6  T
     SCC iter.                  ...        0 min,  0.003 sec
     gradient                   ...        0 min,  0.006 sec
 * total energy  :   -22.1534698 Eh     change       -0.7639243E-03 Eh
   gradient norm :     0.0062577 Eh/α   predicted    -0.7287525E-03 (  -4.60%)
   displ. norm   :     0.0369140 α      lambda       -0.1219605E-03
   maximum displ.:     0.0170317 α      in ANC's #6, #5, #30, ...

........................................................................
.............................. CYCLE    3 ..............................
........................................................................

 iter      E             dE          RMSdq      gap      omega  full diag
   1    -22.4823585 -0.224824E+02  0.306E-02   13.10       0.0  T
   2    -22.4823595 -0.100360E-05  0.176E-02   13.10       1.2  T
   3    -22.4823596 -0.294411E-07  0.331E-03   13.10       6.6  T
   4    -22.4823596 -0.178780E-07  0.656E-04   13.10      33.3  T
   5    -22.4823596 -0.187163E-08  0.334E-04   13.10      65.3  T
     SCC iter.                  ...        0 min,  0.002 sec
     gradient                   ...        0 min,  0.007 sec
 * total energy  :   -22.1535345 Eh     change       -0.6476197E-04 Eh
   gradient norm :     0.0015750 Eh/α   predicted    -0.6107352E-04 (  -5.70%)
   displ. norm   :     0.0306484 α      lambda       -0.1058174E-04
   maximum displ.:     0.0203449 α      in ANC's #5, #6, #1, ...

........................................................................
.............................. CYCLE    4 ..............................
........................................................................

 iter      E             dE          RMSdq      gap      omega  full diag
   1    -22.4824766 -0.224825E+02  0.970E-03   13.09       0.0  T
   2    -22.4824767 -0.708443E-07  0.596E-03   13.09       3.7  T
   3    -22.4824767 -0.213228E-08  0.704E-04   13.09      31.0  T
   4    -22.4824767 -0.159316E-08  0.219E-04   13.09      99.4  T
     SCC iter.                  ...        0 min,  0.002 sec
     gradient                   ...        0 min,  0.007 sec
 * total energy  :   -22.1535438 Eh     change       -0.9249666E-05 Eh
   gradient norm :     0.0006771 Eh/α   predicted    -0.5293914E-05 ( -42.77%)
   displ. norm   :     0.0190635 α      lambda       -0.2269069E-05
   maximum displ.:     0.0132258 α      in ANC's #5, #1, #6, ...

........................................................................
.............................. CYCLE    5 ..............................
........................................................................

 iter      E             dE          RMSdq      gap      omega  full diag
   1    -22.4820679 -0.224821E+02  0.530E-03   13.08       0.0  T
   2    -22.4820679 -0.919955E-08  0.309E-03   13.08       7.1  T
   3    -22.4820679 -0.842910E-09  0.291E-04   13.08      74.9  T
   4    -22.4820679 -0.523919E-10  0.958E-05   13.08     227.9  T
     SCC iter.                  ...        0 min,  0.002 sec
     gradient                   ...        0 min,  0.007 sec
 * total energy  :   -22.1535456 Eh     change       -0.1779873E-05 Eh
   gradient norm :     0.0003268 Eh/α   predicted    -0.1136565E-05 ( -36.14%)
   displ. norm   :     0.0066112 α      lambda       -0.3253516E-06
   maximum displ.:     0.0046712 α      in ANC's #1, #5, #6, ...

........................................................................
.............................. CYCLE    6 ..............................
........................................................................

 iter      E             dE          RMSdq      gap      omega  full diag
   1    -22.4821394 -0.224821E+02  0.307E-03   13.08       0.0  T
   2    -22.4821394 -0.661032E-09  0.181E-03   13.08      12.0  T
   3    -22.4821394 -0.104677E-09  0.885E-05   13.08     246.6  T
   4    -22.4821394 -0.637996E-10  0.380E-05   13.08     574.3  T
     SCC iter.                  ...        0 min,  0.002 sec
     gradient                   ...        0 min,  0.007 sec
 * total energy  :   -22.1535458 Eh     change       -0.2068355E-06 Eh
   gradient norm :     0.0001487 Eh/α   predicted    -0.1847258E-06 ( -10.69%)
   displ. norm   :     0.0020059 α      lambda       -0.8928532E-07
   maximum displ.:     0.0016455 α      in ANC's #1, #24, #5, ...

........................................................................
.............................. CYCLE    7 ..............................
........................................................................

 iter      E             dE          RMSdq      gap      omega  full diag
   1    -22.4821984 -0.224822E+02  0.154E-03   13.08       0.0  T
   2    -22.4821984 -0.385960E-09  0.902E-04   13.08      24.2  T
   3    -22.4821984  0.198526E-10  0.819E-05   13.08     266.5  T
     SCC iter.                  ...        0 min,  0.001 sec
     gradient                   ...        0 min,  0.007 sec
 * total energy  :   -22.1535458 Eh     change       -0.6393823E-07 Eh
   gradient norm :     0.0000535 Eh/α   predicted    -0.4519560E-07 ( -29.31%)
   displ. norm   :     0.0015600 α      lambda       -0.1235223E-07
   maximum displ.:     0.0013007 α      in ANC's #1, #5, #6, ...

   *** GEOMETRY OPTIMIZATION CONVERGED AFTER 7 ITERATIONS ***

------------------------------------------------------------------------
 total energy gain   :        -0.0008400 Eh       -0.5271 kcal/mol
 total RMSD          :         0.0418573 a0        0.0221 Å
 total power (kW/mol):        -0.3150549 (step)  -21.9920 (real)
------------------------------------------------------------------------

 ANCopt (total)                0 d,  0 h,  0 min,  0.100 sec
 optimizer setup                ...        0 min,  0.000 sec (  0.450%)
 model hessian                  ...        0 min,  0.019 sec ( 19.329%)
 ANC generation                 ...        0 min,  0.001 sec (  0.713%)
 coordinate transformation      ...        0 min,  0.000 sec (  0.059%)
 single point calculation       ...        0 min,  0.077 sec ( 77.255%)
 optimization log               ...        0 min,  0.001 sec (  1.219%)
 hessian update                 ...        0 min,  0.000 sec (  0.061%)
 rational function              ...        0 min,  0.000 sec (  0.464%)

================
 final structure:
================
$coord
        4.69278127846550       -0.00019430892680       -0.15199466817370      C
        1.91626919608608       -0.00011300311826        0.62752416371914      C
        0.56898179531617        2.36055542582979       -0.35407464982144      C
       -2.20779556290540        2.36532313751467        0.42253865475047      C
       -3.53385456138850        0.00014283361615       -0.55532778869678      C
       -2.20798346086288       -2.36520667763850        0.42238330169382      C
        0.56879478728154       -2.36061081697235       -0.35422879520557      C
        4.86299377547252       -0.00003831895406       -2.20141402169867      H
        5.64983195195089        1.66718460487708        0.57619277794107      H
        5.64965873544951       -1.66778992034298        0.57592470942781      H
        1.81224077146468       -0.00017729728339        2.69674067941160      H
        1.50282715215243        4.05034604528198        0.37717996887964      H
        0.70318247223340        2.40846010504956       -2.41431814730158      H
       -2.34203458107418        2.42085624838083        2.48243295401488      H
       -3.13961998792290        4.05259167674508       -0.31606061056929      H
       -5.50927739368852        0.00020139594359        0.04265040133993      H
       -3.49777758195609        0.00020895654892       -2.61975105600585      H
       -2.34222581464300       -2.42086257756948        2.48227421943407      H
       -3.13994246898443       -4.05235333122388       -0.31632442356755      H
        1.50250328595746       -4.05052239986268        0.37692140969399      H
        0.70299550749391       -2.40839630848401       -2.41447489418535      H
$end
 
 Bond Distances (Angstroems)
 ---------------------------
C1-C2=1.5261         C1-H8=1.0882         C1-H9=1.0879         C1-H10=1.0879        C2-C1=1.5261         C2-C3=1.5293         
C2-C7=1.5293         C2-H11=1.0964        C3-C2=1.5293         C3-C4=1.5258         C3-H12=1.0925        C3-H13=1.0928        
C4-C3=1.5258         C4-C5=1.5253         C4-H14=1.0928        C4-H15=1.0923        C5-C4=1.5253         C5-C6=1.5253         
C5-H16=1.0922        C5-H17=1.0926        C6-C5=1.5253         C6-C7=1.5258         C6-H18=1.0928        C6-H19=1.0923        
C7-C2=1.5293         C7-C6=1.5258         C7-H20=1.0925        C7-H21=1.0928        H8-C1=1.0882         H9-C1=1.0879         
H10-C1=1.0879        H11-C2=1.0964        H12-C3=1.0925        H13-C3=1.0928        H14-C4=1.0928        H15-C4=1.0923        
H16-C5=1.0922        H17-C5=1.0926        H18-C6=1.0928        H19-C6=1.0923        H20-C7=1.0925        H21-C7=1.0928        
 C  H  Rav=1.0919 sigma=0.0022  Rmin=1.0879  Rmax=1.0964    14
 C  C  Rav=1.5267 sigma=0.0016  Rmin=1.5253  Rmax=1.5293     7
 
 selected bond angles (degree)
 --------------------
H8-C1-C2=110.43                H9-C1-C2=110.64                H9-C1-H8=108.32                H10-C1-C2=110.64               
H10-C1-H8=108.32               H10-C1-H9=108.41               C3-C2-C1=110.92                C7-C2-C1=110.92                
C7-C2-C3=109.54                H11-C2-C1=108.56               H11-C2-C3=108.41               H11-C2-C7=108.41               
C4-C3-C2=111.03                H12-C3-C2=109.72               H12-C3-C4=109.81               H13-C3-C2=109.12               
H13-C3-C4=109.34               H13-C3-H12=107.76              C5-C4-C3=110.51                H14-C4-C3=109.35               
H14-C4-C5=109.30               H15-C4-C3=109.86               H15-C4-C5=109.98               H15-C4-H14=107.79              
C6-C5-C4=110.28                H16-C5-C4=110.00               H16-C5-C6=110.00               H17-C5-C4=109.34               
H17-C5-C6=109.34               H17-C5-H16=107.84              C7-C6-C5=110.51                H18-C6-C5=109.30               
H18-C6-C7=109.35               H19-C6-C5=109.98               H19-C6-C7=109.86               H19-C6-H18=107.79              
C6-C7-C2=111.03                H20-C7-C2=109.72               H20-C7-C6=109.81               H21-C7-C2=109.12               
H21-C7-C6=109.34               H21-C7-H20=107.76              
 
 selected dihedral angles (degree)
 ---------------------------------
C3-C2-C1-H8=299.02            C3-C2-C1-H9= 58.94            C3-C2-C1-H10=179.10           C7-C2-C1-H8= 60.99            
C7-C2-C1-H9=180.91            C7-C2-C1-H10=301.07           H11-C2-C1-H8=180.00           H11-C2-C1-H9=299.92           
H11-C2-C1-H10= 60.08          C4-C3-C2-C1=179.99            C4-C3-C2-C7= 57.22            C4-C3-C2-H11=299.10           
H12-C3-C2-C1=301.56           H12-C3-C2-C7=178.79           H12-C3-C2-H11= 60.66          H13-C3-C2-C1= 59.41           
H13-C3-C2-C7=296.64           H13-C3-C2-H11=178.51          C5-C4-C3-C2=302.23            C5-C4-C3-H12=180.72           
C5-C4-C3-H13= 62.68           H14-C4-C3-C2= 62.59           H14-C4-C3-H12=301.08          H14-C4-C3-H13=183.04          
H15-C4-C3-C2=180.70           H15-C4-C3-H12= 59.19          H15-C4-C3-H13=301.16          C6-C5-C4-C3= 57.32            
C6-C5-C4-H14=296.93           C6-C5-C4-H15=178.78           H16-C5-C4-C3=178.82           H16-C5-C4-H14= 58.43          
H16-C5-C4-H15=300.28          H17-C5-C4-C3=297.06           H17-C5-C4-H14=176.68          H17-C5-C4-H15= 58.52          
C7-C6-C5-C4=302.68            C7-C6-C5-H16=181.18           C7-C6-C5-H17= 62.94           H18-C6-C5-C4= 63.07           
H18-C6-C5-H16=301.57          H18-C6-C5-H17=183.32          H19-C6-C5-C4=181.22           H19-C6-C5-H16= 59.72          
H19-C6-C5-H17=301.48          C6-C7-C2-C1=180.01            C6-C7-C2-C3=302.78            C6-C7-C2-H11= 60.90           
H20-C7-C2-C1= 58.44           H20-C7-C2-C3=181.21           H20-C7-C2-H11=299.34          H21-C7-C2-C1=300.59           
H21-C7-C2-C3= 63.36           H21-C7-C2-H11=181.49          C2-C7-C6-C5= 57.77            C2-C7-C6-H18=297.41           
C2-C7-C6-H19=179.30           H20-C7-C6-C5=179.28           H20-C7-C6-H18= 58.92          H20-C7-C6-H19=300.81          
H21-C7-C6-C5=297.32           H21-C7-C6-H18=176.96          H21-C7-C6-H19= 58.84          
           -------------------------------------------------
          |                Final Singlepoint                |
           -------------------------------------------------

          ...................................................
          :                      SETUP                      :
          :.................................................:
          :  # basis functions                  42          :
          :  # atomic orbitals                  42          :
          :  # shells                           28          :
          :  # electrons                        42          :
          :  max. iterations                   250          :
          :  Hamiltonian                  GFN2-xTB          :
          :  restarted?                      false          :
          :  GBSA solvation                  false          :
          :  PC potential                    false          :
          :  electronic temp.          300.0000000     K    :
          :  accuracy                    1.0000000          :
          :  -> integral cutoff          0.2500000E+02      :
          :  -> integral neglect         0.1000000E-07      :
          :  -> SCF convergence          0.1000000E-05 Eh   :
          :  -> wf. convergence          0.1000000E-03 e    :
          :  Broyden damping             0.4000000          :
          :  net charge                          0          :
          :  unpaired electrons                  0          :
          ...................................................

 iter      E             dE          RMSdq      gap      omega  full diag
   1    -22.4821984 -0.224822E+02  0.178E-05   13.08       0.0  T
   2    -22.4821984 -0.120792E-12  0.104E-05   13.08    2107.3  T
   3    -22.4821984 -0.390799E-13  0.144E-06   13.08   15101.9  T

   *** convergence criteria satisfied after 3 iterations ***

         #    Occupation            Energy/Eh            Energy/eV
      -------------------------------------------------------------
         1        2.0000           -0.6302232             -17.1492
       ...           ...                  ...                  ...
        15        2.0000           -0.4522703             -12.3069
        16        2.0000           -0.4448830             -12.1059
        17        2.0000           -0.4326031             -11.7717
        18        2.0000           -0.4276197             -11.6361
        19        2.0000           -0.4161366             -11.3237
        20        2.0000           -0.4091229             -11.1328
        21        2.0000           -0.4056640             -11.0387 (HOMO)
        22                          0.0750834               2.0431 (LUMO)
        23                          0.0898377               2.4446
        24                          0.0937350               2.5507
        25                          0.1144856               3.1153
        26                          0.1157133               3.1487
       ...                                ...                  ...
        42                          0.3131444               8.5211
      -------------------------------------------------------------
                  HL-Gap            0.4807475 Eh           13.0818 eV
             Fermi-level           -0.1652903 Eh           -4.4978 eV

 SCC (total)                   0 d,  0 h,  0 min,  0.011 sec
 SCC setup                      ...        0 min,  0.000 sec (  1.467%)
 Dispersion                     ...        0 min,  0.000 sec (  0.745%)
 classical contributions        ...        0 min,  0.000 sec (  0.242%)
 integral evaluation            ...        0 min,  0.002 sec ( 21.772%)
 iterations                     ...        0 min,  0.001 sec ( 13.294%)
 molecular gradient             ...        0 min,  0.007 sec ( 61.337%)
 printout                       ...        0 min,  0.000 sec (  0.949%)

         :::::::::::::::::::::::::::::::::::::::::::::::::::::
         ::                     SUMMARY                     ::
         :::::::::::::::::::::::::::::::::::::::::::::::::::::
         :: total energy             -22.153545844793 Eh    ::
         :: gradient norm              0.000053585232 Eh/a0 ::
         :: HOMO-LUMO gap             13.081804133969 eV    ::
         ::.................................................::
         :: SCC energy               -22.482139005616 Eh    ::
         :: -> isotropic ES            0.003441824736 Eh    ::
         :: -> anisotropic ES          0.006314020568 Eh    ::
         :: -> anisotropic XC          0.012769956579 Eh    ::
         :: -> dispersion             -0.014110042905 Eh    ::
         :: repulsion energy           0.328593160823 Eh    ::
         :: add. restraining           0.000000000000 Eh    ::
         :: total charge               0.000000000000 e     ::
         :::::::::::::::::::::::::::::::::::::::::::::::::::::

           ------------------------------------------------- 
          |                Numerical Hessian                |
           ------------------------------------------------- 
step length          :   0.00500
SCC accuracy         :   0.30000
Hessian scale factor :   1.00000
frozen atoms in %    :   0.00000    0
RMS gradient         :   0.00005
estimated CPU  time      0.02 min
estimated wall time      0.02 min

writing file <hessian>.

 projected vibrational frequencies (cm⁻¹)
eigval :       -0.00    -0.00    -0.00    -0.00     0.00     0.00
eigval :      148.72   209.00   233.53   307.12   326.47   396.10
eigval :      436.45   450.13   554.81   821.76   826.25   884.69
eigval :      914.22   928.58   943.07   978.39   997.89  1014.89
eigval :     1072.47  1094.22  1119.25  1127.09  1143.60  1181.11
eigval :     1216.00  1242.03  1251.18  1258.34  1301.85  1314.20
eigval :     1340.98  1351.84  1356.05  1361.52  1370.10  1415.87
eigval :     1484.73  1488.93  1493.12  1495.48  1504.36  1505.22
eigval :     1507.78  2920.13  2956.15  2958.31  2962.12  2963.19
eigval :     2967.92  2973.90  2976.86  2980.71  2982.23  2983.87
eigval :     3025.81  3027.94  3034.86
           -------------------------------------------------
          |                Property Printout                |
           -------------------------------------------------

    * Orbital Energies and Occupations

         #    Occupation            Energy/Eh            Energy/eV
      -------------------------------------------------------------
         1        2.0000           -0.6302232             -17.1492
       ...           ...                  ...                  ...
         9        2.0000           -0.5016451             -13.6505
        10        2.0000           -0.4962965             -13.5049
        11        2.0000           -0.4891240             -13.3097
        12        2.0000           -0.4825208             -13.1301
        13        2.0000           -0.4637746             -12.6200
        14        2.0000           -0.4603584             -12.5270
        15        2.0000           -0.4522703             -12.3069
        16        2.0000           -0.4448830             -12.1059
        17        2.0000           -0.4326031             -11.7717
        18        2.0000           -0.4276197             -11.6361
        19        2.0000           -0.4161366             -11.3237
        20        2.0000           -0.4091229             -11.1328
        21        2.0000           -0.4056640             -11.0387 (HOMO)
        22                          0.0750835               2.0431 (LUMO)
        23                          0.0898377               2.4446
        24                          0.0937350               2.5507
        25                          0.1144856               3.1153
        26                          0.1157133               3.1487
        27                          0.1160946               3.1591
        28                          0.1354491               3.6858
        29                          0.1729529               4.7063
        30                          0.1849214               5.0320
        31                          0.1852266               5.0403
        32                          0.1884280               5.1274
       ...                                ...                  ...
        42                          0.3131444               8.5211
      -------------------------------------------------------------
                  HL-Gap            0.4807475 Eh           13.0818 eV
             Fermi-level           -0.1652903 Eh           -4.4978 eV

     #   Z          covCN         q      C6AA      α(0)
     1   6 C        3.755    -0.105    22.569     6.774
     2   6 C        3.854    -0.013    20.778     6.483
     3   6 C        3.809    -0.059    21.630     6.620
     4   6 C        3.805    -0.054    21.547     6.608
     5   6 C        3.806    -0.055    21.561     6.610
     6   6 C        3.805    -0.054    21.547     6.608
     7   6 C        3.809    -0.059    21.630     6.620
     8   1 H        0.925     0.033     2.548     2.496
     9   1 H        0.925     0.032     2.554     2.499
    10   1 H        0.925     0.032     2.554     2.499
    11   1 H        0.924     0.027     2.630     2.536
    12   1 H        0.924     0.025     2.652     2.547
    13   1 H        0.924     0.031     2.568     2.506
    14   1 H        0.924     0.029     2.603     2.523
    15   1 H        0.924     0.025     2.657     2.549
    16   1 H        0.924     0.024     2.666     2.553
    17   1 H        0.924     0.031     2.579     2.511
    18   1 H        0.924     0.029     2.603     2.523
    19   1 H        0.924     0.025     2.657     2.549
    20   1 H        0.924     0.025     2.652     2.547
    21   1 H        0.924     0.031     2.568     2.506

 Mol. C6AA /au·bohr⁶  :       3030.987704
 Mol. C8AA /au·bohr⁸  :      64120.798764
 Mol. α(0) /au        :         81.669370


Wiberg/Mayer (AO) data.
largest (>0.10) Wiberg bond orders for each atom

 ---------------------------------------------------------------------------
     #   Z sym  total        # sym  WBO       # sym  WBO       # sym  WBO
 ---------------------------------------------------------------------------
     1   6 C    3.997 --     2 C    1.008     8 H    0.987     9 H    0.987
                            10 H    0.987
     2   6 C    3.996 --     1 C    1.008     3 C    0.998     7 C    0.998
                            11 H    0.968
     3   6 C    3.998 --     4 C    1.008     2 C    0.998    12 H    0.977
                            13 H    0.976
     4   6 C    3.998 --     5 C    1.009     3 C    1.008    14 H    0.978
                            15 H    0.978
     5   6 C    3.998 --     6 C    1.009     4 C    1.009    16 H    0.978
                            17 H    0.978
     6   6 C    3.998 --     5 C    1.009     7 C    1.008    18 H    0.978
                            19 H    0.978
     7   6 C    3.998 --     6 C    1.008     2 C    0.998    20 H    0.977
                            21 H    0.976
     8   1 H    0.999 --     1 C    0.987
     9   1 H    0.999 --     1 C    0.987
    10   1 H    0.999 --     1 C    0.987
    11   1 H    0.999 --     2 C    0.968
    12   1 H    0.999 --     3 C    0.977
    13   1 H    0.999 --     3 C    0.976
    14   1 H    0.999 --     4 C    0.978
    15   1 H    0.999 --     4 C    0.978
    16   1 H    0.999 --     5 C    0.978
    17   1 H    0.999 --     5 C    0.978
    18   1 H    0.999 --     6 C    0.978
    19   1 H    0.999 --     6 C    0.978
    20   1 H    0.999 --     7 C    0.977
    21   1 H    0.999 --     7 C    0.976
 ---------------------------------------------------------------------------

Topologies differ in total number of bonds
Writing topology from bond orders to xtbtopo.mol

molecular dipole:
                 x           y           z       tot (Debye)
 q only:        0.007       0.000      -0.011
   full:        0.008       0.000      -0.010       0.033
molecular quadrupole (traceless):
                xx          xy          yy          xz          yz          zz
 q only:        0.106      -0.000      -0.042      -0.032       0.000      -0.065
  q+dip:       -1.316       0.000      -0.455       0.129      -0.000       1.770
   full:       -0.626       0.000      -0.254       0.052      -0.000       0.879

           -------------------------------------------------
          |                Geometry Summary                 |
           -------------------------------------------------

      molecular mass/u    :       98.1863218
   center of mass at/Å    :       -0.0000071      -0.0000083       0.0000274
  moments of inertia/u·Å² :        0.1187351E+03   0.2281800E+03   0.3130452E+03
rotational constants/cm⁻¹ :        0.1419769E+00   0.7387865E-01   0.5385048E-01

 * 21 selected distances

     #   Z          #   Z                                           value/Å
     1   6 C        2   6 C                                       1.5260750
     2   6 C        3   6 C                                       1.5292651
     3   6 C        4   6 C                                       1.5257974
     4   6 C        5   6 C                                       1.5253467
     5   6 C        6   6 C                                       1.5253466
     2   6 C        7   6 C                                       1.5292652 (max)
     6   6 C        7   6 C                                       1.5257975
     1   6 C        8   1 H                                       1.0882401
     1   6 C        9   1 H                                       1.0878880 (min)
     1   6 C       10   1 H                                       1.0878881
     2   6 C       11   1 H                                       1.0963652
     3   6 C       12   1 H                                       1.0924906
     3   6 C       13   1 H                                       1.0928385
     4   6 C       14   1 H                                       1.0927566
     4   6 C       15   1 H                                       1.0922994
     5   6 C       16   1 H                                       1.0921933
     5   6 C       17   1 H                                       1.0926127
     6   6 C       18   1 H                                       1.0927567
     6   6 C       19   1 H                                       1.0922994
     7   6 C       20   1 H                                       1.0924907
     7   6 C       21   1 H                                       1.0928385

 * 2 distinct bonds (by element types)

   Z      Z             #   av. dist./Å        max./Å        min./Å
   1 H    6 C          14     1.0918541     1.0963652     1.0878880
   6 C    6 C           7     1.5266991     1.5292652     1.5253466

           -------------------------------------------------
          |               Frequency Printout                |
           -------------------------------------------------
 projected vibrational frequencies (cm⁻¹)
eigval :       -0.00    -0.00    -0.00    -0.00     0.00     0.00
eigval :      148.72   209.00   233.53   307.12   326.47   396.10
eigval :      436.45   450.13   554.81   821.76   826.25   884.69
eigval :      914.22   928.58   943.07   978.39   997.89  1014.89
eigval :     1072.47  1094.22  1119.25  1127.09  1143.60  1181.11
eigval :     1216.00  1242.03  1251.18  1258.34  1301.85  1314.20
eigval :     1340.98  1351.84  1356.05  1361.52  1370.10  1415.87
eigval :     1484.73  1488.93  1493.12  1495.48  1504.36  1505.22
eigval :     1507.78  2920.13  2956.15  2958.31  2962.12  2963.19
eigval :     2967.92  2973.90  2976.86  2980.71  2982.23  2983.87
eigval :     3025.81  3027.94  3034.86
 reduced masses (amu)
   1:  9.32   2:  9.46   3: 10.29   4: 10.35   5:  9.46   6:  9.28   7:  7.79   8:  1.99
   9:  5.57  10:  7.95  11:  6.12  12:  9.54  13:  9.17  14:  6.48  15:  6.12  16:  4.51
  17:  7.81  18:  4.49  19:  8.10  20:  5.15  21:  5.11  22:  6.19  23:  4.35  24:  5.34
  25:  1.41  26:  6.84  27:  8.58  28:  3.45  29:  7.68  30:  7.74  31:  5.01  32:  3.28
  33:  3.66  34:  4.01  35:  3.31  36:  3.85  37:  4.41  38:  5.00  39:  4.99  40:  5.36
  41:  5.71  42:  3.14  43:  1.88  44:  1.95  45:  2.04  46:  1.92  47:  1.60  48:  1.60
  49:  1.97  50:  1.74  51:  1.93  52:  1.87  53:  1.99  54:  1.99  55:  1.73  56:  1.52
  57:  1.49  58:  1.52  59:  1.77  60:  1.53  61:  1.93  62:  1.94  63:  1.26
 IR intensities (km·mol⁻¹)
   1:  0.00   2:  0.00   3:  0.00   4:  0.00   5:  0.00   6:  0.00   7:  0.06   8:  0.04
   9:  0.05  10:  0.06  11:  0.12  12:  0.04  13:  0.05  14:  1.21  15:  1.26  16:  0.02
  17:  0.20  18:  1.69  19:  0.84  20:  2.11  21:  3.19  22:  6.55  23:  1.29  24:  3.02
  25:  0.00  26:  0.05  27:  1.30  28:  1.30  29:  0.00  30:  0.81  31:  0.52  32:  0.24
  33:  0.99  34:  1.50  35:  1.79  36:  2.23  37:  2.73  38:  1.24  39:  1.85  40:  0.56
  41:  0.61  42:  1.72  43:  0.03  44:  0.09  45:  0.07  46:  0.36  47:  2.10  48:  1.30
  49:  0.51  50: 30.64  51: 27.98  52:  5.36  53: 28.77  54:  0.09  55: 30.00  56:  3.32
  57: 37.26  58:149.00  59:229.36  60: 65.20  61: 63.96  62: 55.58  63: 34.25
 Raman intensities (Ä⁴*amu⁻¹)
   1:  0.00   2:  0.00   3:  0.00   4:  0.00   5:  0.00   6:  0.00   7:  0.00   8:  0.00
   9:  0.00  10:  0.00  11:  0.00  12:  0.00  13:  0.00  14:  0.00  15:  0.00  16:  0.00
  17:  0.00  18:  0.00  19:  0.00  20:  0.00  21:  0.00  22:  0.00  23:  0.00  24:  0.00
  25:  0.00  26:  0.00  27:  0.00  28:  0.00  29:  0.00  30:  0.00  31:  0.00  32:  0.00
  33:  0.00  34:  0.00  35:  0.00  36:  0.00  37:  0.00  38:  0.00  39:  0.00  40:  0.00
  41:  0.00  42:  0.00  43:  0.00  44:  0.00  45:  0.00  46:  0.00  47:  0.00  48:  0.00
  49:  0.00  50:  0.00  51:  0.00  52:  0.00  53:  0.00  54:  0.00  55:  0.00  56:  0.00
  57:  0.00  58:  0.00  59:  0.00  60:  0.00  61:  0.00  62:  0.00  63:  0.00
 output can be read by thermo (or use thermo option).
 writing <g98.out> molden fake output.
 recommended (thermochemical) frequency scaling factor: 1.0
           -------------------------------------------------
          |             Thermodynamic Functions             |
           -------------------------------------------------

Molecule has the following symmetry elements: (sigma) 
It seems to be the Cs point group
cs  symmetry found (for desy threshold:  0.10E+00) used in thermo

          ...................................................
          :                      SETUP                      :
          :.................................................:
          :  # frequencies                          57      :
          :  # imaginary freq.                       0      :
          :  linear?                             false      :
          :  only rotor calc.                    false      :
          :  symmetry                               cs      :
          :  rotational number                       1      :
          :  scaling factor                  1.0000000      :
          :  rotor cutoff                    0.0000000 cm⁻¹ :
          :  imag. cutoff                 -100.0000000 cm⁻¹ :
          :.................................................:

    mode    ω/cm⁻¹     T·S(HO)/kcal·mol⁻¹    T·S(FR)/kcal·mol⁻¹   T·S(vib)
   ------------------------------------------------------------------------
       1    148.72    -0.80160 (100.00%)    -0.73349 (  0.00%)    -0.80160
       2    209.00    -0.61192 (100.00%)    -0.63273 (  0.00%)    -0.61192
       3    233.53    -0.55206 (100.00%)    -0.59986 (  0.00%)    -0.55206
   ------------------------------------------------------------------------

   temp. (K)  partition function   enthalpy   heat capacity  entropy
                                   cal/mol     cal/K/mol   cal/K/mol   J/K/mol
 298.15  VIB   14.2                 2699.432     22.264     14.322
         ROT  0.222E+06              888.752      2.981     27.449
         INT  0.315E+07             3588.184     25.244     41.771
         TR   0.941E+27             1481.254      4.968     39.645
         TOT                        5069.4384    30.2126    81.4164   340.6463

       T/K    H(0)-H(T)+PV         H(T)/Eh          T*S/Eh         G(T)/Eh
   ------------------------------------------------------------------------
    298.15    0.807866E-02    0.204191E+00    0.386836E-01    0.165508E+00
   ------------------------------------------------------------------------

         :::::::::::::::::::::::::::::::::::::::::::::::::::::
         ::                  THERMODYNAMIC                  ::
         :::::::::::::::::::::::::::::::::::::::::::::::::::::
         :: total free energy         -21.988038278228 Eh   ::
         ::.................................................::
         :: total energy              -22.153545844792 Eh   ::
         :: zero point energy           0.196112470838 Eh   ::
         :: G(RRHO) w/o ZPVE           -0.030604904273 Eh   ::
         :: G(RRHO) contrib.            0.165507566565 Eh   ::
         :::::::::::::::::::::::::::::::::::::::::::::::::::::

optimized geometry written to: xtbopt.coord


           -------------------------------------------------
          | TOTAL ENERGY              -22.153545844792 Eh   |
          | TOTAL ENTHALPY            -21.949354709668 Eh   |
          | TOTAL FREE ENERGY         -21.988038278228 Eh   |
          | GRADIENT NORM               0.000053581191 Eh/α |
          | HOMO-LUMO GAP              13.081804150282 eV   |
           -------------------------------------------------

------------------------------------------------------------------------
 * finished run on 2025/04/15 at 19:15:47.597     
------------------------------------------------------------------------
 total:
 * wall-time:     0 d,  0 h,  0 min,  1.076 sec
 *  cpu-time:     0 d,  0 h,  0 min,  1.047 sec
 * ratio c/w:     0.973 speedup
 SCF:
 * wall-time:     0 d,  0 h,  0 min,  0.044 sec
 *  cpu-time:     0 d,  0 h,  0 min,  0.025 sec
 * ratio c/w:     0.577 speedup
 ANC optimizer:
 * wall-time:     0 d,  0 h,  0 min,  0.115 sec
 *  cpu-time:     0 d,  0 h,  0 min,  0.112 sec
 * ratio c/w:     0.975 speedup
 analytical hessian:
 * wall-time:     0 d,  0 h,  0 min,  0.896 sec
 *  cpu-time:     0 d,  0 h,  0 min,  0.895 sec
 * ratio c/w:     0.999 speedup

