15
 energy: -17.721013619585 gnorm: 0.023853312547 xtb: 6.7.1 (edcfbbe)
C           -1.35778622637219       -0.86047185694990        0.41995603814856
C           -0.57863686709519        0.08654706525473       -0.49569845479744
C           -0.64929911179856        1.52930314330005        0.01000673827739
C            0.86627755395029       -0.37075554682941       -0.66344813474034
O            1.50890692979101       -0.34285147043147        0.61743123753360
H           -2.40746311611668       -0.55758279984881        0.48688198071684
H           -0.93408411326174       -0.85074902671754        1.42821460466873
H           -1.32465061281568       -1.89048517833627        0.04887934665910
H           -1.02422503010676        0.04646723629460       -1.50038759018258
H           -1.68865894479865        1.86665426974905        0.07313280411255
H           -0.11075859801067        2.21170946558895       -0.65633575582182
H           -0.20347900099546        1.60675713993597        1.00567501838214
H            0.88280911887485       -1.39046241635235       -1.08128020006846
H            1.38408465493986        0.29868892633205       -1.36943976178921
H            2.41901909075760       -0.63151982898378        0.50198463916328
15
 energy: -17.721735070484 gnorm: 0.008770064003 xtb: 6.7.1 (edcfbbe)
C           -1.35668729131536       -0.85271667579038        0.41808669058701
C           -0.59032004641918        0.08807019164833       -0.50664193025510
C           -0.65262000826789        1.52195254693742        0.01072526548746
C            0.86206889779124       -0.36755051269538       -0.65218031274403
O            1.50742582165837       -0.34285379731595        0.61388674768415
H           -2.39957737640108       -0.54737836010081        0.49062315884898
H           -0.91710041052588       -0.83737987624482        1.41379579917897
H           -1.32148552238691       -1.87454283682362        0.04132729117624
H           -1.04189683796896        0.05035556075438       -1.50708402865011
H           -1.68698237452680        1.85564568300391        0.08041134812766
H           -0.11697942429953        2.19515060431958       -0.65800728554645
H           -0.19769075220032        1.58274698771135        0.99774626740470
H            0.88830603459584       -1.38708957305345       -1.06358213974979
H            1.38831633164336        0.29850897713899       -1.35134332542484
H            2.41727868556514       -0.63166979748370        0.49780896413748
15
 energy: -17.721825729526 gnorm: 0.002851460777 xtb: 6.7.1 (edcfbbe)
C           -1.35611344960744       -0.85320166549313        0.41687207248316
C           -0.59219788262911        0.08824882873052       -0.50872256904874
C           -0.65199243085287        1.52161958265715        0.00947141183567
C            0.86262023858441       -0.36741536034716       -0.65052376535655
O            1.49769743956097       -0.33987828365939        0.61334094794938
H           -2.39543217076379       -0.54484387929292        0.49750908180787
H           -0.90621074972818       -0.83683574983426        1.40555481241623
H           -1.32501047870457       -1.87232441726081        0.03826905633459
H           -1.04090944199849        0.04975473928054       -1.50857133475273
H           -1.68415867639538        1.85365674634509        0.08786096736359
H           -0.12113355651426        2.19427535917038       -0.66033611574492
H           -0.18977197302080        1.57388445145309        0.99119928828431
H            0.88800875921416       -1.38705140959091       -1.06158881535996
H            1.38807803741987        0.29919907207909       -1.34964536888837
H            2.40858206237752       -0.62783889223141        0.50488284093880
15
 energy: -17.721847222461 gnorm: 0.000866011908 xtb: 6.7.1 (edcfbbe)
C           -1.35568395094797       -0.85365561956949        0.41617747271433
C           -0.59284249985272        0.08802940226318       -0.51106652400977
C           -0.65145813806548        1.52150995846042        0.00872427923359
C            0.86366880256632       -0.36752614840295       -0.64941405095286
O            1.49222692609856       -0.33784178297288        0.61462263331507
H           -2.39312601766899       -0.54157530084972        0.50418624810522
H           -0.89892633152006       -0.84113810759627        1.40156493905200
H           -1.33056091985435       -1.87145507224427        0.03410733202084
H           -1.03952777340924        0.04886465581339       -1.51130132668375
H           -1.68330943690523        1.85199636248888        0.09511957069399
H           -0.12637843735799        2.19517579146908       -0.66431575409100
H           -0.18199837346027        1.57208298315857        0.98689732716891
H            0.88798453884632       -1.38693329099040       -1.06220878127081
H            1.38784788833516        0.29883311876403       -1.35038472254545
H            2.40413945013797       -0.62511782778570        0.51286386751204
15
 energy: -17.721857340613 gnorm: 0.001387289764 xtb: 6.7.1 (edcfbbe)
C           -1.35605835868473       -0.85437614971791        0.41499546486643
C           -0.59254750146827        0.08778045725373       -0.51198320127276
C           -0.65152045264201        1.52189116183440        0.00738177775684
C            0.86522568682018       -0.36770209566828       -0.64778283237676
O            1.48957623709851       -0.33643030238186        0.61651297721642
H           -2.39107397896622       -0.53562708246193        0.51262130893408
H           -0.89202776335412       -0.85061466073204        1.39742312738289
H           -1.34106531724136       -1.87066257570521        0.02684784237230
H           -1.03763145467397        0.04805902811775       -1.51274482280882
H           -1.68395309640065        1.84895516638494        0.10465072494310
H           -0.13588638567081        2.19778043262485       -0.67157983993863
H           -0.17203540271007        1.57449998686593        0.98093668258860
H            0.88951092448192       -1.38715207907983       -1.06210698153619
H            1.38914898614270        0.29801542822543       -1.35052645955892
H            2.40239360421094       -0.62316759355410        0.52092674169375
15
 energy: -17.721861580885 gnorm: 0.000780707057 xtb: 6.7.1 (edcfbbe)
C           -1.35625936669371       -0.85429718197705        0.41454332985092
C           -0.59204924886680        0.08769533386998       -0.51162271702863
C           -0.65178749658734        1.52179387107489        0.00697874450637
C            0.86537592801136       -0.36763101035220       -0.64711143919095
O            1.49067859239707       -0.33645090947770        0.61746151635309
H           -2.39005508097644       -0.53250201421651        0.51502775068313
H           -0.89092841708319       -0.85554043580157        1.39643520531124
H           -1.34574717910436       -1.86956794856106        0.02342237492492
H           -1.03682105599750        0.04783008049049       -1.51275228302347
H           -1.68455585639053        1.84675558954197        0.10774155552853
H           -0.14051498979882        2.19831423531489       -0.67475866268532
H           -0.16883881249855        1.57744930603205        0.97872806945102
H            0.89023964769783       -1.38734235641979       -1.06074839040767
H            1.38994626451954        0.29806072480558       -1.34939499755976
H            2.40337279831347       -0.62331816231812        0.52162245354889
15
 energy: -17.721863700841 gnorm: 0.000275801915 xtb: 6.7.1 (edcfbbe)
C           -1.35661218518448       -0.85438571651236        0.41383775099158
C           -0.59169314233459        0.08762822455191       -0.51138144938095
C           -0.65212414946341        1.52182332285018        0.00627247268525
C            0.86546430157837       -0.36750991572751       -0.64625087819244
O            1.49116061053306       -0.33616006323996        0.61889864184916
H           -2.38884990225806       -0.52911429037097        0.51817907245818
H           -0.88856476982534       -0.86013580037873        1.39435364685726
H           -1.35079816419506       -1.86838178657190        0.01965531845787
H           -1.03604369223173        0.04760000915086       -1.51279625239828
H           -1.68507202408807        1.84451280651266        0.11153126426612
H           -0.14544668315698        2.19885418245520       -0.67819682938663
H           -0.16495801688812        1.57911353153523        0.97575043013230
H            0.89110481878301       -1.38741328806974       -1.05878776789366
H            1.39082336585585        0.29808837900897       -1.34769396757673
H            2.40366535981758       -0.62327047318798        0.52220105739331
15
 energy: -17.721863985411 gnorm: 0.000102733820 xtb: 6.7.1 (edcfbbe)
C           -1.35651638367356       -0.85445044644187        0.41366349218880
C           -0.59185017563248        0.08758316152320       -0.51191059179363
C           -0.65203381116873        1.52176390976560        0.00610109264174
C            0.86539405780314       -0.36745633068252       -0.64606965485099
O            1.49047538515690       -0.33575867838575        0.61959102089183
H           -2.38819561503734       -0.52822862066070        0.51967788008263
H           -0.88722307818062       -0.86170341252536        1.39352975333413
H           -1.35235739966237       -1.86796036504346        0.01840939971602
H           -1.03592042300518        0.04745143787569       -1.51346426017708
H           -1.68486806837169        1.84397539827607        0.11310817398075
H           -0.14694187641657        2.19893549289561       -0.67929184420141
H           -0.16324079021569        1.57933863868552        0.97470307224624
H            0.89131304702740       -1.38744680407384       -1.05819912464352
H            1.39104161027958        0.29811936277213       -1.34721653576721
H            2.40297924803925       -0.62291362197446        0.52294063661405
15
 energy: -17.721864038343 gnorm: 0.000031856034 xtb: 6.7.1 (edcfbbe)
C           -1.35657017186417       -0.85456559860740        0.41356006998156
C           -0.59188935154555        0.08759342209229       -0.51190476075455
C           -0.65203128665505        1.52184691401177        0.00596401532461
C            0.86541266863033       -0.36744959837171       -0.64599160131851
O            1.49025397976922       -0.33563487585179        0.61978228837474
H           -2.38811679743966       -0.52809870916315        0.52016690470775
H           -0.88671664284144       -0.86211539393758        1.39313205926131
H           -1.35279697329221       -1.86797787973554        0.01800702228596
H           -1.03603762345267        0.04749850612728       -1.51337156275837
H           -1.68482930294866        1.84400856072018        0.11353131606463
H           -0.14726505375263        2.19904188903348       -0.67967239125916
H           -0.16271603854159        1.57925576751810        0.97428892770937
H            0.89143947699042       -1.38745500272128       -1.05805463614792
H            1.39115404955267        0.29808102316238       -1.34709839450778
H            2.40276479433303       -0.62277990227117        0.52323325329868
