 Entering Gaussian System
 *********************************************
 Gaussian 98:
 frequency output generated by the xtb code
 *********************************************
                         Standard orientation:
 --------------------------------------------------------------------
  Center     Atomic     Atomic              Coordinates (Angstroms)
  Number     Number      Type              X           Y           Z
 --------------------------------------------------------------------
    1          6             0        2.453167   -1.201243    0.001168
    2          6             0        1.702243    0.105151    0.000030
    3          8             0        2.270047    1.173321   -0.000742
    4          6             0        0.215782    0.027636    0.000051
    5          6             0       -0.513799    1.219033    0.000646
    6          6             0       -1.894649    1.169306    0.000610
    7          6             0       -2.503002   -0.078594    0.000007
    8          7             0       -1.826743   -1.215118   -0.000644
    9          6             0       -0.508314   -1.165420   -0.000639
   10          1             0        3.521532   -1.000685    0.002262
   11          1             0        2.195554   -1.781055   -0.882518
   12          1             0        2.193584   -1.780925    0.884350
   13          1             0        0.022675    2.156986    0.001109
   14          1             0       -2.486187    2.071495    0.001059
   15          1             0       -3.580488   -0.178766    0.000037
   16          1             0       -0.018905   -2.129730   -0.001294
 --------------------------------------------------------------------
     1 basis functions        1 primitive gaussians
     1 alpha electrons        1 beta electrons
 
 Harmonic frequencies (cm**-1), IR intensities (km*mol⁻¹),
 Raman scattering activities (A**4/amu), Raman depolarization ratios,
 reduced masses (AMU), force constants (mDyne/A) and normal coordinates:
                      1                      2                      3
                        a                      a                      a 
 Frequencies --    13.3315               133.7846               185.0880
 Red. masses --    11.3292                10.3163                 1.6866
 Frc consts  --     0.0000                 0.0000                 0.0000
 IR Inten    --     7.7462                 1.7778                 0.9578
 Raman Activ --     0.0000                 0.0000                 0.0000
 Depolar     --     0.0000                 0.0000                 0.0000
 Atom AN      X      Y      Z        X      Y      Z        X      Y      Z
   1   6     0.00  -0.00  -0.49    -0.00  -0.00   0.17    -0.00  -0.00   0.06
   2   6     0.00   0.00   0.04     0.00   0.00  -0.05     0.00   0.00  -0.05
   3   8    -0.00   0.00   0.53     0.00   0.00   0.33     0.00  -0.00   0.12
   4   6    -0.00  -0.00   0.02     0.00   0.00  -0.42     0.00   0.00  -0.11
   5   6    -0.00   0.00  -0.25    -0.00   0.00  -0.38    -0.00   0.00  -0.03
   6   6     0.00   0.00  -0.28    -0.00  -0.00   0.03    -0.00  -0.00   0.07
   7   6    -0.00   0.00  -0.04     0.00  -0.00   0.44     0.00  -0.00   0.04
   8   7    -0.00  -0.00   0.27     0.00  -0.00   0.13     0.00  -0.00  -0.06
   9   6    -0.00  -0.00   0.28     0.00   0.00  -0.36     0.00   0.00  -0.11
  10   1     0.00  -0.00  -0.23    -0.00  -0.00   0.18     0.00  -0.00  -0.49
  11   1    -0.08   0.05  -0.15     0.11   0.02   0.01    -0.38  -0.31   0.34
  12   1     0.08  -0.05  -0.15    -0.11  -0.02   0.01     0.38   0.31   0.34
  13   1     0.00   0.00  -0.13    -0.00   0.00  -0.16    -0.00   0.00  -0.00
  14   1     0.00   0.00  -0.14    -0.00  -0.00   0.04    -0.00  -0.00   0.05
  15   1    -0.00   0.00  -0.02     0.00  -0.00   0.29     0.00  -0.00   0.03
  16   1    -0.00  -0.00   0.16     0.00   0.00  -0.18     0.00   0.00  -0.03
                      4                      5                      6
                        a                      a                      a 
 Frequencies --   205.0205               328.1026               356.7849
 Red. masses --    11.0880                 8.8318                11.0476
 Frc consts  --     0.0000                 0.0000                 0.0000
 IR Inten    --     7.6941                 0.1142                 1.6114
 Raman Activ --     0.0000                 0.0000                 0.0000
 Depolar     --     0.0000                 0.0000                 0.0000
 Atom AN      X      Y      Z        X      Y      Z        X      Y      Z
   1   6     0.43   0.19   0.00     0.00  -0.00  -0.05    -0.49  -0.05   0.00
   2   6    -0.02  -0.09  -0.00    -0.00  -0.00   0.21    -0.12   0.11  -0.00
   3   8    -0.42   0.12   0.00    -0.00  -0.00  -0.11    -0.41   0.26   0.00
   4   6    -0.01  -0.32  -0.00    -0.00  -0.00   0.33     0.03  -0.11  -0.00
   5   6     0.19  -0.20  -0.00    -0.00   0.00   0.24     0.24  -0.03   0.00
   6   6     0.20   0.10   0.00    -0.00   0.00  -0.50     0.28   0.04  -0.00
   7   6    -0.02   0.21   0.00     0.00  -0.00   0.23     0.30   0.03  -0.00
   8   7    -0.24   0.09  -0.00     0.00   0.00   0.17     0.16  -0.07   0.00
   9   6    -0.20  -0.20  -0.00     0.00   0.00  -0.38     0.14  -0.16  -0.00
  10   1     0.10   0.16  -0.00     0.00  -0.00  -0.10    -0.11  -0.17   0.00
  11   1     0.17   0.03   0.00    -0.07   0.03  -0.02    -0.23   0.02  -0.00
  12   1     0.18   0.03  -0.00     0.07  -0.03  -0.02    -0.23   0.02  -0.00
  13   1     0.11  -0.09  -0.00    -0.00  -0.00   0.15     0.12  -0.04   0.00
  14   1     0.11   0.06   0.00    -0.00   0.00  -0.33     0.08   0.01  -0.00
  15   1    -0.01   0.11   0.00     0.00  -0.00   0.19     0.08   0.03  -0.00
  16   1    -0.10  -0.08  -0.00     0.00   0.00  -0.33     0.03  -0.05  -0.00
                      7                      8                      9
                        a                      a                      a 
 Frequencies --   380.6358               449.8221               580.5004
 Red. masses --    10.6922                11.9086                11.7720
 Frc consts  --     0.0000                 0.0000                 0.0000
 IR Inten    --     3.6965                 0.8380                11.5447
 Raman Activ --     0.0000                 0.0000                 0.0000
 Depolar     --     0.0000                 0.0000                 0.0000
 Atom AN      X      Y      Z        X      Y      Z        X      Y      Z
   1   6     0.00   0.00   0.04     0.16  -0.12   0.00     0.15  -0.38  -0.00
   2   6     0.00   0.00  -0.32    -0.27  -0.31  -0.00     0.29  -0.10  -0.01
   3   8     0.00   0.00   0.14    -0.45  -0.30   0.00    -0.34   0.23   0.00
   4   6     0.00   0.00  -0.43    -0.14   0.23  -0.00     0.23  -0.02   0.00
   5   6    -0.00  -0.00   0.42    -0.03   0.34   0.00    -0.19  -0.21   0.00
   6   6    -0.00  -0.00  -0.13    -0.00   0.11   0.00    -0.25   0.04  -0.00
   7   6    -0.00   0.00  -0.27     0.24  -0.04  -0.00    -0.20   0.06   0.00
   8   7    -0.00  -0.00   0.50     0.23  -0.04   0.00     0.22   0.34  -0.00
   9   6    -0.00   0.00  -0.08     0.18   0.14  -0.00     0.19   0.11   0.00
  10   1     0.00   0.00   0.09     0.01   0.15   0.00     0.07  -0.26   0.00
  11   1     0.07  -0.08   0.04     0.15  -0.08  -0.00    -0.04  -0.08   0.00
  12   1    -0.07   0.08   0.04     0.15  -0.07   0.00    -0.05  -0.07  -0.00
  13   1    -0.00  -0.00   0.33    -0.01   0.10   0.00    -0.10  -0.03  -0.00
  14   1    -0.00   0.00  -0.04    -0.07  -0.01   0.00    -0.01   0.05  -0.00
  15   1    -0.00   0.00  -0.17     0.07  -0.03  -0.00    -0.05  -0.09   0.00
  16   1    -0.00  -0.00  -0.01     0.13   0.08   0.00    -0.01  -0.00  -0.00
                     10                     11                     12
                        a                      a                      a 
 Frequencies --   582.7778               602.1420               682.4099
 Red. masses --     9.0819                11.5778                 8.8195
 Frc consts  --     0.0000                 0.0000                 0.0000
 IR Inten    --     1.2335                 9.1380                16.7607
 Raman Activ --     0.0000                 0.0000                 0.0000
 Depolar     --     0.0000                 0.0000                 0.0000
 Atom AN      X      Y      Z        X      Y      Z        X      Y      Z
   1   6    -0.00   0.00  -0.05    -0.10   0.20  -0.00    -0.00   0.00  -0.01
   2   6    -0.00   0.00  -0.63    -0.20   0.04  -0.00    -0.00   0.00  -0.05
   3   8     0.00  -0.00   0.21     0.18  -0.18   0.00     0.00  -0.00   0.02
   4   6    -0.00   0.00   0.36    -0.11  -0.20   0.00    -0.00  -0.00   0.36
   5   6     0.00   0.00   0.10    -0.25  -0.25   0.00    -0.00   0.00  -0.24
   6   6     0.00  -0.00  -0.11    -0.26   0.34  -0.00     0.00  -0.00   0.37
   7   6     0.00  -0.00   0.19     0.14   0.17   0.00     0.00   0.00  -0.30
   8   7    -0.00  -0.00  -0.23     0.29   0.25  -0.00    -0.00  -0.00   0.41
   9   6    -0.00  -0.00   0.14     0.26  -0.36   0.00     0.00   0.00  -0.31
  10   1    -0.00   0.00   0.17    -0.05   0.17   0.00    -0.00   0.00   0.01
  11   1     0.18  -0.24   0.10     0.03   0.03  -0.00     0.02  -0.03   0.01
  12   1    -0.18   0.25   0.10     0.03   0.04   0.00    -0.02   0.03   0.01
  13   1     0.00   0.00  -0.12     0.02  -0.12  -0.00     0.00   0.00  -0.29
  14   1     0.00  -0.00  -0.19    -0.04   0.11  -0.00     0.00   0.00  -0.07
  15   1     0.00   0.00   0.04     0.05  -0.07   0.00    -0.00   0.00  -0.34
  16   1     0.00   0.00  -0.07     0.01  -0.13  -0.00     0.00   0.00  -0.33
                     13                     14                     15
                        a                      a                      a 
 Frequencies --   759.7650               784.2517               896.1221
 Red. masses --    11.3163                 4.8600                 3.5691
 Frc consts  --     0.0000                 0.0000                 0.0000
 IR Inten    --    10.0613                 7.2283                 0.2431
 Raman Activ --     0.0000                 0.0000                 0.0000
 Depolar     --     0.0000                 0.0000                 0.0000
 Atom AN      X      Y      Z        X      Y      Z        X      Y      Z
   1   6    -0.22   0.27  -0.00    -0.00   0.00  -0.07    -0.00   0.00  -0.01
   2   6    -0.22  -0.10  -0.00    -0.00   0.00  -0.08     0.00   0.00   0.01
   3   8    -0.08  -0.24   0.00     0.00   0.00   0.02    -0.00  -0.00  -0.01
   4   6     0.24   0.02   0.00    -0.00  -0.00   0.34    -0.00  -0.00   0.03
   5   6     0.16  -0.24  -0.00    -0.00   0.00  -0.27     0.00  -0.00   0.13
   6   6     0.18  -0.36  -0.00     0.00   0.00  -0.11     0.00  -0.00   0.18
   7   6    -0.33  -0.04  -0.00     0.00   0.00  -0.25    -0.00  -0.00   0.01
   8   7     0.17   0.33   0.00    -0.00  -0.00   0.14     0.00   0.00   0.02
   9   6     0.10   0.29   0.00    -0.00   0.00  -0.23     0.00   0.00  -0.43
  10   1    -0.09   0.24  -0.00    -0.00   0.00   0.06    -0.00   0.00   0.02
  11   1     0.02   0.04  -0.00     0.07  -0.10   0.03     0.01  -0.01   0.00
  12   1     0.02   0.04   0.00    -0.07   0.10   0.03    -0.01   0.01   0.00
  13   1    -0.03  -0.03   0.00    -0.00  -0.00   0.37     0.00   0.00  -0.18
  14   1     0.17  -0.03   0.00    -0.00  -0.00   0.50     0.00   0.00  -0.42
  15   1    -0.09  -0.05  -0.00     0.00  -0.00   0.41    -0.00  -0.00   0.05
  16   1    -0.02   0.06  -0.00    -0.00  -0.00   0.26    -0.00  -0.00   0.75
                     16                     17                     18
                        a                      a                      a 
 Frequencies --   922.2741               934.6191               980.8398
 Red. masses --     4.4231                 3.8193                 8.2877
 Frc consts  --     0.0000                 0.0000                 0.0000
 IR Inten    --     0.6738                 0.7403                20.0522
 Raman Activ --     0.0000                 0.0000                 0.0000
 Depolar     --     0.0000                 0.0000                 0.0000
 Atom AN      X      Y      Z        X      Y      Z        X      Y      Z
   1   6     0.00  -0.00   0.02    -0.00  -0.00  -0.03     0.09   0.47   0.00
   2   6    -0.00   0.00  -0.01    -0.00   0.00   0.02     0.23  -0.29  -0.00
   3   8     0.00   0.00   0.00     0.00   0.00  -0.01    -0.14  -0.29   0.00
   4   6    -0.00   0.00  -0.09     0.00   0.00   0.01     0.12  -0.02   0.00
   5   6     0.00   0.00   0.09    -0.00   0.00  -0.40    -0.08  -0.09  -0.00
   6   6     0.00  -0.00   0.24    -0.00  -0.00   0.27    -0.11   0.15   0.00
   7   6    -0.00   0.00  -0.45     0.00  -0.00   0.09     0.16  -0.01   0.00
   8   7    -0.00   0.00   0.01    -0.00  -0.00  -0.07    -0.05  -0.13  -0.00
   9   6     0.00  -0.00   0.19    -0.00  -0.00   0.09    -0.06   0.20  -0.00
  10   1     0.00  -0.00  -0.02    -0.00   0.00   0.02     0.09  -0.27  -0.00
  11   1    -0.02   0.02  -0.01     0.02  -0.04   0.01    -0.30   0.24   0.01
  12   1     0.02  -0.02  -0.01    -0.02   0.04   0.01    -0.29   0.24  -0.02
  13   1     0.00   0.00  -0.13    -0.00  -0.00   0.71    -0.01  -0.03   0.00
  14   1     0.00   0.00  -0.34     0.00   0.00  -0.48    -0.06   0.02   0.00
  15   1     0.00  -0.00   0.71     0.00   0.00  -0.11     0.04  -0.00   0.00
  16   1     0.00   0.00  -0.22    -0.00   0.00  -0.04     0.00   0.06   0.00
                     19                     20                     21
                        a                      a                      a 
 Frequencies --   987.5349              1000.1251              1091.7532
 Red. masses --     6.0208                 9.6983                 8.1295
 Frc consts  --     0.0000                 0.0000                 0.0000
 IR Inten    --    16.9473                10.1888                 3.2890
 Raman Activ --     0.0000                 0.0000                 0.0000
 Depolar     --     0.0000                 0.0000                 0.0000
 Atom AN      X      Y      Z        X      Y      Z        X      Y      Z
   1   6     0.00   0.00  -0.40    -0.16  -0.13   0.00     0.11  -0.03   0.00
   2   6     0.00  -0.00   0.50    -0.01   0.04  -0.00    -0.11   0.07  -0.00
   3   8    -0.00  -0.00  -0.10     0.00   0.08  -0.00     0.03  -0.01   0.00
   4   6     0.00   0.00  -0.15     0.19   0.02   0.00    -0.12  -0.02   0.00
   5   6    -0.00  -0.00   0.05    -0.16  -0.47  -0.00    -0.19  -0.14  -0.00
   6   6    -0.00   0.00   0.01    -0.06   0.18   0.00     0.13  -0.38  -0.00
   7   6     0.00  -0.00  -0.01     0.32   0.05  -0.00     0.46   0.12   0.00
   8   7    -0.00  -0.00   0.01    -0.11  -0.28  -0.00     0.03   0.33   0.00
   9   6    -0.00   0.00   0.03    -0.14   0.43   0.00    -0.16   0.06   0.00
  10   1     0.00  -0.00   0.21    -0.09   0.23  -0.00     0.04  -0.10   0.00
  11   1     0.24  -0.42   0.11     0.15  -0.10  -0.01    -0.03   0.00   0.01
  12   1    -0.25   0.42   0.11     0.15  -0.10   0.01    -0.03   0.00  -0.01
  13   1    -0.00  -0.00  -0.08    -0.02  -0.14  -0.00    -0.31   0.10   0.00
  14   1    -0.00   0.00  -0.01     0.07   0.10   0.00    -0.24  -0.30  -0.00
  15   1     0.00   0.00  -0.01     0.08   0.09   0.00     0.11   0.23   0.00
  16   1     0.00   0.00  -0.05     0.11   0.20   0.00    -0.18  -0.05  -0.00
                     22                     23                     24
                        a                      a                      a 
 Frequencies --  1102.2753              1132.7841              1196.3006
 Red. masses --     7.3384                 3.0737                 3.2080
 Frc consts  --     0.0000                 0.0000                 0.0000
 IR Inten    --    32.7553                 2.9207                 7.1226
 Raman Activ --     0.0000                 0.0000                 0.0000
 Depolar     --     0.0000                 0.0000                 0.0000
 Atom AN      X      Y      Z        X      Y      Z        X      Y      Z
   1   6     0.32  -0.08   0.00     0.03   0.02   0.00    -0.01   0.01   0.00
   2   6    -0.36   0.22  -0.00    -0.03  -0.00  -0.00     0.02  -0.01  -0.00
   3   8     0.09  -0.03   0.00    -0.02  -0.04   0.00    -0.02  -0.02   0.00
   4   6    -0.40   0.04   0.00     0.04   0.11   0.00     0.00   0.05   0.00
   5   6    -0.03  -0.20  -0.00    -0.16  -0.03   0.00    -0.05  -0.05  -0.00
   6   6     0.11  -0.05  -0.00     0.12  -0.03  -0.00    -0.03  -0.08  -0.00
   7   6    -0.05  -0.04   0.00    -0.05   0.14   0.00    -0.21   0.16   0.00
   8   7     0.11   0.02  -0.00    -0.06  -0.17  -0.00    -0.05  -0.10  -0.00
   9   6    -0.01   0.19   0.00     0.15  -0.21  -0.00     0.30  -0.08  -0.00
  10   1     0.14  -0.36   0.00     0.02  -0.05   0.00     0.00  -0.03  -0.00
  11   1    -0.11   0.03   0.01    -0.02   0.02  -0.00    -0.00   0.02  -0.01
  12   1    -0.11   0.03  -0.01    -0.02   0.02   0.00    -0.00   0.02   0.01
  13   1     0.22  -0.19   0.00    -0.59   0.29   0.00     0.20  -0.14  -0.00
  14   1     0.28   0.14   0.00     0.48   0.28   0.00    -0.27  -0.19  -0.00
  15   1    -0.01  -0.07  -0.00    -0.03   0.23   0.00    -0.12   0.70   0.00
  16   1     0.20   0.16   0.00     0.14  -0.01  -0.00     0.34   0.11   0.00
                     25                     26                     27
                        a                      a                      a 
 Frequencies --  1247.5223              1265.3173              1287.5996
 Red. masses --     9.9693                 3.4693                11.8105
 Frc consts  --     0.0000                 0.0000                 0.0000
 IR Inten    --   205.2983                 1.4294                 1.8523
 Raman Activ --     0.0000                 0.0000                 0.0000
 Depolar     --     0.0000                 0.0000                 0.0000
 Atom AN      X      Y      Z        X      Y      Z        X      Y      Z
   1   6     0.19  -0.06   0.00    -0.01   0.01  -0.00     0.02  -0.00   0.00
   2   6    -0.55   0.24  -0.00    -0.05   0.04  -0.00     0.02  -0.04  -0.00
   3   8     0.02  -0.08   0.00     0.01  -0.00   0.00    -0.03  -0.01   0.00
   4   6     0.53  -0.03   0.00     0.03  -0.11  -0.00    -0.00   0.45   0.00
   5   6     0.14   0.00   0.00     0.28  -0.11  -0.00     0.27  -0.15  -0.00
   6   6    -0.09   0.21   0.00    -0.03   0.04   0.00    -0.33  -0.20  -0.00
   7   6    -0.09  -0.02  -0.00    -0.06   0.27   0.00    -0.02   0.38   0.00
   8   7    -0.05  -0.19  -0.00    -0.02   0.02   0.00     0.39  -0.23  -0.00
   9   6     0.07   0.04  -0.00    -0.16  -0.11  -0.00    -0.35  -0.18  -0.00
  10   1     0.07  -0.19   0.00     0.01  -0.07   0.00     0.00   0.02  -0.00
  11   1    -0.04  -0.02   0.03     0.02   0.02  -0.02    -0.02   0.00   0.00
  12   1    -0.04  -0.02  -0.03     0.02   0.02   0.02    -0.02   0.00  -0.00
  13   1    -0.10   0.09  -0.00    -0.27   0.17   0.00     0.10  -0.05  -0.00
  14   1    -0.20  -0.06  -0.00    -0.29  -0.17  -0.00     0.07   0.05   0.00
  15   1    -0.03   0.05   0.00     0.02  -0.37  -0.00     0.01   0.06   0.00
  16   1    -0.25  -0.13  -0.00     0.58   0.29   0.00    -0.16  -0.09  -0.00
                     28                     29                     30
                        a                      a                      a 
 Frequencies --  1364.7936              1402.8734              1434.3931
 Red. masses --     3.3355                10.0115                 8.6527
 Frc consts  --     0.0000                 0.0000                 0.0000
 IR Inten    --    34.4822                 3.2224                12.3704
 Raman Activ --     0.0000                 0.0000                 0.0000
 Depolar     --     0.0000                 0.0000                 0.0000
 Atom AN      X      Y      Z        X      Y      Z        X      Y      Z
   1   6    -0.18   0.42  -0.00     0.01   0.02   0.00    -0.06  -0.02  -0.00
   2   6     0.05  -0.03   0.00    -0.05   0.00  -0.00    -0.11   0.04  -0.00
   3   8    -0.01  -0.01   0.00    -0.05  -0.06   0.00     0.00  -0.02   0.00
   4   6    -0.02  -0.02  -0.00     0.24   0.45   0.00     0.34  -0.19  -0.00
   5   6     0.01   0.01   0.00    -0.24  -0.05  -0.00    -0.01   0.29   0.00
   6   6    -0.02  -0.01  -0.00     0.11  -0.21  -0.00    -0.38  -0.23  -0.00
   7   6     0.00  -0.01  -0.00     0.14   0.22   0.00     0.24  -0.17  -0.00
   8   7     0.04  -0.00   0.00    -0.47   0.06   0.00    -0.04   0.25   0.00
   9   6    -0.02   0.01   0.00     0.23  -0.23  -0.00    -0.26  -0.12  -0.00
  10   1     0.07  -0.46  -0.00     0.01  -0.06  -0.00     0.02  -0.12   0.00
  11   1     0.24  -0.42   0.24     0.01  -0.01   0.01     0.10   0.10  -0.10
  12   1     0.24  -0.42  -0.23     0.01  -0.01  -0.01     0.10   0.10   0.10
  13   1     0.00   0.01  -0.00     0.22  -0.18  -0.00     0.18  -0.02  -0.00
  14   1     0.02   0.01   0.00     0.04  -0.06  -0.00     0.25   0.17   0.00
  15   1    -0.00   0.03   0.00     0.08  -0.34  -0.00     0.05   0.17   0.00
  16   1    -0.01   0.00   0.00     0.07  -0.06  -0.00     0.26   0.13   0.00
                     31                     32                     33
                        a                      a                      a 
 Frequencies --  1458.1495              1461.1870              1561.2126
 Red. masses --     2.2252                 1.6130                11.7732
 Frc consts  --     0.0000                 0.0000                 0.0000
 IR Inten    --    14.8598                11.8137                24.4957
 Raman Activ --     0.0000                 0.0000                 0.0000
 Depolar     --     0.0000                 0.0000                 0.0000
 Atom AN      X      Y      Z        X      Y      Z        X      Y      Z
   1   6    -0.22  -0.02   0.00     0.00  -0.00   0.23     0.01   0.00   0.00
   2   6     0.05   0.02   0.00    -0.00  -0.00   0.03     0.03   0.02  -0.00
   3   8    -0.03  -0.06   0.00     0.00   0.00   0.00    -0.03  -0.04   0.00
   4   6    -0.09   0.07  -0.00     0.00  -0.00  -0.01    -0.11   0.43   0.00
   5   6     0.00  -0.08  -0.00     0.00   0.00   0.00     0.38  -0.31  -0.00
   6   6     0.10   0.07   0.00    -0.00  -0.00   0.00    -0.12   0.22   0.00
   7   6    -0.06   0.02   0.00     0.00  -0.00   0.00     0.10  -0.53  -0.00
   8   7     0.03  -0.07  -0.00    -0.00   0.00   0.00    -0.21   0.30   0.00
   9   6     0.05   0.04   0.00    -0.00  -0.00  -0.00     0.01  -0.18  -0.00
  10   1     0.05  -0.39  -0.00     0.00   0.00  -0.73     0.00   0.00   0.00
  11   1     0.40   0.30  -0.32     0.44  -0.04  -0.08    -0.01  -0.01   0.01
  12   1     0.40   0.30   0.32    -0.44   0.03  -0.08    -0.01  -0.01  -0.01
  13   1    -0.04   0.00   0.00     0.00   0.00  -0.00    -0.11   0.04   0.00
  14   1    -0.06  -0.04  -0.00     0.00   0.00  -0.00    -0.06   0.04   0.00
  15   1    -0.01  -0.03  -0.00     0.00   0.00  -0.00    -0.01   0.15   0.00
  16   1    -0.14  -0.07  -0.00     0.00   0.00   0.01     0.06  -0.01  -0.00
                     34                     35                     36
                        a                      a                      a 
 Frequencies --  1571.8182              1731.3962              3027.7812
 Red. masses --    11.6707                13.3863                 1.9531
 Frc consts  --     0.0000                 0.0000                 0.0000
 IR Inten    --    89.6979               290.0253                 9.6373
 Raman Activ --     0.0000                 0.0000                 0.0000
 Depolar     --     0.0000                 0.0000                 0.0000
 Atom AN      X      Y      Z        X      Y      Z        X      Y      Z
   1   6    -0.00  -0.01  -0.00    -0.00   0.05  -0.00    -0.00  -0.00  -0.29
   2   6     0.02   0.04   0.00    -0.35  -0.70   0.00    -0.00  -0.00  -0.01
   3   8     0.01  -0.01  -0.00     0.29   0.54  -0.00     0.00   0.00   0.00
   4   6    -0.24  -0.20  -0.00    -0.00   0.04  -0.00    -0.00   0.00   0.00
   5   6     0.40  -0.00  -0.00     0.03  -0.03  -0.00     0.00   0.00  -0.00
   6   6    -0.45  -0.24  -0.00    -0.02   0.00   0.00    -0.00   0.00  -0.00
   7   6     0.15   0.21   0.00     0.01  -0.01  -0.00    -0.00   0.00  -0.00
   8   7    -0.30  -0.05  -0.00    -0.03   0.01   0.00    -0.00   0.00   0.00
   9   6     0.47   0.24   0.00     0.04   0.01  -0.00    -0.00   0.00   0.00
  10   1    -0.00   0.01  -0.00     0.01  -0.07   0.00    -0.00  -0.00  -0.04
  11   1     0.01   0.00  -0.01    -0.00   0.04  -0.03     0.17   0.38   0.55
  12   1     0.01   0.00   0.01    -0.00   0.04   0.03    -0.17  -0.37   0.53
  13   1    -0.05   0.09   0.00    -0.02   0.00  -0.00    -0.00  -0.00   0.00
  14   1     0.08   0.07   0.00    -0.01  -0.00  -0.00     0.00  -0.00   0.00
  15   1     0.05  -0.05  -0.00     0.00   0.00  -0.00     0.00   0.00  -0.00
  16   1    -0.13  -0.06  -0.00    -0.00  -0.01  -0.00     0.00  -0.00   0.00
                     37                     38                     39
                        a                      a                      a 
 Frequencies --  3031.3321              3056.2778              3061.4246
 Red. masses --     1.4501                 1.7586                 1.7964
 Frc consts  --     0.0000                 0.0000                 0.0000
 IR Inten    --     4.1300                11.5660                17.0941
 Raman Activ --     0.0000                 0.0000                 0.0000
 Depolar     --     0.0000                 0.0000                 0.0000
 Atom AN      X      Y      Z        X      Y      Z        X      Y      Z
   1   6    -0.07  -0.19   0.00     0.25   0.06   0.00    -0.01  -0.00  -0.00
   2   6    -0.00  -0.01   0.00     0.01   0.00   0.00    -0.00   0.00   0.00
   3   8     0.00   0.00  -0.00    -0.00  -0.00   0.00     0.00   0.00  -0.00
   4   6    -0.00   0.00  -0.00    -0.00  -0.00   0.00    -0.00  -0.00  -0.00
   5   6     0.00   0.00   0.00    -0.00  -0.00  -0.00    -0.00   0.00   0.00
   6   6    -0.00   0.00   0.00     0.00  -0.00  -0.00    -0.01   0.03   0.00
   7   6    -0.00   0.00   0.00     0.01   0.00  -0.00     0.26   0.03  -0.00
   8   7    -0.00   0.00  -0.00     0.00  -0.00  -0.00     0.01  -0.00  -0.00
   9   6    -0.01   0.01   0.00     0.01  -0.01  -0.00    -0.01   0.01   0.00
  10   1    -0.06  -0.03   0.00    -0.94  -0.18  -0.00     0.02   0.00   0.00
  11   1     0.16   0.34   0.57     0.02  -0.01  -0.03    -0.00  -0.00  -0.00
  12   1     0.16   0.35  -0.58     0.02  -0.01   0.03    -0.00  -0.00   0.00
  13   1    -0.00  -0.00  -0.00     0.00   0.00   0.00     0.00  -0.00  -0.00
  14   1     0.00  -0.00  -0.00    -0.00   0.00   0.00     0.07  -0.11  -0.00
  15   1     0.00   0.00   0.00    -0.03  -0.00   0.00    -0.95  -0.09   0.00
  16   1     0.02  -0.04  -0.00    -0.03   0.05   0.00     0.02  -0.05  -0.00
                     40                     41                     42
                        a                      a                      a 
 Frequencies --  3068.8450              3083.2551              3097.2535
 Red. masses --     1.8009                 1.8057                 1.8906
 Frc consts  --     0.0000                 0.0000                 0.0000
 IR Inten    --    16.5670                 3.7284                30.1034
 Raman Activ --     0.0000                 0.0000                 0.0000
 Depolar     --     0.0000                 0.0000                 0.0000
 Atom AN      X      Y      Z        X      Y      Z        X      Y      Z
   1   6    -0.02  -0.01   0.00     0.00   0.00   0.00     0.00   0.00   0.00
   2   6     0.00  -0.00  -0.00     0.00   0.00  -0.00     0.00   0.00  -0.00
   3   8    -0.00   0.00   0.00    -0.00  -0.00   0.00    -0.00  -0.00   0.00
   4   6     0.01  -0.00  -0.00     0.01   0.00   0.00     0.00  -0.00  -0.00
   5   6    -0.01  -0.01  -0.00     0.13   0.22   0.00     0.05   0.09   0.00
   6   6    -0.00   0.00   0.00     0.05  -0.08  -0.00    -0.14   0.22   0.00
   7   6     0.01   0.00   0.00     0.02  -0.00  -0.00    -0.04  -0.01  -0.00
   8   7     0.01  -0.01  -0.00    -0.00   0.00   0.00     0.00  -0.00  -0.00
   9   6     0.11  -0.24  -0.00     0.00  -0.01  -0.00     0.00  -0.00  -0.00
  10   1     0.06   0.01   0.00    -0.00  -0.00  -0.00    -0.00  -0.00  -0.00
  11   1     0.01   0.02   0.03    -0.00  -0.00  -0.00    -0.00  -0.00  -0.00
  12   1     0.01   0.02  -0.03    -0.00  -0.00   0.00    -0.00  -0.00   0.00
  13   1     0.01   0.02   0.00    -0.44  -0.78  -0.00    -0.17  -0.31  -0.00
  14   1     0.00  -0.01  -0.00    -0.19   0.30   0.00     0.48  -0.74  -0.00
  15   1    -0.05  -0.01   0.00    -0.05  -0.00   0.00     0.12   0.01  -0.00
  16   1    -0.44   0.85   0.00    -0.01   0.02   0.00    -0.00   0.01   0.00
