11
 energy: -268.349104833815 gnorm: 0.030708175706 xtb: 6.7.1 (edcfbbe)
C            1.84194563571621       -0.42255927668725       -0.48339033431420
C            0.82981032476771       -0.36436404006146        0.66334609059395
C           -0.46944345170802        0.20171788908939        0.15082283196683
O           -0.80075672295484        1.35494350790041        0.19876463708808
O           -1.23543629494745       -0.74243786432899       -0.41261866088284
H            2.00807616568983        0.57193411175344       -0.89088298959477
H            2.78940984083606       -0.81362967566054       -0.12185484095400
H            1.47723386435460       -1.07021542557424       -1.27698250396586
H            0.65077935398838       -1.36688827270570        1.05137721566589
H            1.20265300353293        0.28202582212497        1.45755523444588
H           -2.05027641920853       -0.35232905225613       -0.76633539783958
11
 energy: -268.349918354951 gnorm: 0.013107867110 xtb: 6.7.1 (edcfbbe)
C            1.84353945196319       -0.42510721328814       -0.48662818863757
C            0.82528973850249       -0.36643515907680        0.66159326756925
C           -0.47944293263189        0.20156681248382        0.16619673433392
O           -0.80371789268203        1.36508456589624        0.20425304859242
O           -1.24017286731372       -0.75354749235137       -0.41312797339747
H            2.01278584120393        0.57211091948341       -0.89872130926212
H            2.79753364612406       -0.81414572148279       -0.12590680059836
H            1.48696353064899       -1.07634576185561       -1.28728177357612
H            0.65516038385660       -1.36896615984875        1.06211948422128
H            1.18792272090134        0.28588257331839        1.45780417752898
H           -2.04186640168877       -0.34189960529066       -0.77049959326863
11
 energy: -268.350094590134 gnorm: 0.006859253165 xtb: 6.7.1 (edcfbbe)
C            1.84633406304462       -0.42512629823300       -0.48741362080651
C            0.82342762123137       -0.36737305267397        0.65930315538979
C           -0.47631434995480        0.20178341567780        0.15437276482200
O           -0.80767483472653        1.36428641041623        0.20918958871842
O           -1.24718224490514       -0.76277480042287       -0.41639908738414
H            2.01842334819445        0.57302313349401       -0.90235505217948
H            2.80161657930255       -0.81345626780477       -0.12222635116233
H            1.49563415892396       -1.07933609225777       -1.29154737588723
H            0.65651354227505       -1.36996029075554        1.06561939009345
H            1.17899169652325        0.28734173747724        1.45847086869746
H           -2.04577463407799       -0.33021022609184       -0.75721281294789
11
 energy: -268.350148550378 gnorm: 0.002345177829 xtb: 6.7.1 (edcfbbe)
C            1.84722581948682       -0.42533799204922       -0.48737095068863
C            0.82381323295137       -0.36658856892083        0.65824255849857
C           -0.47971068039445        0.19822640878918        0.15972296100084
O           -0.81021669329115        1.35935367005828        0.20964532824570
O           -1.25039091435127       -0.76530636525511       -0.41871359879619
H            2.01865769146436        0.57220306158531       -0.90302206001516
H            2.80224471712018       -0.81262985039610       -0.12117710926884
H            1.49672092002585       -1.08059969586206       -1.29013911389553
H            0.65825300697175       -1.36853904069102        1.06593745823185
H            1.18145772471651        0.28926936482072        1.45543264086175
H           -2.04405990832252       -0.32185331070495       -0.75875673493024
11
 energy: -268.350158104516 gnorm: 0.000937532701 xtb: 6.7.1 (edcfbbe)
C            1.84741982979678       -0.42560103835653       -0.48734247310639
C            0.82441772100413       -0.36632956443784        0.65784545081189
C           -0.47947130145099        0.19708702760216        0.15965654092212
O           -0.81279264199984        1.35657382628889        0.21017813468689
O           -1.25093500754530       -0.76548051626153       -0.42034286026679
H            2.01825364198219        0.57130387347878       -0.90309025095350
H            2.80161403248014       -0.81193887038887       -0.11986515652500
H            1.49741058482388       -1.08133944520098       -1.28905522381353
H            0.65902761096738       -1.36805270274827        1.06511112831485
H            1.18248440052745        0.29004076719348        1.45407344564834
H           -2.04343398296151       -0.31806567912119       -0.75736736164723
11
 energy: -268.350159788955 gnorm: 0.000345249869 xtb: 6.7.1 (edcfbbe)
C            1.84740005767249       -0.42587389236759       -0.48745453734620
C            0.82465912381948       -0.36642241293874        0.65774841711879
C           -0.47896580830390        0.19658882029327        0.15944480257487
O           -0.81502323339948        1.35531815524871        0.21120514423845
O           -1.25049311102495       -0.76503259976624       -0.42171384163077
H            2.01768356520661        0.57058902936905       -0.90386844495636
H            2.80145639078647       -0.81108658668736       -0.11921598239977
H            1.49800322599696       -1.08240988476888       -1.28839180994654
H            0.65915435730750       -1.36793109593632        1.06504317722793
H            1.18273110362389        0.29034543478833        1.45345754527383
H           -2.04261079977836       -0.31588729212559       -0.75645312052873
11
 energy: -268.350159788955 gnorm: 0.000345249869 xtb: 6.7.1 (edcfbbe)
C            1.84740005767249       -0.42587389236759       -0.48745453734620
C            0.82465912381948       -0.36642241293874        0.65774841711879
C           -0.47896580830390        0.19658882029327        0.15944480257487
O           -0.81502323339948        1.35531815524871        0.21120514423845
O           -1.25049311102495       -0.76503259976624       -0.42171384163077
H            2.01768356520661        0.57058902936905       -0.90386844495636
H            2.80145639078647       -0.81108658668736       -0.11921598239977
H            1.49800322599696       -1.08240988476888       -1.28839180994654
H            0.65915435730750       -1.36793109593632        1.06504317722793
H            1.18273110362389        0.29034543478833        1.45345754527383
H           -2.04261079977836       -0.31588729212559       -0.75645312052873
