17
 energy: -22.484567338018 gnorm: 0.023080652384 xtb: 6.7.1 (edcfbbe)
C            2.85336062535497        0.71853998937637       -0.05039190352995
C            1.94219401183446       -0.49919122805262        0.04765046234784
C            0.45810703965547       -0.22408687186451        0.01940388451091
C           -0.07808671906110        1.05411920518968       -0.15005076928877
C           -1.45928747896906        1.21370678190673       -0.16621684158029
C           -2.26815382757434        0.09629674644069       -0.01316976058984
C           -1.64693484241048       -1.13872497476086        0.14996212183583
N           -0.32467422665073       -1.30620782693992        0.16748344814624
H            2.70897599261077        1.25764862379985       -0.99223435975650
H            3.90120138831457        0.40987604420851       -0.00516013969314
H            2.67852174505046        1.41923707283745        0.77255611262744
H            2.15118351449949       -1.05676275344435        0.96849972019764
H            2.15992171089124       -1.20021125719037       -0.76788347075322
H            0.57060406694179        1.91447685411177       -0.26655850541108
H           -1.89482816663427        2.19971855412042       -0.29644651035559
H           -3.34992451860567        0.17398172759182       -0.01864810815607
H           -2.24469531197025       -2.04103177757616        0.27381357165074
17
 energy: -22.485391459945 gnorm: 0.007181730191 xtb: 6.7.1 (edcfbbe)
C            2.84454610616817        0.71354209796293       -0.04960774595215
C            1.93496833072133       -0.50073173417199        0.04776143536257
C            0.45674824432460       -0.21582840866469        0.01854148702148
C           -0.07888605514636        1.05753229090232       -0.15010579084242
C           -1.45571073875050        1.21357212730337       -0.16575545393335
C           -2.25829393605244        0.09580154931632       -0.01298304331574
C           -1.63291266018827       -1.13146751998732        0.14919600065622
N           -0.32051647409254       -1.28982497168772        0.16567852324062
H            2.69751563446042        1.24335288636193       -0.99059485242011
H            3.88592930125547        0.39765270312048       -0.00325614070485
H            2.66664787244140        1.40588902807385        0.77314706514349
H            2.14513385256812       -1.04866842141062        0.97162531654674
H            2.15310817977564       -1.19250997245619       -0.77251353665081
H            0.56446561158961        1.91563170862901       -0.26743238339486
H           -1.89275666495826        2.19491136481073       -0.29569715166715
H           -3.33601041418690        0.16946734668803       -0.01847159472895
H           -2.21649118665216       -2.03693716503591        0.27307681784145
17
 energy: -22.485454190946 gnorm: 0.001545032736 xtb: 6.7.1 (edcfbbe)
C            2.84444917464683        0.71203595848933       -0.04932098084719
C            1.93276025121977       -0.50184888559572        0.04773552298672
C            0.45683346382034       -0.21238079475435        0.01803006284796
C           -0.07876716153865        1.06023241199339       -0.15061975356741
C           -1.45528654070649        1.21354111664632       -0.16576635817739
C           -2.25679780280049        0.09515793587315       -0.01279804004634
C           -1.62908096480833       -1.13017309087432        0.14914282681048
N           -0.31964113809638       -1.28266046706738        0.16487370967285
H            2.69636998237933        1.23888739395340       -0.98959291919160
H            3.88372921556126        0.39431682101873       -0.00200933285235
H            2.66440276130083        1.40173962822498        0.77262787457632
H            2.14020137156940       -1.04777188419409        0.97193740467080
H            2.14827582488422       -1.19138361047238       -0.77338104718673
H            0.56165046068312        1.91895228217237       -0.26817182865530
H           -1.89336378391872        2.19325054864578       -0.29524397246189
H           -3.33313858001596        0.16828455856682       -0.01828121880837
H           -2.20511153090275       -2.03879501287153        0.27344700243162
17
 energy: -22.485459869982 gnorm: 0.000618710891 xtb: 6.7.1 (edcfbbe)
C            2.84632755140622        0.71148671234547       -0.04906985732824
C            1.93278239086537       -0.50222156999551        0.04750612067590
C            0.45738857658379       -0.21060216620285        0.01764567185485
C           -0.07894019274797        1.06219094754018       -0.15106524243807
C           -1.45606836276832        1.21317927905342       -0.16566390712377
C           -2.25794631997230        0.09465166265970       -0.01259606200151
C           -1.62923543212483       -1.13059590478355        0.14933677633073
N           -0.31959962900568       -1.27991442608611        0.16458850683611
H            2.69846179958408        1.23742920841629       -0.98960250800795
H            3.88492301785933        0.39237934165425       -0.00076786864007
H            2.66517212848373        1.40069548647128        0.77274204347876
H            2.13878857368281       -1.04827787777910        0.97151597157501
H            2.14708573132958       -1.19139132162149       -0.77373588060080
H            0.55937177365498        1.92250694060971       -0.26906399746553
H           -1.89516514248411        2.19244079637388       -0.29508944198378
H           -3.33411343590271        0.16872874073391       -0.01811834036547
H           -2.20174802516663       -2.04130093963495        0.27404696740599
17
 energy: -22.485460429400 gnorm: 0.000158171132 xtb: 6.7.1 (edcfbbe)
C            2.84686426410218        0.71132750088822       -0.04888892331562
C            1.93290475882813       -0.50213384808064        0.04727195778939
C            0.45745923392955       -0.21034897157026        0.01746379054212
C           -0.07911827754655        1.06244101619104       -0.15133222364194
C           -1.45632407698902        1.21280339850384       -0.16570298651516
C           -2.25839435539771        0.09448237839811       -0.01241911458097
C           -1.62976473125822       -1.13079639431538        0.14954328177912
N           -0.31970389458232       -1.27983727479926        0.16460367031639
H            2.69996349385631        1.23758810453205       -0.98957685002038
H            3.88544764941021        0.39189023438094        0.00001153150821
H            2.66576156292996        1.40094935127068        0.77279463565535
H            2.13889829735729       -1.04870839665374        0.97112069660087
H            2.14729873989818       -1.19126283495473       -0.77415067153294
H            0.55850957426435        1.92340026818967       -0.26953662494609
H           -1.89581851117068        2.19209604909673       -0.29507617925554
H           -3.33466807136005        0.16929392901246       -0.01789384689411
H           -2.20183065299426       -2.04179960033522        0.27437680871348
17
 energy: -22.485460502736 gnorm: 0.000056035575 xtb: 6.7.1 (edcfbbe)
C            2.84684266807729        0.71124750620936       -0.04870877668831
C            1.93281801599120       -0.50208932327470        0.04705957169732
C            0.45742622355576       -0.21026935392095        0.01734133052074
C           -0.07913153630064        1.06246619118531       -0.15151542531330
C           -1.45630880729703        1.21275581838318       -0.16571731984207
C           -2.25834658370353        0.09443496795243       -0.01228777477868
C           -1.62969659803796       -1.13074456229807        0.14965876162245
N           -0.31966489184712       -1.27972036277545        0.16462717079974
H            2.70036694830725        1.23757679645401       -0.98941236061760
H            3.88538333013029        0.39172645800367        0.00056855881211
H            2.66552633094237        1.40088273069081        0.77290335363607
H            2.13878192008041       -1.04895374809454        0.97074807011856
H            2.14719976939320       -1.19097341559981       -0.77458271031853
H            0.55833403515775        1.92347687757599       -0.26992794286046
H           -1.89592189598246        2.19198225612047       -0.29517010782730
H           -3.33459341413075        0.16941011943397       -0.01765490227889
H           -2.20153051105869       -2.04182404629119        0.27467945552034
