
                                 *****************
                                 * O   R   C   A *
                                 *****************

                                            #,                                       
                                            ###                                      
                                            ####                                     
                                            #####                                    
                                            ######                                   
                                           ########,                                 
                                     ,,################,,,,,                         
                               ,,#################################,,                 
                          ,,##########################################,,             
                       ,#########################################, ''#####,          
                    ,#############################################,,   '####,        
                  ,##################################################,,,,####,       
                ,###########''''           ''''###############################       
              ,#####''   ,,,,##########,,,,          '''####'''          '####       
            ,##' ,,,,###########################,,,                        '##       
           ' ,,###''''                  '''############,,,                           
         ,,##''                                '''############,,,,        ,,,,,,###''
      ,#''                                            '''#######################'''  
     '                                                          ''''####''''         
             ,#######,   #######,   ,#######,      ##                                
            ,#'     '#,  ##    ##  ,#'     '#,    #''#        ,####,   ,####,        
            ##       ##  ##   ,#'  ##            #'  '#       #'       #'  '#        
            ##       ##  #######   ##           ,######,      #####,   #    #        
            '#,     ,#'  ##    ##  '#,     ,#' ,#      #,     #,   #   #,  ,#        
             '#######'   ##     ##  '#######'  #'      '#     '####' # '####'        



                #########################################################
                #                        -***-                          #
                #          Department of theory and spectroscopy        #
                #                                                       #
                #                      Frank Neese                      #
                #                                                       #
                #     Directorship, Architecture, Infrastructure        #
                #                    SHARK, DRIVERS                     #
                #        Core code/Algorithms in most modules           #
                #                                                       #
                #        Max Planck Institute fuer Kohlenforschung      #
                #                Kaiser Wilhelm Platz 1                 #
                #                 D-45470 Muelheim/Ruhr                 #
                #                      Germany                          #
                #                                                       #
                #                  All rights reserved                  #
                #                        -***-                          #
                #########################################################


                         Program Version 6.0.1  -  RELEASE   -


 With contributions from (in alphabetic order):
[Max-Planck-Institut fuer Kohlenforschung]                               
  Daniel Aravena         : Magnetic Suceptibility                        
  Michael Atanasov       : Ab Initio Ligand Field Theory (pilot matlab implementation)
  Alexander A. Auer      : GIAO ZORA, VPT2 properties, NMR spectrum      
  Ute Becker             : All parallelization in ORCA, NUMFREQ, NUMCALC 
  Giovanni Bistoni       : ED, misc. LED, open-shell LED, HFLD           
  Martin Brehm           : Molecular dynamics                            
  Dmytro Bykov           : pre 5.0 version of the SCF Hessian            
  Marcos Casanova-Páez   : Triplet and SCS-CIS(D). UHF-(DLPNO)-IP/EA/STEOM-CCSD. UHF-CVS-IP/STEOM-CCSD   
  Vijay G. Chilkuri      : MRCI spin determinant printing, contributions to CSF-ICE 
  Pauline Colinet        : FMM embedding                                 
  Dipayan Datta          : RHF DLPNO-CCSD density                        
  Achintya Kumar Dutta   : EOM-CC, STEOM-CC                              
  Nicolas Foglia         : Exact transition moments, OPA infrastructure, MCD improvements    
  Dmitry Ganyushin       : Spin-Orbit,Spin-Spin,Magnetic field MRCI      
  Miquel Garcia-Rates    : C-PCM and meta-GGA Hessian, CCSD/C-PCM, Gaussian charge scheme 
  Tiago L. C. Gouveia    : GS-ROHF, GS-ROCIS                             
  Yang Guo               : DLPNO-NEVPT2, F12-NEVPT2, CIM, IAO-localization        
  Andreas Hansen         : Spin unrestricted coupled pair/coupled cluster methods 
  Ingolf Harden          : AUTO-CI MPn and infrastructure                
  Benjamin Helmich-Paris : MC-RPA, TRAH-(SCF,CASSCF), AVAS, COSX integrals, SCF dyn. polar. 
  Lee Huntington         : MR-EOM, pCC                                   
  Robert Izsak           : Overlap fitted RIJCOSX, COSX-SCS-MP3, EOM     
  Riya Kayal             : Wick's Theorem for AUTO-CI, AUTO-CI UHF-CCSDT 
  Emily Kempfer          : AUTO-CI, RHF CISDT and CCSDT                  
  Christian Kollmar      : KDIIS, OOCD, Brueckner-CCSD(T), CCSD density, CASPT2, CASPT2-K, improved NEVPT2 
  Axel Koslowski         : Symmetry handling                             
  Simone Kossmann        : meta-GGA functionals, TD-DFT gradient, OOMP2, (MP2 Hessian; deprecated post 5.0) 
  Lucas Lang             : DCDCAS                                        
  Marvin Lechner         : AUTO-CI (C++ implementation), FIC-MRCC        
  Spencer Leger          : CASSCF response                               
  Dagmar Lenk            : GEPOL surface, SMD, ORCA-2-JSON               
  Dimitrios Liakos       : Extrapolation schemes; Compound Job, initial MDCI parallelization 
  Dimitrios Manganas     : Further ROCIS development; embedding schemes. LFT, Crystal Embedding 
  Dimitrios Pantazis     : SARC Basis sets                               
  Anastasios Papadopoulos: AUTO-CI, single reference methods and gradients 
  Taras Petrenko         : pre 6.0 DFT Hessian and TD-DFT gradient, (ASA, deprecated), ECA, 1-Electron XAS/XES, NRVS 
  Peter Pinski           : DLPNO-MP2, DLPNO-MP2 Gradient                 
  Christoph Reimann      : Effective Core Potentials                     
  Marius Retegan         : Local ZFS, SOC                                
  Christoph Riplinger    : Optimizer, TS searches, QM/MM, DLPNO-CCSD(T), (RO)-DLPNO pert. Triples 
  Michael Roemelt        : Original ROCIS implementation                 
  Masaaki Saitow         : Open-shell DLPNO-CCSD energy and density      
  Barbara Sandhoefer     : DKH picture change effects                    
  Kantharuban Sivalingam : CASSCF convergence/infrastructure, NEVPT2 and variants, FIC-MRCI 
  Bernardo de Souza      : ESD, SOC TD-DFT                               
  Georgi L. Stoychev     : AutoAux, RI-MP2 NMR, DLPNO-MP2 response, X2C  
  Van Anh Tran           : RI-MP2 g-tensors                              
  Willem Van den Heuvel  : Paramagnetic NMR                              
  Zikuan Wang            : NOTCH, Electric field optimization            
  Frank Wennmohs         : Technical directorship and infrastructure     
  Hang Xu                : AUTO-CI-Response properties                   
                                                                         
[FACCTs GmbH]                                                            
  Markus Bursch, Miquel Garcia-Rates, Christoph Riplinger, Bernardo de Souza, Georgi L. Stoychev 
                                                                 
  APM, Basis sets (HGBS, AHGBS, def-TZVP (Ac-Lr), def2-XVPD (La-Lu)), CI-OPT, improved COSX, DLPNO-Multilevel,           
  DOCKER, DRACO, updates on ESD, GOAT, IRC, LR-CPCM, MBIS, meta-GGA TD-DFT gradient, ML-optimized integration grids, 
  MM, NACMEs, nearIR, NEB, NEB-TS, NL-DFT gradient (VV10), 2- and 3-layer-ONIOM, interface openCOSMO-RS, QMMM,   
  Crystal-QMMM, SF, symmetry and pop. for TD-DFT, r2SCAN hybrids, SOLVATOR                                   
                                                                         
[Other institutions]                                                     
  V. Asgeirsson          : NEB                                           
  Christoph Bannwarth    : sTDA-DFT, sTD-DFT, PBEh-3c, B97-3c, D3        
  Sebastian Ehlert       : rSCAN, r2SCAN, r2SCAN-3c, D4, dhf basis sets  
  Marvin Friede          : D4 for Fr, Ra, Ac-Lr                          
  Lars Goerigk           : TD-DFT with DH, B97 family of functionals     
  Stefan Grimme          : VdW corrections, initial TS optimization, DFT functionals, gCP, sTDA/sTD-DF 
  Waldemar Hujo          : DFT-NL                                        
  H. Jonsson             : NEB                                           
  Holger Kruse           : gCP                                           
  Marcel Mueller         : wB97X-3c, vDZP basis set                      
  Hagen Neugebauer       : wr2SCAN                                       
  Tobias Risthaus        : range-separated hybrid DFT                    
  Lukas Wittmann         : regularized MP2, r2SCAN double-hybrids, wr2SCAN        
                                                                         
We gratefully acknowledge several colleagues who have allowed us to      
interface, adapt or use parts of their codes:                            
  Ed Valeev, F. Pavosevic, A. Kumar             : LibInt (2-el integral package), F12 methods 
  Garnet Chan, S. Sharma, J. Yang, R. Olivares  : DMRG                   
  Ulf Ekstrom                                   : XCFun DFT Library      
  Mihaly Kallay                                 : mrcc  (arbitrary order and MRCC methods)
  Frank Weinhold                                : gennbo (NPA and NBO analysis)           
  Simon Mueller                                 : openCOSMO-RS                            
  Christopher J. Cramer and Donald G. Truhlar   : smd solvation model                     
  S Lehtola, MJT Oliveira, MAL Marques          : LibXC Library                           
  Liviu Ungur et al                             : ANISO software                          


 Your calculation uses the libint2 library for the computation of 2-el integrals
 For citations please refer to: http://libint.valeyev.net

 Your ORCA version has been built with support for libXC version: 6.2.2
 For citations please refer to: https://libxc.gitlab.io

 This ORCA versions uses:
   CBLAS   interface :  Fast vector & matrix operations
   LAPACKE interface :  Fast linear algebra routines
   SCALAPACK package :  Parallel linear algebra routines
   Shared memory     :  Shared parallel matrices
   BLAS/LAPACK       :  OpenBLAS 0.3.27  USE64BITINT DYNAMIC_ARCH NO_AFFINITY Zen SINGLE_THREADED
        Core in use  :  Zen
   Copyright (c) 2011-2014, The OpenBLAS Project


Your calculation utilizes the geometrical counterpoise correction gCP
Please cite in your paper:
H.Kruse, S. Grimme J.Chem.Phys., 136, (2012), 154101 
   

Your calculation utilizes the atom-pairwise dispersion correction
based on EEQ partial charges (D4)


================================================================================

----- Orbital basis set information -----
Your calculation utilizes the basis: def2-mTZVPP
   Stefan Grimme, Andreas Hansen, Sebastian Ehlert, and Jan-Michael Mewes 
   J. Chem. Phys. 154, 064103 (2021). DOI: 10.1063/5.0040021

----- AuxJ basis set information -----
Your calculation utilizes the auxiliary basis: def2/J
   F. Weigend, Phys. Chem. Chem. Phys. 8, 1057 (2006).

================================================================================
                                        WARNINGS
                       Please study these warnings very carefully!
================================================================================



WARNING: SCAN, rSCAN, or r2SCAN functional requested.
  ===> : libXC variant has now been activated.



================================================================================
                                       INPUT FILE
================================================================================
NAME = sp.inp
|  1> ! r2scan-3c def2/J RI DEFGRID2 scfconv6 printgap
|  2> %output
|  3>     printlevel normal
|  4> end
|  5> * xyz 0 1
|  6> C 3.6875936976 -0.3703917462 -0.0490174341
|  7> C 2.2139121894 -0.3051431111 0.342257667
|  8> H 2.1386377039 -0.3636879522 1.434627662
|  9> C 1.429801734 -1.4700585682 -0.2596745808
| 10> C -0.0412146371 -1.3893183442 0.1356680401
| 11> C -0.6677801649 -0.0806343976 -0.3456749896
| 12> H -0.5396654486 -0.0103152339 -1.43160905
| 13> C 0.1059330245 1.1003603118 0.2574937083
| 14> H 0.0141563935 1.0743973907 1.35656058
| 15> C 1.5891525996 1.0112860537 -0.1154970907
| 16> O -0.4626097678 2.3006376607 -0.2330799829
| 17> C -2.1805313648 0.0305879286 -0.0677994262
| 18> C -2.9808512602 -0.8426018726 -1.0329804
| 19> C -2.5664556194 -0.3054721763 1.3713368127
| 20> H 4.131205059 -1.3034981663 0.2908056844
| 21> H 3.7959988764 -0.3132692333 -1.1300692506
| 22> H 4.2407927856 0.4542772492 0.3951352869
| 23> H 1.5197628788 -1.4405321337 -1.3480140814
| 24> H 1.8532227994 -2.4160937301 0.0852060888
| 25> H -0.5807111741 -2.2339830826 -0.2943299371
| 26> H -0.1176331424 -1.4547490137 1.222335267
| 27> H 1.6776312245 1.1009295843 -1.2010971777
| 28> H 2.1263656618 1.852364124 0.334741893
| 29> H 0.0828661473 3.0388587148 0.0579990611
| 30> H -2.4459541771 1.0750063763 -0.2580705467
| 31> H -4.0467700241 -0.69139303 -0.877702944
| 32> H -2.764108714 -1.8971331108 -0.8769906044
| 33> H -2.7478169839 -0.5909268298 -2.0649546492
| 34> H -1.9798668007 0.2714098846 2.0813760191
| 35> H -2.4242712364 -1.3638582988 1.5769415845
| 36> H -3.6160809664 -0.0694345061 1.5333031444
| 37> *
| 38> 
| 39>                          ****END OF INPUT****
================================================================================

                       ****************************
                       * Single Point Calculation *
                       ****************************

---------------------------------
CARTESIAN COORDINATES (ANGSTROEM)
---------------------------------
  C      3.687594   -0.370392   -0.049017
  C      2.213912   -0.305143    0.342258
  H      2.138638   -0.363688    1.434628
  C      1.429802   -1.470059   -0.259675
  C     -0.041215   -1.389318    0.135668
  C     -0.667780   -0.080634   -0.345675
  H     -0.539665   -0.010315   -1.431609
  C      0.105933    1.100360    0.257494
  H      0.014156    1.074397    1.356561
  C      1.589153    1.011286   -0.115497
  O     -0.462610    2.300638   -0.233080
  C     -2.180531    0.030588   -0.067799
  C     -2.980851   -0.842602   -1.032980
  C     -2.566456   -0.305472    1.371337
  H      4.131205   -1.303498    0.290806
  H      3.795999   -0.313269   -1.130069
  H      4.240793    0.454277    0.395135
  H      1.519763   -1.440532   -1.348014
  H      1.853223   -2.416094    0.085206
  H     -0.580711   -2.233983   -0.294330
  H     -0.117633   -1.454749    1.222335
  H      1.677631    1.100930   -1.201097
  H      2.126366    1.852364    0.334742
  H      0.082866    3.038859    0.057999
  H     -2.445954    1.075006   -0.258071
  H     -4.046770   -0.691393   -0.877703
  H     -2.764109   -1.897133   -0.876991
  H     -2.747817   -0.590927   -2.064955
  H     -1.979867    0.271410    2.081376
  H     -2.424271   -1.363858    1.576942
  H     -3.616081   -0.069435    1.533303

----------------------------
CARTESIAN COORDINATES (A.U.)
----------------------------
  NO LB      ZA    FRAG     MASS         X           Y           Z
   0 C     6.0000    0    12.011    6.968542   -0.699939   -0.092630
   1 C     6.0000    0    12.011    4.183688   -0.576637    0.646773
   2 H     1.0000    0     1.008    4.041440   -0.687271    2.711053
   3 C     6.0000    0    12.011    2.701934   -2.778008   -0.490714
   4 C     6.0000    0    12.011   -0.077884   -2.625431    0.256375
   5 C     6.0000    0    12.011   -1.261922   -0.152377   -0.653231
   6 H     1.0000    0     1.008   -1.019820   -0.019493   -2.705349
   7 C     6.0000    0    12.011    0.200184    2.079380    0.486593
   8 H     1.0000    0     1.008    0.026752    2.030317    2.563528
   9 C     6.0000    0    12.011    3.003063    1.911054   -0.218258
  10 O     8.0000    0    15.999   -0.874206    4.347575   -0.440457
  11 C     6.0000    0    12.011   -4.120607    0.057803   -0.128122
  12 C     6.0000    0    12.011   -5.632993   -1.592287   -1.952050
  13 C     6.0000    0    12.011   -4.849898   -0.577259    2.591451
  14 H     1.0000    0     1.008    7.806846   -2.463255    0.549543
  15 H     1.0000    0     1.008    7.173398   -0.591993   -2.135521
  16 H     1.0000    0     1.008    8.013937    0.858460    0.746697
  17 H     1.0000    0     1.008    2.871936   -2.722211   -2.547377
  18 H     1.0000    0     1.008    3.502084   -4.565755    0.161016
  19 H     1.0000    0     1.008   -1.097385   -4.221616   -0.556203
  20 H     1.0000    0     1.008   -0.222294   -2.749077    2.309879
  21 H     1.0000    0     1.008    3.170264    2.080455   -2.269745
  22 H     1.0000    0     1.008    4.018249    3.500461    0.632571
  23 H     1.0000    0     1.008    0.156594    5.742611    0.109602
  24 H     1.0000    0     1.008   -4.622184    2.031468   -0.487683
  25 H     1.0000    0     1.008   -7.647287   -1.306543   -1.658618
  26 H     1.0000    0     1.008   -5.223408   -3.585062   -1.657272
  27 H     1.0000    0     1.008   -5.192622   -1.116690   -3.902199
  28 H     1.0000    0     1.008   -3.741406    0.512890    3.933231
  29 H     1.0000    0     1.008   -4.581209   -2.577319    2.979988
  30 H     1.0000    0     1.008   -6.833403   -0.131212    2.897523

--------------------------------
INTERNAL COORDINATES (ANGSTROEM)
--------------------------------
 C      0   0   0     0.000000000000     0.00000000     0.00000000
 C      1   0   0     1.526135897204     0.00000000     0.00000000
 H      2   1   0     1.096524487899   108.62770452     0.00000000
 C      2   1   3     1.527802231769   111.22168686   240.70926441
 C      4   2   1     1.525353708395   110.63858539   180.18824886
 C      5   4   2     1.528701784180   111.03711156    59.38207726
 H      6   5   4     1.095723938249   108.60693085    57.07739026
 C      6   5   4     1.535315303515   109.16311208   301.54871560
 H      8   6   5     1.103197630408   109.35165882   297.28237479
 C      2   1   3     1.527366920285   110.79317237   119.03000939
 O      8   6   5     1.415828085417   108.27764435   178.18567547
 C      6   5   4     1.542076984907   114.02149936   175.99184244
 C     12   6   5     1.527922339675   111.02577019   285.07233124
 C     12   6   5     1.527411875857   113.68906429    49.33744006
 H      1   2   3     1.087638902882   110.51317709    60.20620243
 H      1   2   3     1.087974123878   110.40914691   180.06748859
 H      1   2   3     1.087832626147   110.72999088   300.09632194
 H      4   2   1     1.092450313046   109.24643106   300.98644183
 H      4   2   1     1.092341797442   109.69544228    58.97298002
 H      5   4   2     1.090602262114   109.50392733   180.59897993
 H      5   4   2     1.091314172217   108.81016084   298.61901228
 H     10   2   1     1.092882417526   109.58992389    59.39785240
 H     10   2   1     1.094863159021   109.76484603   301.18592866
 H     11   8   6     0.962933698926   108.52442144   186.64660751
 H     12   6   5     1.094286188564   105.98865796   168.07120687
 H     13  12   6     1.087730671470   110.10072377   184.58747220
 H     13  12   6     1.087817208912   111.04212643    64.98661757
 H     13  12   6     1.087481564033   110.79035877   304.30917350
 H     14  12   6     1.086754355426   111.24920594    52.54014048
 H     14  12   6     1.087506738028   111.05275989   291.17565714
 H     14  12   6     1.087961508245   109.65135241   171.88861650

---------------------------
INTERNAL COORDINATES (A.U.)
---------------------------
 C      0   0   0     0.000000000000     0.00000000     0.00000000
 C      1   0   0     2.883978888861     0.00000000     0.00000000
 H      2   1   0     2.072130981268   108.62770452     0.00000000
 C      2   1   3     2.887127804838   111.22168686   240.70926441
 C      4   2   1     2.882500766229   110.63858539   180.18824886
 C      5   4   2     2.888827712538   111.03711156    59.38207726
 H      6   5   4     2.070618161673   108.60693085    57.07739026
 C      6   5   4     2.901325452862   109.16311208   301.54871560
 H      8   6   5     2.084741393062   109.35165882   297.28237479
 C      2   1   3     2.886305185349   110.79317237   119.03000939
 O      8   6   5     2.675527334153   108.27764435   178.18567547
 C      6   5   4     2.914103178897   114.02149936   175.99184244
 C     12   6   5     2.887354775886   111.02577019   285.07233124
 C     12   6   5     2.886390139069   113.68906429    49.33744006
 H      1   2   3     2.055339659045   110.51317709    60.20620243
 H      1   2   3     2.055973134923   110.40914691   180.06748859
 H      1   2   3     2.055705742962   110.72999088   300.09632194
 H      4   2   1     2.064431906573   109.24643106   300.98644183
 H      4   2   1     2.064226841801   109.69544228    58.97298002
 H      5   4   2     2.060939596430   109.50392733   180.59897993
 H      5   4   2     2.062284911557   108.81016084   298.61901228
 H     10   2   1     2.065248465702   109.58992389    59.39785240
 H     10   2   1     2.068991524669   109.76484603   301.18592866
 H     11   8   6     1.819680976093   108.52442144   186.64660751
 H     12   6   5     2.067901208518   105.98865796   168.07120687
 H     13  12   6     2.055513076544   110.10072377   184.58747220
 H     13  12   6     2.055676608610   111.04212643    64.98661757
 H     13  12   6     2.055042331710   110.79035877   304.30917350
 H     14  12   6     2.053668106601   111.24920594    52.54014048
 H     14  12   6     2.055089903667   111.05275989   291.17565714
 H     14  12   6     2.055949294831   109.65135241   171.88861650

---------------------
BASIS SET INFORMATION
---------------------
There are 3 groups of distinct atoms

 Group   1 Type C   : 11s6p1d contracted to 5s3p1d pattern {62111/411/1}
 Group   2 Type H   : 4s1p contracted to 2s1p pattern {31/1}
 Group   3 Type O   : 11s6p2d contracted to 5s3p2d pattern {62111/411/11}

Atom   0C    basis set group =>   1
Atom   1C    basis set group =>   1
Atom   2H    basis set group =>   2
Atom   3C    basis set group =>   1
Atom   4C    basis set group =>   1
Atom   5C    basis set group =>   1
Atom   6H    basis set group =>   2
Atom   7C    basis set group =>   1
Atom   8H    basis set group =>   2
Atom   9C    basis set group =>   1
Atom  10O    basis set group =>   3
Atom  11C    basis set group =>   1
Atom  12C    basis set group =>   1
Atom  13C    basis set group =>   1
Atom  14H    basis set group =>   2
Atom  15H    basis set group =>   2
Atom  16H    basis set group =>   2
Atom  17H    basis set group =>   2
Atom  18H    basis set group =>   2
Atom  19H    basis set group =>   2
Atom  20H    basis set group =>   2
Atom  21H    basis set group =>   2
Atom  22H    basis set group =>   2
Atom  23H    basis set group =>   2
Atom  24H    basis set group =>   2
Atom  25H    basis set group =>   2
Atom  26H    basis set group =>   2
Atom  27H    basis set group =>   2
Atom  28H    basis set group =>   2
Atom  29H    basis set group =>   2
Atom  30H    basis set group =>   2
---------------------------------
AUXILIARY/J BASIS SET INFORMATION
---------------------------------
There are 3 groups of distinct atoms

 Group   1 Type C   : 12s5p4d2f1g contracted to 6s4p3d1f1g pattern {711111/2111/211/2/1}
 Group   2 Type H   : 5s2p1d contracted to 3s1p1d pattern {311/2/1}
 Group   3 Type O   : 12s5p4d2f1g contracted to 6s4p3d1f1g pattern {711111/2111/211/2/1}

Atom   0C    basis set group =>   1
Atom   1C    basis set group =>   1
Atom   2H    basis set group =>   2
Atom   3C    basis set group =>   1
Atom   4C    basis set group =>   1
Atom   5C    basis set group =>   1
Atom   6H    basis set group =>   2
Atom   7C    basis set group =>   1
Atom   8H    basis set group =>   2
Atom   9C    basis set group =>   1
Atom  10O    basis set group =>   3
Atom  11C    basis set group =>   1
Atom  12C    basis set group =>   1
Atom  13C    basis set group =>   1
Atom  14H    basis set group =>   2
Atom  15H    basis set group =>   2
Atom  16H    basis set group =>   2
Atom  17H    basis set group =>   2
Atom  18H    basis set group =>   2
Atom  19H    basis set group =>   2
Atom  20H    basis set group =>   2
Atom  21H    basis set group =>   2
Atom  22H    basis set group =>   2
Atom  23H    basis set group =>   2
Atom  24H    basis set group =>   2
Atom  25H    basis set group =>   2
Atom  26H    basis set group =>   2
Atom  27H    basis set group =>   2
Atom  28H    basis set group =>   2
Atom  29H    basis set group =>   2
Atom  30H    basis set group =>   2

Checking for AutoStart:
The File: sp.gbw exists
Trying to determine its content:
     ... Fine, the file contains calculation information
     ... Fine, the calculation information was read
     ... Fine, the file contains a basis set
     ... Fine, the basis set was read
     ... Fine, the file contains a geometry
     ... Fine, the geometry was read
     ... Fine, the file contains a set of orbitals
     ... Fine, the orbitals can be read
     => possible old guess file was deleted
     => GBW file was renamed to GES file
     => GES file is set as startup file
     => Guess is set to MORead
     ... now leaving AutoStart

------------------------------------------------------------------------------
                             ORCA STARTUP CALCULATIONS
                           -- RI-GTO INTEGRALS CHOSEN --
------------------------------------------------------------------------------
------------------------------------------------------------------------------
                   ___                                                        
                  /   \      - P O W E R E D   B Y -                         
                 /     \                                                     
                 |  |  |   _    _      __       _____    __    __             
                 |  |  |  | |  | |    /  \     |  _  \  |  |  /  |          
                  \  \/   | |  | |   /    \    | | | |  |  | /  /          
                 / \  \   | |__| |  /  /\  \   | |_| |  |  |/  /          
                |  |  |   |  __  | /  /__\  \  |    /   |      \           
                |  |  |   | |  | | |   __   |  |    \   |  |\   \          
                \     /   | |  | | |  |  |  |  | |\  \  |  | \   \       
                 \___/    |_|  |_| |__|  |__|  |_| \__\ |__|  \__/        
                                                                              
                      - O R C A' S   B I G   F R I E N D -                    
                                      &                                       
                       - I N T E G R A L  F E E D E R -                       
                                                                              
 v1 FN, 2020, v2 2021, v3 2022-2024                                           
------------------------------------------------------------------------------


----------------------
SHARK INTEGRAL PACKAGE
----------------------

Number of atoms                             ...     31
Number of basis functions                   ...    314
Number of shells                            ...    160
Maximum angular momentum                    ...      2
Integral batch strategy                     ... SHARK/LIBINT Hybrid
RI-J (if used) integral strategy            ... SPLIT-RIJ (Revised 2003 algorithm where possible)
Printlevel                                  ...      1
Contraction scheme used                     ... SEGMENTED contraction
Prescreening option                         ... SCHWARTZ
   Thresh                                   ... 1.000e-10
   Tcut                                     ... 1.000e-11
   Tpresel                                  ... 1.000e-11 
Coulomb Range Separation                    ... NOT USED
Exchange Range Separation                   ... NOT USED
Multipole approximations                    ... NOT USED
Finite Nucleus Model                        ... NOT USED
CABS basis                                  ... NOT available
Auxiliary Coulomb fitting basis             ... AVAILABLE
   # of basis functions in Aux-J            ...    759
   # of shells in Aux-J                     ...    265
   Maximum angular momentum in Aux-J        ...      4
Auxiliary J/K fitting basis                 ... NOT available
Auxiliary Correlation fitting basis         ... NOT available
Auxiliary 'external' fitting basis          ... NOT available

Checking pre-screening integrals            ... done (  0.0 sec) Dimension = 160
Check shell pair data                       ... done (  0.0 sec)
Shell pair information
Shell pair cut-off parameter TPreSel        ...   1.0e-11
Total number of shell pairs                 ...     12880
Shell pairs after pre-screening             ...     10949
Total number of primitive shell pairs       ...     45152
Primitive shell pairs kept                  ...     26363
          la=0 lb=0:   3852 shell pairs
          la=1 lb=0:   4286 shell pairs
          la=1 lb=1:   1223 shell pairs
          la=2 lb=0:    976 shell pairs
          la=2 lb=1:    541 shell pairs
          la=2 lb=2:     71 shell pairs

Calculating one electron integrals          ... done (  0.1 sec)
Calculating RI/J V-Matrix + Cholesky decomp.... done (  0.0 sec)
Calculating Nuclear repulsion               ... done (  0.0 sec) ENN=    692.816169969637 Eh

Diagonalization of the overlap matrix:
Smallest eigenvalue                        ... 4.804e-05
Time for diagonalization                   ...    0.009 sec
Threshold for overlap eigenvalues          ... 1.000e-07
Number of eigenvalues below threshold      ... 0
Time for construction of square roots      ...    0.006 sec
Total time needed                          ...    0.016 sec

-------------------
DFT GRID GENERATION
-------------------

General Integration Accuracy     IntAcc      ... 4.388
Radial Grid Type                 RadialGrid  ... OptM3 with GC (2021)
Angular Grid (max. ang.)         AngularGrid ... 4 (Lebedev-302)
Angular grid pruning method      GridPruning ... 4 (adaptive)
Weight generation scheme         WeightScheme... mBecke (2022)
Basis function cutoff            BFCut       ... 1.0000e-10
Integration weight cutoff        WCut        ... 1.0000e-14
Partially contracted basis set               ... off
Rotationally invariant grid construction     ... off
Angular grids for H and He will be reduced by one unit
Diffuse basis detected: some atoms will have their outermost
                        angular grid increased by 1.

Total number of grid points                  ...   128927
Total number of batches                      ...     2031
Average number of points per batch           ...       63
Average number of grid points per atom       ...     4159
Initializing property integral containers    ... done (  0.0 sec)

SHARK setup successfully completed in   1.6 seconds

Maximum memory used throughout the entire STARTUP-calculation: 61.2 MB
-------------------------------------------------------------------------------
                                 ORCA GUESS
                   Start orbitals & Density for SCF / CASSCF
-------------------------------------------------------------------------------

------------
SCF SETTINGS
------------
Hamiltonian:
 Density Functional     Method          .... DFT(GTOs)
  Functional kind                       .... Exchange
  Functional name                       .... Re-regularized SCAN exchange by Furness et al
  Functional family                     .... MGGA
  Functional refs                              
    [ 0] J. W. Furness, A. D. Kaplan, J. Ning, J. P. Perdew, and J. Sun.,  J. Phys. Chem. Lett. 11, 8208-8215 (2020), doi: 10.1021/acs.jpclett.0c02405
    [ 1] J. W. Furness, A. D. Kaplan, J. Ning, J. P. Perdew, and J. Sun.,  J. Phys. Chem. Lett. 11, 9248-9248 (2020), doi: 10.1021/acs.jpclett.0c03077
  Functional external parameters        .... 6
    Parameter  0 _c1        =  6.670000e-01 : c1 parameter        
    Parameter  1 _c2        =  8.000000e-01 : c2 parameter        
    Parameter  2 _d         =  1.240000e+00 : d parameter         
    Parameter  3 _k1        =  6.500000e-02 : k1 parameter        
    Parameter  4 _eta       =  1.000000e-03 : eta parameter       
    Parameter  5 _dp2       =  3.610000e-01 : dp2 parameter       
  Functional kind                       .... Correlation
  Functional name                       .... Re-regularized SCAN correlation by Furness et al
  Functional family                     .... MGGA
  Functional refs                              
    [ 0] J. W. Furness, A. D. Kaplan, J. Ning, J. P. Perdew, and J. Sun.,  J. Phys. Chem. Lett. 11, 8208-8215 (2020), doi: 10.1021/acs.jpclett.0c02405
    [ 1] J. W. Furness, A. D. Kaplan, J. Ning, J. P. Perdew, and J. Sun.,  J. Phys. Chem. Lett. 11, 9248-9248 (2020), doi: 10.1021/acs.jpclett.0c03077
  Functional external parameters        .... 1
    Parameter  0 _eta       =  1.000000e-03 : Regularization parameter
 Gradients option       PostSCFGGA      .... off
 RI-approximation to the Coulomb term is turned on
   Number of AuxJ basis functions       .... 759


General Settings:
 Integral files         IntName         .... sp
 Hartree-Fock type      HFTyp           .... RHF
 Total Charge           Charge          ....    0
 Multiplicity           Mult            ....    1
 Number of Electrons    NEL             ....   88
 Basis Dimension        Dim             ....  314
 Nuclear Repulsion      ENuc            ....    692.8161699696 Eh

Convergence Acceleration:
 AO-DIIS                CNVDIIS         .... on
   Start iteration      DIISMaxIt       ....    12
   Startup error        DIISStart       ....  0.200000
   # of expansion vecs  DIISMaxEq       ....     5
   Bias factor          DIISBfac        ....   1.050
   Max. coefficient     DIISMaxC        ....  10.000
 MO-DIIS                CNVKDIIS        .... off
 Trust-Rad. Augm. Hess. CNVTRAH         .... auto
   Auto Start mean grad. ratio tolernc. ....  1.125000
   Auto Start start iteration           ....     1
   Auto Start num. interpolation iter.  ....    10
   Max. Number of Micro iterations      ....    24
   Max. Number of Macro iterations      .... Maxiter - #DIIS iter
   Number of Davidson start vectors     ....     2
   Converg. threshold    (grad. norm)   ....   3.330e-04
   Grad. Scal. Fac. for Micro threshold ....   0.100
   Minimum threshold for Micro iter.    ....   1.000e-02
   NR start threshold (gradient norm)   ....   1.000e-04
   Initial trust radius                 ....   0.400
   Minimum AH scaling param. (alpha)    ....   1.000
   Maximum AH scaling param. (alpha)    .... 1000.000
   Quad. conv. algorithm                .... NR
   White noise on init. David. guess    .... on
   Maximum white noise                  ....   0.010
   Pseudo random numbers                .... off
   Inactive MOs                         .... canonical
   Orbital update algorithm             .... Taylor
   Preconditioner                       .... Diag
   Full preconditioner red. dimension   ....   250
   COSX micro iterations for RIJONX calc.... off
 SOSCF                  CNVSOSCF        .... on
   Start iteration      SOSCFMaxIt      ....   150
   Startup grad/error   SOSCFStart      ....  0.003300
   Hessian update       SOSCFHessUp     .... L-BFGS
 Level Shifting         CNVShift        .... on
   Level shift para.    LevelShift      ....    0.2500
   Turn off err/grad.   ShiftErr        ....    0.0010
 Zerner damping         CNVZerner       .... off
 Static damping         CNVDamp         .... on
   Fraction old density DampFac         ....    0.7000
   Max. Damping (<1)    DampMax         ....    0.9800
   Min. Damping (>=0)   DampMin         ....    0.0000
   Turn off err/grad.   DampErr         ....    0.1000

SCF Procedure:
 Maximum # iterations   MaxIter         ....   125
 SCF integral mode      SCFMode         .... Direct
   Integral package                     .... SHARK and LIBINT hybrid scheme
 Reset frequency        DirectResetFreq ....    20
 Integral Threshold     Thresh          ....  1.000e-10 Eh
 Primitive CutOff       TCut            ....  1.000e-11 Eh

Convergence Tolerance:
 Convergence Check Mode ConvCheckMode   .... Total+1el-Energy
 Convergence forced     ConvForced      .... 0
 Energy Change          TolE            ....  1.000e-06 Eh
 1-El. energy change                    ....  1.000e-03 Eh
 Orbital Gradient       TolG            ....  3.330e-04
 Orbital Rotation angle TolX            ....  3.330e-04
 DIIS Error             TolErr          ....  1.000e-06

---------------------
INITIAL GUESS: MOREAD
---------------------
Guess MOs are being read from file: sp.ges
Input Geometry matches current geometry (good)
Atom 0: N(Shells)= 9 and 6 - projection required
Input basis set needs projection
NBasis(read)= 194
NBasis(calc)= 314
Basis set overlap was calculated
Using GuessMode=FMatrix for the initial guess
C*T matrix was formed
Effective Fockian was calculated
Effective Fockian was diagonalized
Initial density was built
                      ------------------
                      INITIAL GUESS DONE (   0.0 sec)
                      ------------------
             **** ENERGY FILE WAS UPDATED (sp.en.tmp) ****
Finished Guess after   0.1 sec
Maximum memory used throughout the entire GUESS-calculation: 28.0 MB

-------------------------------------------------------------------------------------------
                                      ORCA LEAN-SCF
                              memory conserving SCF solver
-------------------------------------------------------------------------------------------

----------------------------------------D-I-I-S--------------------------------------------
Iteration    Energy (Eh)           Delta-E    RMSDP     MaxDP     DIISErr   Damp  Time(sec)
-------------------------------------------------------------------------------------------
               ***  Starting incremental Fock matrix formation  ***
    1    -467.9587477694583413     0.00e+00  7.99e-03  4.59e-01  6.27e-01  0.700   4.1
    2    -468.0344496144177810    -7.57e-02  5.84e-03  3.05e-01  4.41e-01  0.700   3.5
    3    -468.0880289237090892    -5.36e-02  4.13e-03  2.09e-01  3.09e-01  0.700   3.4
    4    -468.1256467410562436    -3.76e-02  2.90e-03  1.45e-01  2.16e-01  0.700   3.4
                               ***Turning on AO-DIIS***
    5    -468.1520355272757570    -2.64e-02  2.05e-03  9.99e-02  1.51e-01  0.700   3.3
    6    -468.1705381037693314    -1.85e-02  1.44e-03  6.95e-02  1.06e-01  0.700   3.3
    7    -468.1835088180171169    -1.30e-02  1.01e-03  4.85e-02  7.41e-02  0.700   3.2
    8    -468.1925981082367798    -9.09e-03  2.35e-03  1.13e-01  5.19e-02  0.000   3.4
                              *** Initializing SOSCF ***
---------------------------------------S-O-S-C-F--------------------------------------
Iteration    Energy (Eh)           Delta-E    RMSDP     MaxDP     MaxGrad    Time(sec)
--------------------------------------------------------------------------------------
    9    -468.2138386988992806    -2.12e-02  1.00e-05  5.19e-04  1.14e-04     3.3
               *** Restarting incremental Fock matrix formation ***
   10    -468.2138388515465977    -1.53e-07  1.06e-05  7.80e-04  2.13e-05     4.1
                  *** Gradient check signals convergence ***

               *****************************************************
               *                     SUCCESS                       *
               *           SCF CONVERGED AFTER  10 CYCLES          *
               *****************************************************

             **** ENERGY FILE WAS UPDATED (sp.en.tmp) ****

----------------
TOTAL SCF ENERGY
----------------

Total Energy       :       -468.21383885154660 Eh          -12740.74628 eV

Components:
Nuclear Repulsion  :        692.81616996963703 Eh           18852.48643 eV
Electronic Energy  :      -1161.03000882118363 Eh          -31593.23271 eV
One Electron Energy:      -2007.65736242992125 Eh          -54631.13422 eV
Two Electron Energy:        846.62735360873762 Eh           23037.90152 eV

Virial components:
Potential Energy   :       -934.31546988802893 Eh          -25424.01647 eV
Kinetic Energy     :        466.10163103648239 Eh           12683.27019 eV
Virial Ratio       :          2.00453164647883

DFT components:
N(Alpha)           :       44.000143360382 electrons
N(Beta)            :       44.000143360382 electrons
N(Total)           :       88.000286720763 electrons
E(X)               :      -67.517856086893 Eh       
E(C)               :       -2.781222805051 Eh       
E(XC)              :      -70.299078891944 Eh       

---------------
SCF CONVERGENCE
---------------

  Last Energy change         ...    1.5265e-07  Tolerance :   1.0000e-06
  Last MAX-Density change    ...    7.7998e-04  Tolerance :   1.0000e-05
  Last RMS-Density change    ...    1.0634e-05  Tolerance :   1.0000e-06
  Last DIIS Error            ...    1.1406e-04  Tolerance :   1.0000e-06
  Last Orbital Gradient      ...    2.1310e-05  Tolerance :   3.3300e-04
  Last Orbital Rotation      ...    3.9242e-05  Tolerance :   3.3300e-04


----------------
ORBITAL ENERGIES
----------------

  NO   OCC          E(Eh)            E(eV) 
   0   2.0000     -18.944546      -515.5073 
   1   2.0000     -10.075092      -274.1572 
   2   2.0000     -10.034188      -273.0441 
   3   2.0000     -10.024783      -272.7882 
   4   2.0000     -10.023688      -272.7584 
   5   2.0000     -10.022467      -272.7252 
   6   2.0000     -10.021930      -272.7106 
   7   2.0000     -10.021864      -272.7088 
   8   2.0000     -10.017131      -272.5800 
   9   2.0000     -10.008908      -272.3562 
  10   2.0000     -10.007961      -272.3305 
  11   2.0000      -0.984745       -26.7963 
  12   2.0000      -0.806221       -21.9384 
  13   2.0000      -0.765236       -20.8231 
  14   2.0000      -0.710959       -19.3462 
  15   2.0000      -0.698047       -18.9948 
  16   2.0000      -0.643548       -17.5118 
  17   2.0000      -0.642051       -17.4711 
  18   2.0000      -0.583559       -15.8795 
  19   2.0000      -0.562783       -15.3141 
  20   2.0000      -0.529759       -14.4155 
  21   2.0000      -0.507201       -13.8016 
  22   2.0000      -0.473294       -12.8790 
  23   2.0000      -0.439834       -11.9685 
  24   2.0000      -0.430971       -11.7273 
  25   2.0000      -0.418201       -11.3798 
  26   2.0000      -0.411746       -11.2042 
  27   2.0000      -0.390408       -10.6235 
  28   2.0000      -0.377865       -10.2822 
  29   2.0000      -0.367727       -10.0064 
  30   2.0000      -0.360392        -9.8068 
  31   2.0000      -0.352312        -9.5869 
  32   2.0000      -0.349440        -9.5087 
  33   2.0000      -0.342130        -9.3098 
  34   2.0000      -0.330011        -8.9801 
  35   2.0000      -0.312528        -8.5043 
  36   2.0000      -0.309736        -8.4284 
  37   2.0000      -0.305073        -8.3015 
  38   2.0000      -0.294752        -8.0206 
  39   2.0000      -0.290489        -7.9046 
  40   2.0000      -0.281608        -7.6630 
  41   2.0000      -0.268457        -7.3051 
  42   2.0000      -0.255102        -6.9417 
  43   2.0000      -0.229037        -6.2324 
  44   0.0000       0.062889         1.7113 
  45   0.0000       0.080715         2.1964 
  46   0.0000       0.087165         2.3719 
  47   0.0000       0.101672         2.7666 
  48   0.0000       0.112577         3.0634 
  49   0.0000       0.124079         3.3764 
  50   0.0000       0.127009         3.4561 
  51   0.0000       0.131920         3.5897 
  52   0.0000       0.135543         3.6883 
  53   0.0000       0.144994         3.9455 
  54   0.0000       0.149992         4.0815 
*Only the first 10 virtual orbitals were printed.

                    ********************************
                    * MULLIKEN POPULATION ANALYSIS *
                    ********************************

-----------------------
MULLIKEN ATOMIC CHARGES
-----------------------
   0 C :   -0.503341
   1 C :   -0.026496
   2 H :    0.159328
   3 C :   -0.342158
   4 C :   -0.386192
   5 C :   -0.068149
   6 H :    0.176134
   7 C :   -0.035423
   8 H :    0.154607
   9 C :   -0.385703
  10 O :   -0.430369
  11 C :   -0.022839
  12 C :   -0.514096
  13 C :   -0.534350
  14 H :    0.148011
  15 H :    0.151609
  16 H :    0.146529
  17 H :    0.157197
  18 H :    0.147569
  19 H :    0.153664
  20 H :    0.166773
  21 H :    0.177562
  22 H :    0.130792
  23 H :    0.282415
  24 H :    0.191492
  25 H :    0.147565
  26 H :    0.150232
  27 H :    0.148456
  28 H :    0.153915
  29 H :    0.154272
  30 H :    0.150998
Sum of atomic charges:   -0.0000000

--------------------------------
MULLIKEN REDUCED ORBITAL CHARGES
--------------------------------
  0 C s       :     3.354259  s :     3.354259
      pz      :     1.072627  p :     3.121947
      px      :     0.946002
      py      :     1.103317
      dz2     :     0.007632  d :     0.027136
      dxz     :     0.004244
      dyz     :     0.002411
      dx2y2   :     0.005497
      dxy     :     0.007351

  1 C s       :     3.085835  s :     3.085835
      pz      :     1.055866  p :     2.894032
      px      :     0.906079
      py      :     0.932087
      dz2     :     0.012095  d :     0.046629
      dxz     :     0.005887
      dyz     :     0.006111
      dx2y2   :     0.011440
      dxy     :     0.011096

  2 H s       :     0.823307  s :     0.823307
      pz      :     0.010765  p :     0.017365
      px      :     0.003278
      py      :     0.003322

  3 C s       :     3.256842  s :     3.256842
      pz      :     1.032275  p :     3.048142
      px      :     0.955963
      py      :     1.059905
      dz2     :     0.010325  d :     0.037174
      dxz     :     0.005193
      dyz     :     0.003866
      dx2y2   :     0.008981
      dxy     :     0.008810

  4 C s       :     3.271315  s :     3.271315
      pz      :     1.050714  p :     3.077958
      px      :     0.997524
      py      :     1.029720
      dz2     :     0.009955  d :     0.036919
      dxz     :     0.004844
      dyz     :     0.004472
      dx2y2   :     0.008422
      dxy     :     0.009226

  5 C s       :     3.109934  s :     3.109934
      pz      :     1.048232  p :     2.913529
      px      :     0.953610
      py      :     0.911687
      dz2     :     0.011565  d :     0.044686
      dxz     :     0.005469
      dyz     :     0.006105
      dx2y2   :     0.010189
      dxy     :     0.011358

  6 H s       :     0.806444  s :     0.806444
      pz      :     0.010870  p :     0.017422
      px      :     0.003289
      py      :     0.003264

  7 C s       :     3.237758  s :     3.237758
      pz      :     1.013361  p :     2.729587
      px      :     0.912033
      py      :     0.804194
      dz2     :     0.016621  d :     0.068078
      dxz     :     0.006841
      dyz     :     0.012481
      dx2y2   :     0.016024
      dxy     :     0.016110

  8 H s       :     0.828529  s :     0.828529
      pz      :     0.011169  p :     0.016864
      px      :     0.003209
      py      :     0.002486

  9 C s       :     3.255438  s :     3.255438
      pz      :     1.069378  p :     3.094158
      px      :     0.960366
      py      :     1.064414
      dz2     :     0.009677  d :     0.036107
      dxz     :     0.004544
      dyz     :     0.004838
      dx2y2   :     0.008796
      dxy     :     0.008252

 10 O s       :     3.769438  s :     3.769438
      pz      :     1.794097  p :     4.645471
      px      :     1.673396
      py      :     1.177978
      dz2     :     0.004201  d :     0.015460
      dxz     :     0.005379
      dyz     :     0.002775
      dx2y2   :    -0.000558
      dxy     :     0.003663

 11 C s       :     3.085788  s :     3.085788
      pz      :     0.871796  p :     2.891197
      px      :     0.935204
      py      :     1.084197
      dz2     :     0.011637  d :     0.045854
      dxz     :     0.009550
      dyz     :     0.007125
      dx2y2   :     0.011190
      dxy     :     0.006352

 12 C s       :     3.354125  s :     3.354125
      pz      :     1.037551  p :     3.132660
      px      :     1.067938
      py      :     1.027171
      dz2     :     0.008714  d :     0.027310
      dxz     :     0.003293
      dyz     :     0.003521
      dx2y2   :     0.009030
      dxy     :     0.002752

 13 C s       :     3.356230  s :     3.356230
      pz      :     0.962307  p :     3.150854
      px      :     1.112982
      py      :     1.075565
      dz2     :     0.007128  d :     0.027266
      dxz     :     0.005451
      dyz     :     0.005690
      dx2y2   :     0.006866
      dxy     :     0.002131

 14 H s       :     0.833724  s :     0.833724
      pz      :     0.004359  p :     0.018266
      px      :     0.004893
      py      :     0.009013

 15 H s       :     0.830148  s :     0.830148
      pz      :     0.010862  p :     0.018243
      px      :     0.003644
      py      :     0.003737

 16 H s       :     0.835199  s :     0.835199
      pz      :     0.004844  p :     0.018271
      px      :     0.005611
      py      :     0.007816

 17 H s       :     0.825069  s :     0.825069
      pz      :     0.010883  p :     0.017735
      px      :     0.003476
      py      :     0.003376

 18 H s       :     0.834599  s :     0.834599
      pz      :     0.004148  p :     0.017832
      px      :     0.004586
      py      :     0.009097

 19 H s       :     0.828226  s :     0.828226
      pz      :     0.004614  p :     0.018110
      px      :     0.005517
      py      :     0.007980

 20 H s       :     0.815268  s :     0.815268
      pz      :     0.010918  p :     0.017959
      px      :     0.003570
      py      :     0.003471

 21 H s       :     0.804867  s :     0.804867
      pz      :     0.010886  p :     0.017571
      px      :     0.003332
      py      :     0.003353

 22 H s       :     0.851341  s :     0.851341
      pz      :     0.004649  p :     0.017868
      px      :     0.005440
      py      :     0.007779

 23 H s       :     0.673826  s :     0.673826
      pz      :     0.013047  p :     0.043759
      px      :     0.014499
      py      :     0.016212

 24 H s       :     0.790700  s :     0.790700
      pz      :     0.003422  p :     0.017808
      px      :     0.003588
      py      :     0.010799

 25 H s       :     0.834161  s :     0.834161
      pz      :     0.003758  p :     0.018274
      px      :     0.010682
      py      :     0.003834

 26 H s       :     0.831444  s :     0.831444
      pz      :     0.003761  p :     0.018325
      px      :     0.004038
      py      :     0.010526

 27 H s       :     0.833277  s :     0.833277
      pz      :     0.010296  p :     0.018267
      px      :     0.003953
      py      :     0.004018

 28 H s       :     0.827661  s :     0.827661
      pz      :     0.006823  p :     0.018424
      px      :     0.005872
      py      :     0.005729

 29 H s       :     0.827394  s :     0.827394
      pz      :     0.003863  p :     0.018334
      px      :     0.003887
      py      :     0.010584

 30 H s       :     0.830754  s :     0.830754
      pz      :     0.003836  p :     0.018248
      px      :     0.010380
      py      :     0.004033


------------------------
MULLIKEN OVERLAP CHARGES
------------------------
B(  0-C ,  1-C ) :   0.4105 B(  0-C ,  3-C ) :  -0.1799 B(  0-C ,  9-C ) :  -0.1493 
B(  0-C , 14-H ) :   0.8132 B(  0-C , 15-H ) :   0.8998 B(  0-C , 16-H ) :   0.8200 
B(  1-C ,  2-H ) :   0.8289 B(  1-C ,  3-C ) :   0.5250 B(  1-C ,  4-C ) :  -0.2046 
B(  1-C ,  5-C ) :   0.0975 B(  1-C ,  7-C ) :  -0.1258 B(  1-C ,  9-C ) :   0.2006 
B(  1-C , 14-H ) :  -0.0769 B(  1-C , 15-H ) :  -0.1165 B(  1-C , 16-H ) :  -0.0813 
B(  1-C , 17-H ) :  -0.1587 B(  1-C , 21-H ) :  -0.1182 B(  2-H ,  3-C ) :  -0.0684 
B(  2-H ,  9-C ) :  -0.0696 B(  3-C ,  4-C ) :   0.0681 B(  3-C ,  5-C ) :  -0.1508 
B(  3-C ,  7-C ) :   0.1445 B(  3-C ,  9-C ) :  -0.4832 B(  3-C , 17-H ) :   0.9304 
B(  3-C , 18-H ) :   0.7096 B(  3-C , 20-H ) :  -0.0662 B(  4-C ,  5-C ) :   0.0804 
B(  4-C ,  6-H ) :  -0.1160 B(  4-C ,  7-C ) :  -0.2011 B(  4-C ,  9-C ) :   0.2079 
B(  4-C , 17-H ) :  -0.0992 B(  4-C , 19-H ) :   0.7245 B(  4-C , 20-H ) :   0.8618 
B(  5-C ,  6-H ) :   0.9811 B(  5-C ,  8-H ) :  -0.0505 B(  5-C ,  9-C ) :  -0.2488 
B(  5-C , 10-O ) :  -0.1779 B(  5-C , 11-C ) :  -0.4275 B(  5-C , 12-C ) :  -0.1663 
B(  5-C , 19-H ) :  -0.0647 B(  5-C , 20-H ) :  -0.0813 B(  5-C , 23-H ) :   0.0504 
B(  5-C , 24-H ) :  -0.1490 B(  5-C , 26-H ) :  -0.0526 B(  5-C , 29-H ) :  -0.0519 
B(  6-H ,  7-C ) :  -0.0963 B(  6-H , 11-C ) :  -0.1083 B(  7-C ,  8-H ) :   0.8658 
B(  7-C ,  9-C ) :   0.2115 B(  7-C , 10-O ) :   0.2850 B(  7-C , 11-C ) :   0.0865 
B(  7-C , 21-H ) :  -0.1776 B(  7-C , 23-H ) :  -0.1379 B(  8-H ,  9-C ) :  -0.1241 
B(  8-H , 10-O ) :  -0.1129 B(  8-H , 11-C ) :  -0.0529 B(  9-C , 10-O ) :  -0.0533 
B(  9-C , 21-H ) :   0.9600 B(  9-C , 22-H ) :   0.6913 B( 10-O , 11-C ) :   0.0563 
B( 10-O , 23-H ) :   0.5901 B( 11-C , 12-C ) :   0.4611 B( 11-C , 13-C ) :   0.2652 
B( 11-C , 20-H ) :  -0.0509 B( 11-C , 24-H ) :   0.9320 B( 11-C , 25-H ) :  -0.1071 
B( 11-C , 26-H ) :  -0.0718 B( 11-C , 27-H ) :  -0.1144 B( 11-C , 28-H ) :  -0.1085 
B( 11-C , 29-H ) :  -0.0696 B( 11-C , 30-H ) :  -0.0989 B( 12-C , 13-C ) :  -0.1906 
B( 12-C , 25-H ) :   0.8127 B( 12-C , 26-H ) :   0.8766 B( 12-C , 27-H ) :   0.8376 
B( 13-C , 24-H ) :  -0.0651 B( 13-C , 28-H ) :   0.8324 B( 13-C , 29-H ) :   0.8461 
B( 13-C , 30-H ) :   0.8127 


                     *******************************
                     * LOEWDIN POPULATION ANALYSIS *
                     *******************************

----------------------
LOEWDIN ATOMIC CHARGES
----------------------
   0 C :   -0.412338
   1 C :   -0.232760
   2 H :    0.158583
   3 C :   -0.291295
   4 C :   -0.286082
   5 C :   -0.184166
   6 H :    0.172956
   7 C :    0.067256
   8 H :    0.165113
   9 C :   -0.270630
  10 O :   -0.619652
  11 C :   -0.229299
  12 C :   -0.413610
  13 C :   -0.414501
  14 H :    0.153463
  15 H :    0.154514
  16 H :    0.152873
  17 H :    0.159462
  18 H :    0.157913
  19 H :    0.161010
  20 H :    0.162442
  21 H :    0.168749
  22 H :    0.156850
  23 H :    0.266662
  24 H :    0.180076
  25 H :    0.153162
  26 H :    0.149916
  27 H :    0.153602
  28 H :    0.152819
  29 H :    0.152649
  30 H :    0.154263

-------------------------------
LOEWDIN REDUCED ORBITAL CHARGES
-------------------------------
  0 C s       :     2.969703  s :     2.969703
      pz      :     1.150965  p :     3.378710
      px      :     1.073904
      py      :     1.153842
      dz2     :     0.018842  d :     0.063925
      dxz     :     0.009049
      dyz     :     0.006180
      dx2y2   :     0.013071
      dxy     :     0.016783

  1 C s       :     2.900361  s :     2.900361
      pz      :     1.117843  p :     3.235830
      px      :     1.053686
      py      :     1.064300
      dz2     :     0.027062  d :     0.096569
      dxz     :     0.011050
      dyz     :     0.012188
      dx2y2   :     0.023860
      dxy     :     0.022409

  2 H s       :     0.798279  s :     0.798279
      pz      :     0.026669  p :     0.043138
      px      :     0.008190
      py      :     0.008279

  3 C s       :     2.928245  s :     2.928245
      pz      :     1.126469  p :     3.282074
      px      :     1.060651
      py      :     1.094953
      dz2     :     0.023782  d :     0.080977
      dxz     :     0.010373
      dyz     :     0.008371
      dx2y2   :     0.019574
      dxy     :     0.018877

  4 C s       :     2.919777  s :     2.919777
      pz      :     1.131717  p :     3.285697
      px      :     1.066096
      py      :     1.087883
      dz2     :     0.023055  d :     0.080608
      dxz     :     0.009600
      dyz     :     0.009625
      dx2y2   :     0.018434
      dxy     :     0.019894

  5 C s       :     2.894864  s :     2.894864
      pz      :     1.109727  p :     3.197284
      px      :     1.053726
      py      :     1.033832
      dz2     :     0.025566  d :     0.092018
      dxz     :     0.010316
      dyz     :     0.012196
      dx2y2   :     0.021223
      dxy     :     0.022717

  6 H s       :     0.783405  s :     0.783405
      pz      :     0.027258  p :     0.043639
      px      :     0.008483
      py      :     0.007898

  7 C s       :     2.828721  s :     2.828721
      pz      :     1.051283  p :     2.957394
      px      :     1.006184
      py      :     0.899926
      dz2     :     0.038441  d :     0.146629
      dxz     :     0.012376
      dyz     :     0.026436
      dx2y2   :     0.034827
      dxy     :     0.034550

  8 H s       :     0.794101  s :     0.794101
      pz      :     0.026334  p :     0.040786
      px      :     0.007989
      py      :     0.006463

  9 C s       :     2.931463  s :     2.931463
      pz      :     1.132866  p :     3.260269
      px      :     1.043863
      py      :     1.083540
      dz2     :     0.022190  d :     0.078898
      dxz     :     0.009269
      dyz     :     0.010267
      dx2y2   :     0.018784
      dxy     :     0.018386

 10 O s       :     3.510090  s :     3.510090
      pz      :     1.802353  p :     4.806238
      px      :     1.686597
      py      :     1.317288
      dz2     :     0.053475  d :     0.303324
      dxz     :     0.022006
      dyz     :     0.060394
      dx2y2   :     0.076552
      dxy     :     0.090897

 11 C s       :     2.899853  s :     2.899853
      pz      :     1.062637  p :     3.235671
      px      :     1.053353
      py      :     1.119681
      dz2     :     0.023959  d :     0.093775
      dxz     :     0.018747
      dyz     :     0.014306
      dx2y2   :     0.024183
      dxy     :     0.012579

 12 C s       :     2.968626  s :     2.968626
      pz      :     1.121474  p :     3.380759
      px      :     1.130189
      py      :     1.129096
      dz2     :     0.020529  d :     0.064225
      dxz     :     0.007524
      dyz     :     0.008212
      dx2y2   :     0.021605
      dxy     :     0.006355

 13 C s       :     2.965300  s :     2.965300
      pz      :     1.087837  p :     3.385124
      px      :     1.150843
      py      :     1.146444
      dz2     :     0.016845  d :     0.064077
      dxz     :     0.012123
      dyz     :     0.012573
      dx2y2   :     0.017214
      dxy     :     0.005321

 14 H s       :     0.803020  s :     0.803020
      pz      :     0.009903  p :     0.043517
      px      :     0.011368
      py      :     0.022246

 15 H s       :     0.802004  s :     0.802004
      pz      :     0.027188  p :     0.043481
      px      :     0.008172
      py      :     0.008122

 16 H s       :     0.803643  s :     0.803643
      pz      :     0.011203  p :     0.043484
      px      :     0.013212
      py      :     0.019069

 17 H s       :     0.797141  s :     0.797141
      pz      :     0.027207  p :     0.043397
      px      :     0.008143
      py      :     0.008047

 18 H s       :     0.798619  s :     0.798619
      pz      :     0.009805  p :     0.043468
      px      :     0.011184
      py      :     0.022479

 19 H s       :     0.794946  s :     0.794946
      pz      :     0.011135  p :     0.044044
      px      :     0.013384
      py      :     0.019525

 20 H s       :     0.793579  s :     0.793579
      pz      :     0.027319  p :     0.043979
      px      :     0.008345
      py      :     0.008315

 21 H s       :     0.787661  s :     0.787661
      pz      :     0.027657  p :     0.043590
      px      :     0.007832
      py      :     0.008102

 22 H s       :     0.800044  s :     0.800044
      pz      :     0.011023  p :     0.043106
      px      :     0.012868
      py      :     0.019215

 23 H s       :     0.608943  s :     0.608943
      pz      :     0.035408  p :     0.124395
      px      :     0.042597
      py      :     0.046389

 24 H s       :     0.774664  s :     0.774664
      pz      :     0.008562  p :     0.045260
      px      :     0.008876
      py      :     0.027822

 25 H s       :     0.803274  s :     0.803274
      pz      :     0.008428  p :     0.043564
      px      :     0.026504
      py      :     0.008633

 26 H s       :     0.806115  s :     0.806115
      pz      :     0.008515  p :     0.043970
      px      :     0.009239
      py      :     0.026216

 27 H s       :     0.802912  s :     0.802912
      pz      :     0.025475  p :     0.043486
      px      :     0.008908
      py      :     0.009103

 28 H s       :     0.803059  s :     0.803059
      pz      :     0.016510  p :     0.044121
      px      :     0.014015
      py      :     0.013597

 29 H s       :     0.803422  s :     0.803422
      pz      :     0.008868  p :     0.043929
      px      :     0.008635
      py      :     0.026426

 30 H s       :     0.802135  s :     0.802135
      pz      :     0.008790  p :     0.043602
      px      :     0.025794
      py      :     0.009018


---------------------------------
LOEWDIN BOND ORDERS (THRESH 0.050000)
---------------------------------
B(  0-C ,  1-C ) :   1.1090 B(  0-C ,  3-C ) :   0.0739 B(  0-C ,  9-C ) :   0.0762 
B(  0-C , 14-H ) :   0.9231 B(  0-C , 15-H ) :   0.9218 B(  0-C , 16-H ) :   0.9235 
B(  1-C ,  2-H ) :   0.8547 B(  1-C ,  3-C ) :   1.0660 B(  1-C ,  4-C ) :   0.0674 
B(  1-C ,  7-C ) :   0.0700 B(  1-C ,  9-C ) :   1.0577 B(  3-C ,  4-C ) :   1.0976 
B(  3-C ,  5-C ) :   0.0661 B(  3-C ,  9-C ) :   0.0612 B(  3-C , 17-H ) :   0.8812 
B(  3-C , 18-H ) :   0.8848 B(  4-C ,  5-C ) :   1.0481 B(  4-C ,  7-C ) :   0.0682 
B(  4-C , 11-C ) :   0.0582 B(  4-C , 19-H ) :   0.8778 B(  4-C , 20-H ) :   0.8741 
B(  5-C ,  6-H ) :   0.8358 B(  5-C ,  7-C ) :   0.9578 B(  5-C ,  9-C ) :   0.0642 
B(  5-C , 10-O ) :   0.1648 B(  5-C , 11-C ) :   1.0272 B(  5-C , 12-C ) :   0.0722 
B(  5-C , 13-C ) :   0.0574 B(  7-C ,  8-H ) :   0.7906 B(  7-C ,  9-C ) :   0.9970 
B(  7-C , 10-O ) :   1.3926 B(  7-C , 11-C ) :   0.0634 B(  8-H , 10-O ) :   0.0972 
B(  9-C , 10-O ) :   0.1733 B(  9-C , 21-H ) :   0.8714 B(  9-C , 22-H ) :   0.8769 
B( 10-O , 11-C ) :   0.0566 B( 10-O , 23-H ) :   0.9684 B( 11-C , 12-C ) :   1.1062 
B( 11-C , 13-C ) :   1.1027 B( 11-C , 24-H ) :   0.8356 B( 12-C , 13-C ) :   0.0725 
B( 12-C , 25-H ) :   0.9225 B( 12-C , 26-H ) :   0.9203 B( 12-C , 27-H ) :   0.9239 
B( 13-C , 28-H ) :   0.9194 B( 13-C , 29-H ) :   0.9190 B( 13-C , 30-H ) :   0.9222 


------------------------------------------
LOEWDIN REDUCED ORBITAL POPULATIONS PER MO
-------------------------------------------
THRESHOLD FOR PRINTING IS 0.1%%
                      0         1         2         3         4         5   
                 -18.94455 -10.07509 -10.03419 -10.02478 -10.02369 -10.02247
                   2.00000   2.00000   2.00000   2.00000   2.00000   2.00000
                  --------  --------  --------  --------  --------  --------
 1 C  s               0.0       0.0      99.6       0.0       0.0       0.0
 3 C  s               0.0       0.0       0.0       0.0       0.0      98.1
 4 C  s               0.0       0.0       0.0       0.1       0.0       1.6
 5 C  s               0.0       0.0       0.0      99.5       0.0       0.0
 7 C  s               0.0      99.3       0.0       0.0       0.0       0.0
 9 C  s               0.0       0.0       0.0       0.0      99.7       0.0
10 O  s              99.9       0.0       0.0       0.0       0.0       0.0

                      6         7         8         9        10        11   
                 -10.02193 -10.02186 -10.01713 -10.00891 -10.00796  -0.98474
                   2.00000   2.00000   2.00000   2.00000   2.00000   2.00000
                  --------  --------  --------  --------  --------  --------
 0 C  s               0.0       0.0      99.7       0.0       0.0       0.0
 3 C  s               1.6       0.0       0.0       0.0       0.0       0.0
 4 C  s              98.0       0.0       0.0       0.0       0.0       0.1
 4 C  py              0.0       0.0       0.0       0.0       0.0       0.1
 5 C  s               0.1       0.1       0.0       0.0       0.0       0.8
 5 C  px              0.0       0.1       0.0       0.0       0.0       0.1
 5 C  py              0.1       0.0       0.0       0.0       0.0       1.3
 7 C  s               0.0       0.0       0.0       0.0       0.0       9.6
 7 C  pz              0.0       0.0       0.0       0.0       0.0       1.0
 7 C  px              0.0       0.0       0.0       0.0       0.0       1.0
 7 C  py              0.0       0.0       0.0       0.0       0.0       6.3
 7 C  dz2             0.0       0.0       0.0       0.0       0.0       0.1
 7 C  dyz             0.0       0.0       0.0       0.0       0.0       0.2
 7 C  dx2y2           0.0       0.0       0.0       0.0       0.0       0.2
 7 C  dxy             0.0       0.0       0.0       0.0       0.0       0.2
 8 H  s               0.0       0.0       0.0       0.0       0.0       0.6
 9 C  s               0.0       0.0       0.0       0.0       0.0       0.9
 9 C  px              0.0       0.0       0.0       0.0       0.0       1.4
 9 C  py              0.0       0.0       0.0       0.0       0.0       0.2
10 O  s               0.0       0.0       0.0       0.0       0.0      58.8
10 O  pz              0.0       0.0       0.0       0.0       0.0       0.8
10 O  px              0.0       0.0       0.0       0.0       0.0       1.7
10 O  py              0.0       0.0       0.0       0.0       0.0       0.2
11 C  s               0.0      99.6       0.0       0.0       0.0       0.1
11 C  px              0.0       0.0       0.0       0.0       0.0       0.2
11 C  py              0.0       0.0       0.0       0.0       0.0       0.1
12 C  s               0.0       0.0       0.0       0.0      99.7       0.0
13 C  s               0.0       0.0       0.0      99.7       0.0       0.0
23 H  s               0.0       0.0       0.0       0.0       0.0      10.4
23 H  pz              0.0       0.0       0.0       0.0       0.0       0.2
23 H  px              0.0       0.0       0.0       0.0       0.0       0.6
23 H  py              0.0       0.0       0.0       0.0       0.0       1.5

                     12        13        14        15        16        17   
                  -0.80622  -0.76524  -0.71096  -0.69805  -0.64355  -0.64205
                   2.00000   2.00000   2.00000   2.00000   2.00000   2.00000
                  --------  --------  --------  --------  --------  --------
 0 C  s               3.3       5.2      10.5       1.7       0.5      19.6
 0 C  px              1.5       1.2       0.4       0.0       0.0       1.1
 0 C  py              0.0       0.0       0.1       0.3       0.0       0.0
 1 C  s              12.4      10.2       5.2       0.5       0.0       0.2
 1 C  pz              0.5       0.2       0.0       0.0       0.0       0.0
 1 C  px              0.6       0.1       3.7       0.4       0.2       9.1
 1 C  py              0.0       0.0       0.8       7.4       0.0       0.2
 1 C  dx2y2           0.0       0.0       0.0       0.0       0.0       0.2
 1 C  dxy             0.0       0.0       0.0       0.1       0.0       0.0
 2 H  s               1.4       1.3       0.8       0.1       0.0       0.0
 2 H  pz              0.1       0.1       0.1       0.0       0.0       0.0
 3 C  s              10.7       2.6       2.2      11.8       0.2       3.9
 3 C  pz              0.4       0.1       0.0       0.0       0.0       0.0
 3 C  px              0.2       1.3       4.9       0.1       0.0       0.0
 3 C  py              1.4       0.6       0.4       0.4       0.0       0.0
 4 C  s              10.3       0.5      12.1       5.7       0.0       0.0
 4 C  pz              0.2       0.0       0.1       0.0       0.2       0.0
 4 C  px              0.4       2.5       0.1       1.5       0.1       2.3
 4 C  py              1.2       0.5       0.1       1.3       0.0       1.1
 5 C  s              10.6       7.3       3.6       1.2       0.7       7.2
 5 C  pz              0.4       0.1       0.1       0.0       1.1       0.0
 5 C  px              0.3       3.5       3.8       0.5       0.1       0.0
 5 C  py              0.3       0.0       1.0       4.3       0.0       0.2
 6 H  s               1.2       0.9       0.6       0.2       0.4       1.5
 6 H  pz              0.1       0.1       0.1       0.0       0.0       0.1
 7 C  s               4.3       0.1       0.7      11.6       0.0       0.3
 7 C  pz              0.1       0.0       0.0       0.0       0.1       0.1
 7 C  px              0.5       2.8       0.4       2.3       0.0       4.7
 7 C  py              3.7       0.6       0.9       1.1       0.0       0.9
 7 C  dx2y2           0.0       0.0       0.0       0.1       0.0       0.1
 8 H  s               0.5       0.0       0.1       2.1       0.0       0.1
 8 H  pz              0.0       0.0       0.0       0.2       0.0       0.0
 9 C  s               7.9       3.8       1.5      13.5       0.0       6.0
 9 C  pz              0.2       0.1       0.0       0.1       0.0       0.0
 9 C  px              0.0       0.8       1.8       1.7       0.0       0.0
 9 C  py              1.9       0.8       0.2       0.6       0.0       0.0
10 O  s               1.8       0.1       0.1       3.2       0.0       0.0
10 O  pz              0.0       0.0       0.0       0.1       0.0       0.0
10 O  px              0.0       0.1       0.0       0.3       0.0       0.2
10 O  py              0.9       0.2       0.3       4.6       0.0       0.8
10 O  dz2             0.1       0.0       0.0       0.2       0.0       0.0
10 O  dyz             0.0       0.0       0.0       0.3       0.0       0.0
10 O  dx2y2           0.1       0.1       0.1       0.1       0.0       0.3
10 O  dxy             0.1       0.1       0.0       0.8       0.0       0.0
11 C  s               4.4      17.7       5.5       0.2       0.0       0.0
11 C  pz              0.0       0.0       0.1       0.0      15.0       0.0
11 C  px              0.8       0.0       3.3       0.6       0.0       4.7
11 C  py              0.1       0.5       0.2       0.3       0.5       0.6
11 C  dz2             0.0       0.0       0.0       0.0       0.1       0.0
11 C  dxz             0.0       0.0       0.0       0.0       0.1       0.0
11 C  dyz             0.0       0.0       0.0       0.0       0.1       0.0
12 C  s               1.2       7.8       6.7       0.7      17.7       6.3
12 C  pz              0.2       1.0       0.4       0.0       0.9       0.0
12 C  px              0.3       0.6       0.0       0.0       0.0       0.3
12 C  py              0.1       0.6       0.2       0.0       0.1       0.0
13 C  s               1.3       7.7       6.1       0.5      25.9       0.5
13 C  pz              0.5       1.9       0.6       0.0       1.0       0.0
13 C  px              0.2       0.1       0.1       0.0       0.0       0.2
14 H  s               0.4       0.7       1.8       0.4       0.1       5.1
14 H  py              0.0       0.0       0.1       0.0       0.0       0.3
15 H  s               0.4       0.7       1.8       0.3       0.1       4.7
15 H  pz              0.0       0.1       0.2       0.0       0.0       0.4
16 H  s               0.4       0.7       1.9       0.2       0.1       5.0
16 H  py              0.0       0.0       0.1       0.0       0.0       0.3
17 H  s               1.2       0.3       0.3       2.0       0.0       0.8
17 H  pz              0.1       0.0       0.0       0.2       0.0       0.1
18 H  s               1.2       0.3       0.3       2.5       0.0       0.8
18 H  py              0.1       0.0       0.0       0.2       0.0       0.1
19 H  s               1.1       0.1       2.0       1.2       0.0       0.0
19 H  py              0.1       0.0       0.1       0.1       0.0       0.0
20 H  s               1.2       0.1       1.9       1.0       0.0       0.0
20 H  pz              0.1       0.0       0.2       0.1       0.0       0.0
21 H  s               0.9       0.5       0.2       2.4       0.0       1.3
21 H  pz              0.1       0.1       0.0       0.2       0.0       0.1
22 H  s               0.8       0.5       0.4       2.6       0.0       1.5
22 H  py              0.0       0.0       0.0       0.1       0.0       0.1
23 H  s               0.5       0.1       0.1       1.6       0.0       0.2
23 H  px              0.1       0.0       0.0       0.1       0.0       0.0
23 H  py              0.1       0.0       0.0       0.1       0.0       0.0
24 H  s               0.5       2.2       0.9       0.0       0.0       0.0
24 H  py              0.0       0.2       0.1       0.0       0.0       0.0
25 H  s               0.1       1.0       1.2       0.1       3.8       1.7
25 H  px              0.0       0.1       0.1       0.0       0.3       0.1
26 H  s               0.1       1.0       1.0       0.2       4.0       1.5
26 H  py              0.0       0.1       0.1       0.0       0.3       0.1
27 H  s               0.1       1.0       1.0       0.1       4.8       1.3
27 H  pz              0.0       0.1       0.1       0.0       0.4       0.1
28 H  s               0.1       1.0       0.9       0.0       6.7       0.1
28 H  pz              0.0       0.0       0.0       0.0       0.2       0.0
28 H  px              0.0       0.0       0.0       0.0       0.2       0.0
28 H  py              0.0       0.0       0.0       0.0       0.2       0.0
29 H  s               0.2       1.0       0.9       0.1       5.9       0.2
29 H  py              0.0       0.1       0.1       0.0       0.5       0.0
30 H  s               0.1       1.0       1.1       0.1       6.1       0.2
30 H  px              0.0       0.1       0.1       0.0       0.5       0.0

                     18        19        20        21        22        23   
                  -0.58356  -0.56278  -0.52976  -0.50720  -0.47329  -0.43983
                   2.00000   2.00000   2.00000   2.00000   2.00000   2.00000
                  --------  --------  --------  --------  --------  --------
 0 C  s               1.4       3.4       1.1       0.0       0.2       0.1
 0 C  pz              0.0       0.2       2.3       0.1       0.2       2.2
 0 C  px              0.7       2.6       2.3       0.2       1.4       0.6
 0 C  py              0.7       0.2       0.0       0.0       0.5       0.2
 1 C  s               1.0       3.9       8.3       0.1       0.9       0.1
 1 C  pz              0.0       0.1       9.4       1.1       0.1       3.0
 1 C  px              0.7       0.5       0.2       0.0       0.5       2.5
 1 C  py              6.3       0.9       0.0       0.1       0.5       0.2
 2 H  s               0.3       1.3       8.4       0.1       0.4       1.0
 2 H  pz              0.0       0.1       0.5       0.0       0.0       0.0
 3 C  s               7.0       0.5       4.0       0.0       0.4       0.4
 3 C  pz              0.1       0.0       6.3       1.3       0.5       0.2
 3 C  px              5.5       0.5       0.1       0.4       0.3       2.6
 3 C  py              0.0       1.6       2.8       2.0       0.0       6.9
 4 C  s              11.0       0.7       0.4       1.7       1.2       0.6
 4 C  pz              0.3       0.3       3.0       2.9       0.1       2.0
 4 C  px              3.9       0.7       0.8       0.1       0.3       2.7
 4 C  py              0.4       1.0       0.6       4.6       3.6       1.7
 5 C  s               0.1       3.3       0.0       4.5       0.4       0.8
 5 C  pz              0.1       1.3       2.4       4.6       1.3       1.7
 5 C  px              0.3       3.9       0.4       4.6       0.2       5.1
 5 C  py              8.4       0.4       0.1       0.0       0.2       0.9
 5 C  dyz             0.1       0.0       0.0       0.0       0.0       0.0
 5 C  dx2y2           0.0       0.1       0.0       0.0       0.1       0.0
 6 H  s               0.1       1.5       0.5       5.5       0.0       1.3
 6 H  pz              0.0       0.1       0.0       0.3       0.0       0.0
 7 C  s               2.4       8.0       0.4       0.5       0.8       0.0
 7 C  pz              0.0       1.6       3.5       4.8      10.6       1.5
 7 C  px              3.6       0.0       0.9       0.1       4.3       0.1
 7 C  py              0.1       0.4       0.5       2.2       4.8       2.9
 7 C  dyz             0.0       0.0       0.0       0.1       0.1       0.0
 7 C  dxy             0.0       0.0       0.0       0.0       0.3       0.0
 8 H  s               0.7       3.8       1.5       1.9       5.0       0.6
 8 H  pz              0.1       0.3       0.1       0.1       0.2       0.0
 9 C  s               4.6       0.7       3.4       0.2       0.1       0.1
 9 C  pz              0.1       0.1       5.7       1.8       2.0       3.0
 9 C  px              1.2       3.9       0.0       0.1       2.9       0.7
 9 C  py              1.3       1.1       3.8       1.6       0.0       6.5
 9 C  dx2y2           0.0       0.1       0.0       0.0       0.0       0.0
10 O  s               0.1       0.8       0.0       0.2       1.2       0.5
10 O  pz              0.1       0.7       0.3       1.0       2.0       1.2
10 O  px              0.5       0.3       0.2       0.0       3.1       1.4
10 O  py              6.7       8.4       0.0       1.1      31.5       0.3
10 O  dz2             0.0       0.0       0.1       0.0       0.0       0.0
10 O  dxz             0.0       0.1       0.0       0.1       0.2       0.1
10 O  dyz             0.2       0.5       0.1       0.3       0.1       0.0
10 O  dx2y2           0.3       0.0       0.1       0.2       0.0       0.0
10 O  dxy             0.0       0.8       0.0       0.0       0.2       0.0
11 C  s               0.9       4.5       1.3       8.0       0.2       0.2
11 C  pz              0.1       0.3       0.1       0.0       0.1       0.2
11 C  px              0.1       2.7       0.0       0.4       0.0       6.6
11 C  py              1.7       0.9       0.5       2.7       0.1       5.0
12 C  s               0.2       4.3       0.6       1.2       0.0       0.0
12 C  pz              0.0       0.4       0.2       1.6       0.0       0.2
12 C  px              0.0       1.7       0.3       0.5       0.0       4.0
12 C  py              0.4       1.3       0.6       2.7       0.0       2.4
13 C  s               0.3       1.5       0.0       2.9       0.1       0.1
13 C  pz              0.1       1.2       0.3       5.5       0.2       0.9
13 C  px              0.0       0.3       0.0       0.6       0.2       1.3
[...]
 9 C  dyz             0.3       0.0       0.0       0.0       0.0       0.0
 9 C  dx2y2           1.0       0.3       0.0       0.0       0.0       0.0
 9 C  dxy             0.6       0.1       0.0       0.0       0.0       0.0
10 O  s               0.2      27.2       6.5       0.0       0.0       0.0
10 O  pz              0.1       3.1       0.5       0.0       0.0       0.0
10 O  px              0.0       5.5       3.6       0.0       0.0       0.0
10 O  py              0.0      10.3      17.0       0.0       0.0       0.0
10 O  dz2             0.2       5.8       2.6       0.0       0.0       0.0
10 O  dxz             0.2       4.4       2.1       0.0       0.0       0.0
10 O  dyz             0.0       2.6       9.0       0.0       0.0       0.0
10 O  dx2y2           0.0       7.3       0.3       0.0       0.0       0.0
10 O  dxy             0.1       1.7      24.7       0.0       0.0       0.0
11 C  s               0.0       0.0       0.0       2.2      11.7       3.7
11 C  pz              0.0       0.1       0.0       0.0       0.0       0.0
11 C  px              0.8       0.1       0.0       0.0       0.0       0.0
11 C  dz2             0.6       0.0       0.0       0.0       0.0       0.0
11 C  dx2y2           0.1       0.0       0.0       0.0       0.0       0.0
12 C  s               0.0       0.0       0.0       0.8      76.1       5.8
12 C  py              0.1       0.0       0.0       0.0       0.0       0.0
12 C  dyz             0.1       0.0       0.0       0.0       0.0       0.0
13 C  s               0.0       0.1       0.0       1.9       7.0      24.0
16 H  py              0.1       0.0       0.0       0.0       0.0       0.0
17 H  s               1.0       0.0       0.0       0.0       0.0       0.0
17 H  pz              2.4       0.0       0.0       0.0       0.0       0.0
17 H  py              0.1       0.0       0.0       0.0       0.0       0.0
18 H  s               0.4       0.0       0.0       0.0       0.0       0.0
18 H  px              0.1       0.0       0.0       0.0       0.0       0.0
18 H  py              0.6       0.0       0.0       0.0       0.0       0.0
19 H  py              0.1       0.0       0.0       0.0       0.0       0.0
20 H  s               0.8       0.0       0.0       0.0       0.0       0.0
20 H  pz              2.2       0.0       0.0       0.0       0.0       0.0
21 H  s               0.1       0.0       0.0       0.0       0.0       0.0
21 H  pz              0.6       0.0       0.0       0.0       0.0       0.0
22 H  s               0.8       0.0       0.0       0.0       0.0       0.0
22 H  pz              0.4       0.0       0.0       0.0       0.0       0.0
22 H  px              0.3       0.0       0.0       0.0       0.0       0.0
22 H  py              1.3       0.0       0.0       0.0       0.0       0.0
23 H  s               0.0       0.7      14.1       0.0       0.0       0.0
23 H  pz              0.0       0.0       1.5       0.0       0.0       0.0
23 H  px              0.0       0.2       5.2       0.0       0.0       0.0
23 H  py              0.1       0.9       8.9       0.0       0.0       0.0
26 H  py              0.1       0.0       0.0       0.0       0.0       0.0
28 H  px              0.1       0.0       0.0       0.0       0.0       0.0

                    306       307       308       309       310       311   
                  22.05168  22.07006  22.11989  22.17861  22.20374  22.24230
                   0.00000   0.00000   0.00000   0.00000   0.00000   0.00000
                  --------  --------  --------  --------  --------  --------
 0 C  s               2.0      15.1       1.5       3.9       0.0       0.2
 1 C  s              29.1      13.8      22.6      14.7       0.0      10.8
 3 C  s              11.7       1.0      27.4       1.6       0.0       0.0
 4 C  s               5.0      36.9       8.3      16.8       0.1      13.2
 5 C  s               1.7       0.0       1.4      15.3       8.3      52.8
 7 C  s               0.1       6.1      11.1      33.6       0.3       0.9
 9 C  s               8.3      11.7      19.6      11.3       4.0       9.9
11 C  s               2.3       0.8       3.4       1.8      64.1       9.9
12 C  s               9.0       0.1       2.5       0.1       2.8       2.1
13 C  s              30.3      14.1       1.7       0.5      19.9       0.0

                    312       313   
                  22.24911  43.75717
                   0.00000   0.00000
                  --------  --------
 0 C  s               0.4       0.0
 1 C  s               0.8       0.0
 3 C  s              22.7       0.0
 4 C  s              17.0       0.0
 5 C  s               9.8       0.0
 7 C  s              44.2       0.1
 9 C  s               4.6       0.0
10 O  s               0.0      99.8
11 C  s               0.1       0.0
12 C  s               0.1       0.0


                      *****************************
                      * MAYER POPULATION ANALYSIS *
                      *****************************

  NA   - Mulliken gross atomic population
  ZA   - Total nuclear charge
  QA   - Mulliken gross atomic charge
  VA   - Mayer's total valence
  BVA  - Mayer's bonded valence
  FA   - Mayer's free valence

  ATOM       NA         ZA         QA         VA         BVA        FA
  0 C      6.5033     6.0000    -0.5033     3.7978     3.7978     0.0000
  1 C      6.0265     6.0000    -0.0265     3.5033     3.5033     0.0000
  2 H      0.8407     1.0000     0.1593     0.9575     0.9575     0.0000
  3 C      6.3422     6.0000    -0.3422     3.6507     3.6507     0.0000
  4 C      6.3862     6.0000    -0.3862     3.6568     3.6568     0.0000
  5 C      6.0681     6.0000    -0.0681     3.4350     3.4350     0.0000
  6 H      0.8239     1.0000     0.1761     0.9622     0.9622    -0.0000
  7 C      6.0354     6.0000    -0.0354     3.5845     3.5845    -0.0000
  8 H      0.8454     1.0000     0.1546     0.9458     0.9458     0.0000
  9 C      6.3857     6.0000    -0.3857     3.6422     3.6422    -0.0000
 10 O      8.4304     8.0000    -0.4304     1.8060     1.8060     0.0000
 11 C      6.0228     6.0000    -0.0228     3.3848     3.3848    -0.0000
 12 C      6.5141     6.0000    -0.5141     3.7864     3.7864     0.0000
 13 C      6.5344     6.0000    -0.5344     3.7595     3.7595     0.0000
 14 H      0.8520     1.0000     0.1480     0.9636     0.9636    -0.0000
 15 H      0.8484     1.0000     0.1516     0.9659     0.9659     0.0000
 16 H      0.8535     1.0000     0.1465     0.9644     0.9644    -0.0000
 17 H      0.8428     1.0000     0.1572     0.9663     0.9663     0.0000
 18 H      0.8524     1.0000     0.1476     0.9622     0.9622     0.0000
 19 H      0.8463     1.0000     0.1537     0.9595     0.9595     0.0000
 20 H      0.8332     1.0000     0.1668     0.9567     0.9567    -0.0000
 21 H      0.8224     1.0000     0.1776     0.9633     0.9633    -0.0000
 22 H      0.8692     1.0000     0.1308     0.9689     0.9689    -0.0000
 23 H      0.7176     1.0000     0.2824     0.9206     0.9206     0.0000
 24 H      0.8085     1.0000     0.1915     0.9516     0.9516    -0.0000
 25 H      0.8524     1.0000     0.1476     0.9632     0.9632    -0.0000
 26 H      0.8498     1.0000     0.1502     0.9646     0.9646     0.0000
 27 H      0.8515     1.0000     0.1485     0.9648     0.9648     0.0000
 28 H      0.8461     1.0000     0.1539     0.9627     0.9627    -0.0000
 29 H      0.8457     1.0000     0.1543     0.9614     0.9614     0.0000
 30 H      0.8490     1.0000     0.1510     0.9626     0.9626     0.0000

  Mayer bond orders larger than 0.100000
B(  0-C ,  1-C ) :   0.8827 B(  0-C , 14-H ) :   0.9760 B(  0-C , 15-H ) :   0.9960 
B(  0-C , 16-H ) :   0.9783 B(  1-C ,  2-H ) :   0.9493 B(  1-C ,  3-C ) :   0.9196 
B(  1-C ,  9-C ) :   0.9051 B(  3-C ,  4-C ) :   0.8920 B(  3-C , 17-H ) :   1.0164 
B(  3-C , 18-H ) :   0.9459 B(  4-C ,  5-C ) :   0.8578 B(  4-C , 19-H ) :   0.9465 
B(  4-C , 20-H ) :   0.9892 B(  5-C ,  6-H ) :   1.0172 B(  5-C ,  7-C ) :   0.9646 
B(  5-C , 11-C ) :   0.8360 B(  7-C ,  8-H ) :   0.9795 B(  7-C ,  9-C ) :   0.8621 
B(  7-C , 10-O ) :   0.8464 B(  9-C , 21-H ) :   1.0318 B(  9-C , 22-H ) :   0.9409 
B( 10-O , 23-H ) :   0.9046 B( 11-C , 12-C ) :   0.8940 B( 11-C , 13-C ) :   0.8481 
B( 11-C , 24-H ) :   0.9821 B( 12-C , 25-H ) :   0.9758 B( 12-C , 26-H ) :   0.9873 
B( 12-C , 27-H ) :   0.9845 B( 13-C , 28-H ) :   0.9821 B( 13-C , 29-H ) :   0.9799 
B( 13-C , 30-H ) :   0.9737 

-------
TIMINGS
-------

Total SCF time: 0 days 0 hours 0 min 35 sec 

Total time                  ....      35.671 sec
Sum of individual times     ....      35.629 sec  ( 99.9%)

SCF preparation             ....       0.170 sec  (  0.5%)
Fock matrix formation       ....      34.664 sec  ( 97.2%)
  Startup                   ....       0.011 sec  (  0.0% of F)
  Split-RI-J                ....       9.092 sec  ( 26.2% of F)
  XC integration            ....      25.206 sec  ( 72.7% of F)
    Basis function eval.    ....       4.429 sec  ( 17.6% of XC)
    Density eval.           ....       9.382 sec  ( 37.2% of XC)
    XC-Functional eval.     ....       2.144 sec  (  8.5% of XC)
    XC-Potential eval.      ....       8.703 sec  ( 34.5% of XC)
Diagonalization             ....       0.000 sec  (  0.0%)
Density matrix formation    ....       0.059 sec  (  0.2%)
Total Energy calculation    ....       0.004 sec  (  0.0%)
Population analysis         ....       0.366 sec  (  1.0%)
Orbital Transformation      ....       0.044 sec  (  0.1%)
Orbital Orthonormalization  ....       0.000 sec  (  0.0%)
DIIS solution               ....       0.282 sec  (  0.8%)
  MO trafo                  ....       0.000 sec  (  0.0 % of DIIS)
  Orb grad                  ....       0.000 sec  (  0.0 % of DIIS)
  Energy W gradient         ....       0.000 sec  (  0.0 % of DIIS)
  DIIS error                ....       0.042 sec  ( 14.7 % of DIIS)
  DIIS work                 ....       0.217 sec  ( 76.9 % of DIIS)
  Form Q                    ....       0.000 sec  (  0.0 % of DIIS)
  Form QpQm                 ....       0.000 sec  (  0.0 % of DIIS)
  Exp/Cayley                ....       0.000 sec  (  0.0 % of DIIS)
  Orb update                ....       0.000 sec  (  0.0 % of DIIS)
  Wake-sleep                ....       0.002 sec  (  0.8 % of DIIS)
SOSCF solution              ....       0.039 sec  (  0.1%)
  MO trafo                  ....       0.029 sec  ( 74.6 % of SOSCF)
  Orb grad                  ....       0.000 sec  (  0.4 % of SOSCF)
  Rot update                ....       0.000 sec  (  0.1 % of SOSCF)
  Step                      ....       0.010 sec  ( 24.7 % of SOSCF)
Finished LeanSCF after  36.9 sec

Maximum memory used throughout the entire LEANSCF-calculation: 41.1 MB


-------------------------------------------------------------------------------
                          DFT DISPERSION CORRECTION                            
                                                                               
                                DFTD4 V3.4.0                                   
-------------------------------------------------------------------------------
The R2SCAN3C composite method is recognized
Using three-body term ABC
Active option DFTDOPT                   ...         5   

-------------------------   ----------------
Dispersion correction           -0.010802363
-------------------------   ----------------

------------------   -----------------
gCP correction             0.015197914
------------------   -----------------

-------------------------   --------------------
FINAL SINGLE POINT ENERGY      -468.209443300573
-------------------------   --------------------


------------------------------------------------------------------------------
                              ORCA PROPERTY CALCULATIONS
------------------------------------------------------------------------------

GBWName                                 ... sp.gbw
Number of atoms                         ...     31
Number of basis functions               ...    314
Max core memory                         ...   1024 MB

Electric properties:
Dipole moment                           ... YES
Quadrupole moment                       ...  NO
Static polarizability (Dipole/Dipole)   ...  NO
Static polarizability (Dipole/Quad.)    ...  NO
Static polarizability (Quad./Quad.)     ...  NO
Static polarizability (Velocity)        ...  NO

Atomic electric properties:
Dipole moment                           ...  NO
Quadrupole moment                       ...  NO
Static polarizability                   ...  NO

Choice of electric origin               ... Center of mass
Position of electric origin             ...     0.000003    -0.000018     0.000002

General magnetic properties:
Magnetizability                         ...  NO

EPR properties:
g-Tensor (aka g-matrix)                 ...  NO
Zero-Field splitting spin-orbit         ...  NO
Zero-field splitting spin-spin          ...  NO
Hyperfine couplings                     ...  NO (   0 nuclei)
Quadrupole couplings                    ...  NO (   0 nuclei)
Contact density                         ...  NO (   0 nuclei)

NMR properties:
Chemical shifts                         ...  NO (   0 nuclei)
Spin-rotation constants                 ...  NO (   0 nuclei)
Spin-spin couplings                     ...  NO (   0 nuclei,    0 pairs)

Choice of magnetic origin               ... GIAO
Position of magnetic origin             ...     0.000000     0.000000     0.000000

Properties with geometric perturbations:
SCF Hessian                             ...  NO
IR spectrum                             ...  NO
VCD spectrum                            ...  NO
X-ray spectroscopy properties:
SCF XES/XAS/RIXS spectra                ...  NO


-------------
DIPOLE MOMENT
-------------

Method             : SCF
Type of density    : Electron Density
Multiplicity       :   1
Irrep              :   0
Energy             :  -468.2138388515465977 Eh
Relativity type    : 
Basis              : AO
                                X                 Y                 Z
Electronic contribution:      0.215701735       4.914838782      -0.543516092
Nuclear contribution   :      0.291248019      -4.920902774       0.827937398
                        -----------------------------------------
Total Dipole Moment    :      0.506949754      -0.006063992       0.284421306
                        -----------------------------------------
Magnitude (a.u.)       :      0.581317731
Magnitude (Debye)      :      1.477592246



--------------------
Rotational spectrum 
--------------------
 
Rotational constants in cm-1:             0.059768             0.023188             0.019345 
Rotational constants in MHz :          1791.788733           695.170654           579.943522 

Dipole components along the rotational axes: 
x,y,z [a.u.] :     0.506748     0.000701     0.284844 
x,y,z [Debye]:     1.288052     0.001782     0.724015 

 

Dipole moment calculation done in   0.0 sec 

Maximum memory used throughout the entire PROP-calculation: 25.4 MB

--------------------------------
SUGGESTED CITATIONS FOR THIS RUN
--------------------------------

Below you find a list of papers that are relevant to this ORCA run
We neither can nor want to force you to cite these papers, but we appreciate if you do
You receive ORCA, which is the product of decades of hard work by many enthusiastic individuals, for free
The only thing we kindly ask in return is that you cite our papers,
We deeply appreciate it, if you show your appreciation for ORCA by not just citing the generic ORCA reference.

Please note that relegating all ORCA citations to the supporting information does *not* help us.
SI sections are not indexed - citations you put there will not count into any citation statistics
But we need these citations in order to attract the funding resources that allow us to do what we are doing

Therefore, if you are a happy ORCA user, please consider citing a few of the papers listed below in the main body of your paper

In addition to the list printed below, the program has created the file sp.bibtex that contains the list in bibtex format
You can import this file easily into all common literature databanks and citation aid programs


List of essential papers. We consider these as the minimum necessary citations

  1. Neese,F.
     Software update: the ORCA program system, version 5.0
     WIRES Comput. Molec. Sci., 2022 12(1)e1606
     doi.org/10.1002/wcms.1606
  2. Grimme,S.; Hansen,A.; Ehlert,S.; Mewes,J.
     r2SCAN-3c: A 'Swiss army knife' composite electronic-structure method
     J. Chem. Phys., 2021 154 064103
     doi.org/10.1063/5.0040021

List of papers to cite with high priority. The work reported in these papers was absolutely
necessary for this run to complete.
Our perspective: the developers of density functionals and basis sets usually get cited in chemistry papers
Good! But without the algorithms to do something with them, the functionals or basis sets would not do anything.
Hence, in our opinion, the algorithm design and method developments papers are equally worthy of getting cited

  1. Neese,F.
     An improvement of the resolution of the identity approximation for the formation of the Coulomb matrix
     J. Comp. Chem., 2003 24(14)1740-1747
     doi.org/10.1002/jcc.10318
  2. Neese,F.
     The SHARK Integral Generation and Digestion System
     J. Comp. Chem., 2022  1-16
     doi.org/10.1002/jcc.26942
  3. Lehtola,S.; Steigemann,C.; Oliveira,M.; Marques,M.
     Recent developments in Libxc - A comprehensive library of functionals for density functional theory
     Software X, 2018 7 
     doi.org/10.1016/j.softx.2017.11.002
  4. Caldeweyher,E.; Bannwarth,C.; Grimme,S.
     Extension of the D3 dispersion coefficient model
     J. Chem. Phys., 2017 147 034112
     doi.org/10.1063/1.4993215
  5. Caldeweyher,E.; Ehlert,S.; Hansen,A.; Neugebauer,H.; Spicher,S.; Bannwarth,C.; Grimme,S.
     A generally applicable atomic-charge dependent London dispersion correction
     J. Chem. Phys., 2019 150 154122
     doi.org/10.1063/1.5090222
  6. Caldeweyher,E.; Mewes,J.; Ehlert,S.; Grimme,S.
     Extension and evaluation of the D4 London-dispersion model for periodic systems
     Phys. Chem. Chem. Phys., 2020 22(16)8499-8512
     doi.org/10.1039/D0CP00502A
  7. Wittmann,L.; Gordiy,I.; Friede,M.; Helmich-Paris,B.; Grimme,S.; Hansen,A.; Bursch,M.
     Extension of the D3 and D4 London Dispersion Corrections to the full Actinides Series
     Phys. Chem. Chem. Phys., 2024 26(32)21379-21394
     doi.org/https://doi.org/10.1039/D4CP01514B 

List of suggested additional citations. These are papers that are important in the 'surrounding' of 
of this run, or papers that preceded the highly important papers. If you like your results we are grateful for a citation.

  1. Neese,F.
     The ORCA program system
     WIRES Comput. Molec. Sci., 2012 2(1)73-78
     doi.org/10.1002/wcms.81
  2. Neese,F.
     Software update: the ORCA program system, version 4.0
     WIRES Comput. Molec. Sci., 2018 8(1)1-6
     doi.org/10.1002/wcms.1327
  3. Neese,F.; Wennmohs,F.; Becker,U.; Riplinger,C.
     The ORCA quantum chemistry program package
     J. Chem. Phys., 2020 152 Art. No. L224108
     doi.org/10.1063/5.0004608

List of optional additional citations

  1. Neese,F.
     Approximate second-order SCF convergence for spin unrestricted wavefunctions
     Chem. Phys. Lett., 2000 325(1-3)93-98
     doi.org/10.1016/s0009-2614(00)00662-x

Timings for individual modules:

Sum of individual times          ...       38.770 sec (=   0.646 min)
Startup calculation              ...        1.597 sec (=   0.027 min)   4.1 %
SCF iterations                   ...       37.049 sec (=   0.617 min)  95.6 %
Property calculations            ...        0.124 sec (=   0.002 min)   0.3 %
                             ****ORCA TERMINATED NORMALLY****
TOTAL RUN TIME: 0 days 0 hours 0 minutes 39 seconds 273 msec
