
                                 *****************
                                 * O   R   C   A *
                                 *****************

                                            #,                                       
                                            ###                                      
                                            ####                                     
                                            #####                                    
                                            ######                                   
                                           ########,                                 
                                     ,,################,,,,,                         
                               ,,#################################,,                 
                          ,,##########################################,,             
                       ,#########################################, ''#####,          
                    ,#############################################,,   '####,        
                  ,##################################################,,,,####,       
                ,###########''''           ''''###############################       
              ,#####''   ,,,,##########,,,,          '''####'''          '####       
            ,##' ,,,,###########################,,,                        '##       
           ' ,,###''''                  '''############,,,                           
         ,,##''                                '''############,,,,        ,,,,,,###''
      ,#''                                            '''#######################'''  
     '                                                          ''''####''''         
             ,#######,   #######,   ,#######,      ##                                
            ,#'     '#,  ##    ##  ,#'     '#,    #''#        ,####,   ,####,        
            ##       ##  ##   ,#'  ##            #'  '#       #'       #'  '#        
            ##       ##  #######   ##           ,######,      #####,   #    #        
            '#,     ,#'  ##    ##  '#,     ,#' ,#      #,     #,   #   #,  ,#        
             '#######'   ##     ##  '#######'  #'      '#     '####' # '####'        



                #########################################################
                #                        -***-                          #
                #          Department of theory and spectroscopy        #
                #                                                       #
                #                      Frank Neese                      #
                #                                                       #
                #     Directorship, Architecture, Infrastructure        #
                #                    SHARK, DRIVERS                     #
                #        Core code/Algorithms in most modules           #
                #                                                       #
                #        Max Planck Institute fuer Kohlenforschung      #
                #                Kaiser Wilhelm Platz 1                 #
                #                 D-45470 Muelheim/Ruhr                 #
                #                      Germany                          #
                #                                                       #
                #                  All rights reserved                  #
                #                        -***-                          #
                #########################################################


                         Program Version 6.0.1  -  RELEASE   -


 With contributions from (in alphabetic order):
[Max-Planck-Institut fuer Kohlenforschung]                               
  Daniel Aravena         : Magnetic Suceptibility                        
  Michael Atanasov       : Ab Initio Ligand Field Theory (pilot matlab implementation)
  Alexander A. Auer      : GIAO ZORA, VPT2 properties, NMR spectrum      
  Ute Becker             : All parallelization in ORCA, NUMFREQ, NUMCALC 
  Giovanni Bistoni       : ED, misc. LED, open-shell LED, HFLD           
  Martin Brehm           : Molecular dynamics                            
  Dmytro Bykov           : pre 5.0 version of the SCF Hessian            
  Marcos Casanova-Páez   : Triplet and SCS-CIS(D). UHF-(DLPNO)-IP/EA/STEOM-CCSD. UHF-CVS-IP/STEOM-CCSD   
  Vijay G. Chilkuri      : MRCI spin determinant printing, contributions to CSF-ICE 
  Pauline Colinet        : FMM embedding                                 
  Dipayan Datta          : RHF DLPNO-CCSD density                        
  Achintya Kumar Dutta   : EOM-CC, STEOM-CC                              
  Nicolas Foglia         : Exact transition moments, OPA infrastructure, MCD improvements    
  Dmitry Ganyushin       : Spin-Orbit,Spin-Spin,Magnetic field MRCI      
  Miquel Garcia-Rates    : C-PCM and meta-GGA Hessian, CCSD/C-PCM, Gaussian charge scheme 
  Tiago L. C. Gouveia    : GS-ROHF, GS-ROCIS                             
  Yang Guo               : DLPNO-NEVPT2, F12-NEVPT2, CIM, IAO-localization        
  Andreas Hansen         : Spin unrestricted coupled pair/coupled cluster methods 
  Ingolf Harden          : AUTO-CI MPn and infrastructure                
  Benjamin Helmich-Paris : MC-RPA, TRAH-(SCF,CASSCF), AVAS, COSX integrals, SCF dyn. polar. 
  Lee Huntington         : MR-EOM, pCC                                   
  Robert Izsak           : Overlap fitted RIJCOSX, COSX-SCS-MP3, EOM     
  Riya Kayal             : Wick's Theorem for AUTO-CI, AUTO-CI UHF-CCSDT 
  Emily Kempfer          : AUTO-CI, RHF CISDT and CCSDT                  
  Christian Kollmar      : KDIIS, OOCD, Brueckner-CCSD(T), CCSD density, CASPT2, CASPT2-K, improved NEVPT2 
  Axel Koslowski         : Symmetry handling                             
  Simone Kossmann        : meta-GGA functionals, TD-DFT gradient, OOMP2, (MP2 Hessian; deprecated post 5.0) 
  Lucas Lang             : DCDCAS                                        
  Marvin Lechner         : AUTO-CI (C++ implementation), FIC-MRCC        
  Spencer Leger          : CASSCF response                               
  Dagmar Lenk            : GEPOL surface, SMD, ORCA-2-JSON               
  Dimitrios Liakos       : Extrapolation schemes; Compound Job, initial MDCI parallelization 
  Dimitrios Manganas     : Further ROCIS development; embedding schemes. LFT, Crystal Embedding 
  Dimitrios Pantazis     : SARC Basis sets                               
  Anastasios Papadopoulos: AUTO-CI, single reference methods and gradients 
  Taras Petrenko         : pre 6.0 DFT Hessian and TD-DFT gradient, (ASA, deprecated), ECA, 1-Electron XAS/XES, NRVS 
  Peter Pinski           : DLPNO-MP2, DLPNO-MP2 Gradient                 
  Christoph Reimann      : Effective Core Potentials                     
  Marius Retegan         : Local ZFS, SOC                                
  Christoph Riplinger    : Optimizer, TS searches, QM/MM, DLPNO-CCSD(T), (RO)-DLPNO pert. Triples 
  Michael Roemelt        : Original ROCIS implementation                 
  Masaaki Saitow         : Open-shell DLPNO-CCSD energy and density      
  Barbara Sandhoefer     : DKH picture change effects                    
  Kantharuban Sivalingam : CASSCF convergence/infrastructure, NEVPT2 and variants, FIC-MRCI 
  Bernardo de Souza      : ESD, SOC TD-DFT                               
  Georgi L. Stoychev     : AutoAux, RI-MP2 NMR, DLPNO-MP2 response, X2C  
  Van Anh Tran           : RI-MP2 g-tensors                              
  Willem Van den Heuvel  : Paramagnetic NMR                              
  Zikuan Wang            : NOTCH, Electric field optimization            
  Frank Wennmohs         : Technical directorship and infrastructure     
  Hang Xu                : AUTO-CI-Response properties                   
                                                                         
[FACCTs GmbH]                                                            
  Markus Bursch, Miquel Garcia-Rates, Christoph Riplinger, Bernardo de Souza, Georgi L. Stoychev 
                                                                 
  APM, Basis sets (HGBS, AHGBS, def-TZVP (Ac-Lr), def2-XVPD (La-Lu)), CI-OPT, improved COSX, DLPNO-Multilevel,           
  DOCKER, DRACO, updates on ESD, GOAT, IRC, LR-CPCM, MBIS, meta-GGA TD-DFT gradient, ML-optimized integration grids, 
  MM, NACMEs, nearIR, NEB, NEB-TS, NL-DFT gradient (VV10), 2- and 3-layer-ONIOM, interface openCOSMO-RS, QMMM,   
  Crystal-QMMM, SF, symmetry and pop. for TD-DFT, r2SCAN hybrids, SOLVATOR                                   
                                                                         
[Other institutions]                                                     
  V. Asgeirsson          : NEB                                           
  Christoph Bannwarth    : sTDA-DFT, sTD-DFT, PBEh-3c, B97-3c, D3        
  Sebastian Ehlert       : rSCAN, r2SCAN, r2SCAN-3c, D4, dhf basis sets  
  Marvin Friede          : D4 for Fr, Ra, Ac-Lr                          
  Lars Goerigk           : TD-DFT with DH, B97 family of functionals     
  Stefan Grimme          : VdW corrections, initial TS optimization, DFT functionals, gCP, sTDA/sTD-DF 
  Waldemar Hujo          : DFT-NL                                        
  H. Jonsson             : NEB                                           
  Holger Kruse           : gCP                                           
  Marcel Mueller         : wB97X-3c, vDZP basis set                      
  Hagen Neugebauer       : wr2SCAN                                       
  Tobias Risthaus        : range-separated hybrid DFT                    
  Lukas Wittmann         : regularized MP2, r2SCAN double-hybrids, wr2SCAN        
                                                                         
We gratefully acknowledge several colleagues who have allowed us to      
interface, adapt or use parts of their codes:                            
  Ed Valeev, F. Pavosevic, A. Kumar             : LibInt (2-el integral package), F12 methods 
  Garnet Chan, S. Sharma, J. Yang, R. Olivares  : DMRG                   
  Ulf Ekstrom                                   : XCFun DFT Library      
  Mihaly Kallay                                 : mrcc  (arbitrary order and MRCC methods)
  Frank Weinhold                                : gennbo (NPA and NBO analysis)           
  Simon Mueller                                 : openCOSMO-RS                            
  Christopher J. Cramer and Donald G. Truhlar   : smd solvation model                     
  S Lehtola, MJT Oliveira, MAL Marques          : LibXC Library                           
  Liviu Ungur et al                             : ANISO software                          


 Your calculation uses the libint2 library for the computation of 2-el integrals
 For citations please refer to: http://libint.valeyev.net

 Your ORCA version has been built with support for libXC version: 6.2.2
 For citations please refer to: https://libxc.gitlab.io

 This ORCA versions uses:
   CBLAS   interface :  Fast vector & matrix operations
   LAPACKE interface :  Fast linear algebra routines
   SCALAPACK package :  Parallel linear algebra routines
   Shared memory     :  Shared parallel matrices
   BLAS/LAPACK       :  OpenBLAS 0.3.27  USE64BITINT DYNAMIC_ARCH NO_AFFINITY Zen SINGLE_THREADED
        Core in use  :  Zen
   Copyright (c) 2011-2014, The OpenBLAS Project


Your calculation utilizes the geometrical counterpoise correction gCP
Please cite in your paper:
H.Kruse, S. Grimme J.Chem.Phys., 136, (2012), 154101 
   

Your calculation utilizes the atom-pairwise dispersion correction
based on EEQ partial charges (D4)


================================================================================

----- Orbital basis set information -----
Your calculation utilizes the basis: def2-SV(P)
   F. Weigend and R. Ahlrichs, Phys. Chem. Chem. Phys. 7, 3297 (2005).

----- AuxJ basis set information -----
Your calculation utilizes the auxiliary basis: def2/J
   F. Weigend, Phys. Chem. Chem. Phys. 8, 1057 (2006).

================================================================================
                                        WARNINGS
                       Please study these warnings very carefully!
================================================================================


================================================================================
                                       INPUT FILE
================================================================================
NAME = sp.inp
|  1> ! pbe def2-sv(p) def2/J RI DEFGRID1 loosescf d4 GCP(DFT/SV(P)) printgap
|  2> %output
|  3>     printlevel normal
|  4> end
|  5> * xyz 0 1
|  6> C -2.2322260306 -1.0069652442 -0.3767396751
|  7> C -1.1820670317 -0.1978383291 0.395745654
|  8> H -1.6589484689 0.2376807878 1.281830365
|  9> C -0.5975633499 0.9384702812 -0.4465026432
| 10> H -0.4412275504 0.5912117193 -1.4835741775
| 11> C 0.7617511959 1.3300195262 0.1473518063
| 12> H 0.6418440652 1.5488696927 1.2146181397
| 13> C 1.739675528 0.1626778379 -0.0255181929
| 14> H 2.1207549267 0.1684315974 -1.0617751896
| 15> C 1.0063366381 -1.1792695584 0.1677342639
| 16> H 1.6508995756 -1.8276617028 0.7796115758
| 17> O -0.1724938238 -1.0714588855 0.9098822284
| 18> O 0.791499878 -1.7189422581 -1.1032767825
| 19> O 2.802310399 0.2223195537 0.8865721411
| 20> O 1.2423313732 2.5237045367 -0.426325746
| 21> O -1.4855499158 2.023867827 -0.4411701806
| 22> O -2.7636072972 -2.0341791389 0.4177340145
| 23> H -1.7755100578 -1.421598774 -1.288109789
| 24> H -3.0554216743 -0.3489832213 -0.6611658241
| 25> H 0.394341769 -2.594385136 -1.014307436
| 26> H 3.1520504066 1.1224417902 0.8887441112
| 27> H 1.3951331813 2.3801124191 -1.3695615964
| 28> H -0.9561575692 2.8348139375 -0.4613394164
| 29> H -2.0401759976 -2.3840288276 0.9547275313
| 30> *
| 31> 
| 32>                          ****END OF INPUT****
================================================================================

                       ****************************
                       * Single Point Calculation *
                       ****************************

---------------------------------
CARTESIAN COORDINATES (ANGSTROEM)
---------------------------------
  C     -2.232226   -1.006965   -0.376740
  C     -1.182067   -0.197838    0.395746
  H     -1.658948    0.237681    1.281830
  C     -0.597563    0.938470   -0.446503
  H     -0.441228    0.591212   -1.483574
  C      0.761751    1.330020    0.147352
  H      0.641844    1.548870    1.214618
  C      1.739676    0.162678   -0.025518
  H      2.120755    0.168432   -1.061775
  C      1.006337   -1.179270    0.167734
  H      1.650900   -1.827662    0.779612
  O     -0.172494   -1.071459    0.909882
  O      0.791500   -1.718942   -1.103277
  O      2.802310    0.222320    0.886572
  O      1.242331    2.523705   -0.426326
  O     -1.485550    2.023868   -0.441170
  O     -2.763607   -2.034179    0.417734
  H     -1.775510   -1.421599   -1.288110
  H     -3.055422   -0.348983   -0.661166
  H      0.394342   -2.594385   -1.014307
  H      3.152050    1.122442    0.888744
  H      1.395133    2.380112   -1.369562
  H     -0.956158    2.834814   -0.461339
  H     -2.040176   -2.384029    0.954728

----------------------------
CARTESIAN COORDINATES (A.U.)
----------------------------
  NO LB      ZA    FRAG     MASS         X           Y           Z
   0 C     6.0000    0    12.011   -4.218296   -1.902889   -0.711935
   1 C     6.0000    0    12.011   -2.233783   -0.373860    0.747851
   2 H     1.0000    0     1.008   -3.134958    0.449152    2.422308
   3 C     6.0000    0    12.011   -1.129231    1.773452   -0.843768
   4 H     1.0000    0     1.008   -0.833799    1.117228   -2.803549
   5 C     6.0000    0    12.011    1.439501    2.513373    0.278455
   6 H     1.0000    0     1.008    1.212910    2.926940    2.295296
   7 C     6.0000    0    12.011    3.287510    0.307417   -0.048222
   8 H     1.0000    0     1.008    4.007646    0.318290   -2.006464
   9 C     6.0000    0    12.011    1.901701   -2.228497    0.316972
  10 H     1.0000    0     1.008    3.119748   -3.453780    1.473252
  11 O     8.0000    0    15.999   -0.325966   -2.024764    1.719428
  12 O     8.0000    0    15.999    1.495718   -3.248330   -2.084891
  13 O     8.0000    0    15.999    5.295599    0.420123    1.675379
  14 O     8.0000    0    15.999    2.347666    4.769110   -0.805639
  15 O     8.0000    0    15.999   -2.807282    3.824556   -0.833691
  16 O     8.0000    0    15.999   -5.222461   -3.844041    0.789403
  17 H     1.0000    0     1.008   -3.355228   -2.686432   -2.434175
  18 H     1.0000    0     1.008   -5.773910   -0.659483   -1.249422
  19 H     1.0000    0     1.008    0.745198   -4.902677   -1.916763
  20 H     1.0000    0     1.008    5.956512    2.121108    1.679483
  21 H     1.0000    0     1.008    2.636420    4.497761   -2.588096
  22 H     1.0000    0     1.008   -1.806876    5.357022   -0.871805
  23 H     1.0000    0     1.008   -3.855374   -4.505162    1.804174

--------------------------------
INTERNAL COORDINATES (ANGSTROEM)
--------------------------------
 C      0   0   0     0.000000000000     0.00000000     0.00000000
 C      1   0   0     1.534357804224     0.00000000     0.00000000
 H      2   1   0     1.096466561916   108.58088906     0.00000000
 C      2   1   3     1.530432620541   112.07771400   240.26220646
 H      4   2   1     1.104783579835   109.71072990   319.99911452
 C      4   2   1     1.534180547678   108.35219688   201.64215783
 H      6   4   2     1.096052253216   109.32621680   306.56812277
 C      6   4   2     1.532614319775   109.10478703    66.13870764
 H      8   6   4     1.104120997478   108.79115289    79.59338703
 C      8   6   4     1.541413394886   110.20578519   323.00344755
 H     10   8   6     1.100121628792   107.70390775   222.89142891
 O     10   8   6     1.397157113680   113.63012619   337.70549329
 O     10   8   6     1.397451443293   107.17673703   102.66866105
 O      8   6   4     1.401662862712   112.20577191   202.06597367
 O      6   4   2     1.408881522740   111.15228043   190.69409439
 O      4   2   1     1.402368143108   109.31312543    80.28115066
 O      1   2   3     1.403111855635   111.11236963   300.31120290
 H      1   2   3     1.100502579895   109.36443382   178.05743679
 H      1   2   3     1.091553775359   109.23671128    58.93223064
 H     13  10   8     0.965427542919   109.24539130   175.62582395
 H     14   8   6     0.965682572594   108.40274103   312.93807864
 H     15   6   4     0.966261330218   108.99695207   296.47564065
 H     16   4   2     0.968657136889   107.56701965   145.55370923
 H     17   1   2     0.966493500759   107.22523853   322.59558981

---------------------------
INTERNAL COORDINATES (A.U.)
---------------------------
 C      0   0   0     0.000000000000     0.00000000     0.00000000
 C      1   0   0     2.899516041429     0.00000000     0.00000000
 H      2   1   0     2.072021517023   108.58088906     0.00000000
 C      2   1   3     2.892098519242   112.07771400   240.26220646
 H      4   2   1     2.087738403142   109.71072990   319.99911452
 C      4   2   1     2.899181075101   108.35219688   201.64215783
 H      6   4   2     2.071238587045   109.32621680   306.56812277
 C      6   4   2     2.896221333301   109.10478703    66.13870764
 H      8   6   4     2.086486303945   108.79115289    79.59338703
 C      8   6   4     2.912849175493   110.20578519   323.00344755
 H     10   8   6     2.078928592420   107.70390775   222.89142891
 O     10   8   6     2.640244310915   113.63012619   337.70549329
 O     10   8   6     2.640800513277   107.17673703   102.66866105
 O      8   6   4     2.648758942613   112.20577191   202.06597367
 O      6   4   2     2.662400233121   111.15228043   190.69409439
 O      4   2   1     2.650091729410   109.31312543    80.28115066
 O      1   2   3     2.651497142409   111.11236963   300.31120290
 H      1   2   3     2.079648485675   109.36443382   178.05743679
 H      1   2   3     2.062737695877   109.23671128    58.93223064
 H     13  10   8     1.824393658262   109.24539130   175.62582395
 H     14   8   6     1.824875594503   108.40274103   312.93807864
 H     15   6   4     1.825969287911   108.99695207   296.47564065
 H     16   4   2     1.830496706389   107.56701965   145.55370923
 H     17   1   2     1.826408026650   107.22523853   322.59558981

---------------------
BASIS SET INFORMATION
---------------------
There are 3 groups of distinct atoms

 Group   1 Type C   : 7s4p1d contracted to 3s2p1d pattern {511/31/1}
 Group   2 Type H   : 4s contracted to 2s pattern {31}
 Group   3 Type O   : 7s4p1d contracted to 3s2p1d pattern {511/31/1}

Atom   0C    basis set group =>   1
Atom   1C    basis set group =>   1
Atom   2H    basis set group =>   2
Atom   3C    basis set group =>   1
Atom   4H    basis set group =>   2
Atom   5C    basis set group =>   1
Atom   6H    basis set group =>   2
Atom   7C    basis set group =>   1
Atom   8H    basis set group =>   2
Atom   9C    basis set group =>   1
Atom  10H    basis set group =>   2
Atom  11O    basis set group =>   3
Atom  12O    basis set group =>   3
Atom  13O    basis set group =>   3
Atom  14O    basis set group =>   3
Atom  15O    basis set group =>   3
Atom  16O    basis set group =>   3
Atom  17H    basis set group =>   2
Atom  18H    basis set group =>   2
Atom  19H    basis set group =>   2
Atom  20H    basis set group =>   2
Atom  21H    basis set group =>   2
Atom  22H    basis set group =>   2
Atom  23H    basis set group =>   2
---------------------------------
AUXILIARY/J BASIS SET INFORMATION
---------------------------------
There are 3 groups of distinct atoms

 Group   1 Type C   : 12s5p4d2f1g contracted to 6s4p3d1f1g pattern {711111/2111/211/2/1}
 Group   2 Type H   : 5s2p1d contracted to 3s1p1d pattern {311/2/1}
 Group   3 Type O   : 12s5p4d2f1g contracted to 6s4p3d1f1g pattern {711111/2111/211/2/1}

Atom   0C    basis set group =>   1
Atom   1C    basis set group =>   1
Atom   2H    basis set group =>   2
Atom   3C    basis set group =>   1
Atom   4H    basis set group =>   2
Atom   5C    basis set group =>   1
Atom   6H    basis set group =>   2
Atom   7C    basis set group =>   1
Atom   8H    basis set group =>   2
Atom   9C    basis set group =>   1
Atom  10H    basis set group =>   2
Atom  11O    basis set group =>   3
Atom  12O    basis set group =>   3
Atom  13O    basis set group =>   3
Atom  14O    basis set group =>   3
Atom  15O    basis set group =>   3
Atom  16O    basis set group =>   3
Atom  17H    basis set group =>   2
Atom  18H    basis set group =>   2
Atom  19H    basis set group =>   2
Atom  20H    basis set group =>   2
Atom  21H    basis set group =>   2
Atom  22H    basis set group =>   2
Atom  23H    basis set group =>   2
------------------------------------------------------------------------------
                             ORCA STARTUP CALCULATIONS
                           -- RI-GTO INTEGRALS CHOSEN --
------------------------------------------------------------------------------
------------------------------------------------------------------------------
                   ___                                                        
                  /   \      - P O W E R E D   B Y -                         
                 /     \                                                     
                 |  |  |   _    _      __       _____    __    __             
                 |  |  |  | |  | |    /  \     |  _  \  |  |  /  |          
                  \  \/   | |  | |   /    \    | | | |  |  | /  /          
                 / \  \   | |__| |  /  /\  \   | |_| |  |  |/  /          
                |  |  |   |  __  | /  /__\  \  |    /   |      \           
                |  |  |   | |  | | |   __   |  |    \   |  |\   \          
                \     /   | |  | | |  |  |  |  | |\  \  |  | \   \       
                 \___/    |_|  |_| |__|  |__|  |_| \__\ |__|  \__/        
                                                                              
                      - O R C A' S   B I G   F R I E N D -                    
                                      &                                       
                       - I N T E G R A L  F E E D E R -                       
                                                                              
 v1 FN, 2020, v2 2021, v3 2022-2024                                           
------------------------------------------------------------------------------


----------------------
SHARK INTEGRAL PACKAGE
----------------------

Number of atoms                             ...     24
Number of basis functions                   ...    192
Number of shells                            ...     96
Maximum angular momentum                    ...      2
Integral batch strategy                     ... SHARK/LIBINT Hybrid
RI-J (if used) integral strategy            ... SPLIT-RIJ (Revised 2003 algorithm where possible)
Printlevel                                  ...      1
Contraction scheme used                     ... SEGMENTED contraction
Prescreening option                         ... SCHWARTZ
   Thresh                                   ... 1.000e-09
   Tcut                                     ... 1.000e-10
   Tpresel                                  ... 1.000e-10 
Coulomb Range Separation                    ... NOT USED
Exchange Range Separation                   ... NOT USED
Multipole approximations                    ... NOT USED
Finite Nucleus Model                        ... NOT USED
CABS basis                                  ... NOT available
Auxiliary Coulomb fitting basis             ... AVAILABLE
   # of basis functions in Aux-J            ...    720
   # of shells in Aux-J                     ...    240
   Maximum angular momentum in Aux-J        ...      4
Auxiliary J/K fitting basis                 ... NOT available
Auxiliary Correlation fitting basis         ... NOT available
Auxiliary 'external' fitting basis          ... NOT available

Checking pre-screening integrals            ... done (  0.0 sec) Dimension = 96
Check shell pair data                       ... done (  0.0 sec)
Shell pair information
Shell pair cut-off parameter TPreSel        ...   1.0e-10
Total number of shell pairs                 ...      4656
Shell pairs after pre-screening             ...      4171
Total number of primitive shell pairs       ...     18720
Primitive shell pairs kept                  ...     11285
          la=0 lb=0:   1630 shell pairs
          la=1 lb=0:   1321 shell pairs
          la=1 lb=1:    284 shell pairs
          la=2 lb=0:    610 shell pairs
          la=2 lb=1:    260 shell pairs
          la=2 lb=2:     66 shell pairs

Calculating one electron integrals          ... done (  0.0 sec)
Calculating RI/J V-Matrix + Cholesky decomp.... done (  0.0 sec)
Calculating Nuclear repulsion               ... done (  0.0 sec) ENN=    839.518805863062 Eh

Diagonalization of the overlap matrix:
Smallest eigenvalue                        ... 6.510e-04
Time for diagonalization                   ...    0.003 sec
Threshold for overlap eigenvalues          ... 1.000e-07
Number of eigenvalues below threshold      ... 0
Time for construction of square roots      ...    0.003 sec
Total time needed                          ...    0.008 sec

-------------------
DFT GRID GENERATION
-------------------

General Integration Accuracy     IntAcc      ... 4.159
Radial Grid Type                 RadialGrid  ... OptM3 with GC (2021)
Angular Grid (max. ang.)         AngularGrid ... 3 (Lebedev-194)
Angular grid pruning method      GridPruning ... 4 (adaptive)
Weight generation scheme         WeightScheme... mBecke (2022)
Basis function cutoff            BFCut       ... 1.0000e-10
Integration weight cutoff        WCut        ... 1.0000e-14
Partially contracted basis set               ... off
Rotationally invariant grid construction     ... off
Angular grids for H and He will be reduced by one unit

Total number of grid points                  ...    55677
Total number of batches                      ...      882
Average number of points per batch           ...       63
Average number of grid points per atom       ...     2320
Initializing property integral containers    ... done (  0.0 sec)

SHARK setup successfully completed in   0.6 seconds

Maximum memory used throughout the entire STARTUP-calculation: 28.5 MB
-------------------------------------------------------------------------------
                                 ORCA GUESS
                   Start orbitals & Density for SCF / CASSCF
-------------------------------------------------------------------------------

------------
SCF SETTINGS
------------
Hamiltonian:
 Density Functional     Method          .... DFT(GTOs)
 Exchange Functional    Exchange        .... PBE
   PBE kappa parameter   XKappa         ....  0.804000
   PBE mue parameter    XMuePBE         ....  0.219520
 Correlation Functional Correlation     .... PBE
   PBE beta parameter  CBetaPBE         ....  0.066725
 LDA part of GGA corr.  LDAOpt          .... PW91-LDA
 Gradients option       PostSCFGGA      .... off
   NL short-range parameter             ....  6.400000
 RI-approximation to the Coulomb term is turned on
   Number of AuxJ basis functions       .... 720


General Settings:
 Integral files         IntName         .... sp
 Hartree-Fock type      HFTyp           .... RHF
 Total Charge           Charge          ....    0
 Multiplicity           Mult            ....    1
 Number of Electrons    NEL             ....   96
 Basis Dimension        Dim             ....  192
 Nuclear Repulsion      ENuc            ....    839.5188058631 Eh

Convergence Acceleration:
 AO-DIIS                CNVDIIS         .... on
   Start iteration      DIISMaxIt       ....    12
   Startup error        DIISStart       ....  0.200000
   # of expansion vecs  DIISMaxEq       ....     5
   Bias factor          DIISBfac        ....   1.050
   Max. coefficient     DIISMaxC        ....  10.000
 MO-DIIS                CNVKDIIS        .... off
 Trust-Rad. Augm. Hess. CNVTRAH         .... auto
   Auto Start mean grad. ratio tolernc. ....  1.125000
   Auto Start start iteration           ....    50
   Auto Start num. interpolation iter.  ....    10
   Max. Number of Micro iterations      ....    24
   Max. Number of Macro iterations      .... Maxiter - #DIIS iter
   Number of Davidson start vectors     ....     2
   Converg. threshold    (grad. norm)   ....   1.000e-04
   Grad. Scal. Fac. for Micro threshold ....   0.100
   Minimum threshold for Micro iter.    ....   1.000e-02
   NR start threshold (gradient norm)   ....   1.000e-04
   Initial trust radius                 ....   0.400
   Minimum AH scaling param. (alpha)    ....   1.000
   Maximum AH scaling param. (alpha)    .... 1000.000
   Quad. conv. algorithm                .... NR
   White noise on init. David. guess    .... on
   Maximum white noise                  ....   0.010
   Pseudo random numbers                .... off
   Inactive MOs                         .... canonical
   Orbital update algorithm             .... Taylor
   Preconditioner                       .... Diag
   Full preconditioner red. dimension   ....   250
 SOSCF                  CNVSOSCF        .... on
   Start iteration      SOSCFMaxIt      ....   150
   Startup grad/error   SOSCFStart      ....  0.003300
   Hessian update       SOSCFHessUp     .... L-BFGS
 Level Shifting         CNVShift        .... on
   Level shift para.    LevelShift      ....    0.2500
   Turn off err/grad.   ShiftErr        ....    0.0010
 Zerner damping         CNVZerner       .... off
 Static damping         CNVDamp         .... on
   Fraction old density DampFac         ....    0.7000
   Max. Damping (<1)    DampMax         ....    0.9800
   Min. Damping (>=0)   DampMin         ....    0.0000
   Turn off err/grad.   DampErr         ....    0.1000

SCF Procedure:
 Maximum # iterations   MaxIter         ....   125
 SCF integral mode      SCFMode         .... Direct
   Integral package                     .... SHARK and LIBINT hybrid scheme
 Reset frequency        DirectResetFreq ....    20
 Integral Threshold     Thresh          ....  1.000e-09 Eh
 Primitive CutOff       TCut            ....  1.000e-10 Eh

Convergence Tolerance:
 Convergence Check Mode ConvCheckMode   .... Total+1el-Energy
 Convergence forced     ConvForced      .... 0
 Energy Change          TolE            ....  1.000e-05 Eh
 1-El. energy change                    ....  1.000e-02 Eh
 Orbital Gradient       TolG            ....  1.000e-04
 Orbital Rotation angle TolX            ....  1.000e-04
 DIIS Error             TolErr          ....  5.000e-04

------------------------------
INITIAL GUESS: MODEL POTENTIAL
------------------------------
Loading Hartree-Fock densities                     ... done
Calculating cut-offs                               ... done
Initializing the effective Hamiltonian             ... done
Setting up the integral package (SHARK)            ... done
Starting the Coulomb interaction                   ... done (   0.2 sec)
Making the grid                                    ... done (   0.2 sec)
Mapping shells                                     ... done
Starting the XC term evaluation                    ... done (   0.2 sec)
  promolecular density results
     # of electrons  =     95.998182871
     EX              =    -83.245760339
     EC              =     -3.272751502
     EX+EC           =    -86.518511841
Transforming the Hamiltonian                       ... done (   0.0 sec)
Diagonalizing the Hamiltonian                      ... done (   0.0 sec)
Back transforming the eigenvectors                 ... done (   8.3 sec)
Now organizing SCF variables                       ... done
                      ------------------
                      INITIAL GUESS DONE (  34.0 sec)
                      ------------------
             **** ENERGY FILE WAS UPDATED (sp.en.tmp) ****
Finished Guess after  34.1 sec
Maximum memory used throughout the entire GUESS-calculation: 22.4 MB

-------------------------------------------------------------------------------------------
                                      ORCA LEAN-SCF
                              memory conserving SCF solver
-------------------------------------------------------------------------------------------

----------------------------------------D-I-I-S--------------------------------------------
Iteration    Energy (Eh)           Delta-E    RMSDP     MaxDP     DIISErr   Damp  Time(sec)
-------------------------------------------------------------------------------------------
               ***  Starting incremental Fock matrix formation  ***
    1    -685.5217356180284014     0.00e+00  4.78e-03  1.37e-01  2.24e-01  0.700   0.8
    2    -685.6721108732348284    -1.50e-01  3.06e-03  9.44e-02  8.96e-02  0.700   0.7
                               ***Turning on AO-DIIS***
    3    -685.7196855396026649    -4.76e-02  1.06e-03  2.39e-02  1.90e-02  0.700   0.7
    4    -685.7514131922488332    -3.17e-02  1.35e-03  1.93e-02  1.02e-02  0.000   0.7
    5    -685.8245990886260870    -7.32e-02  4.34e-04  1.42e-02  5.79e-03  0.000   0.7
                              *** Initializing SOSCF ***
---------------------------------------S-O-S-C-F--------------------------------------
Iteration    Energy (Eh)           Delta-E    RMSDP     MaxDP     MaxGrad    Time(sec)
--------------------------------------------------------------------------------------
    6    -685.8249263182107143    -3.27e-04  1.32e-04  3.27e-03  1.34e-03     0.6
               *** Restarting incremental Fock matrix formation ***
    7    -685.8249519213146641    -2.56e-05  9.58e-05  2.00e-03  1.66e-04     0.7
    8    -685.8249507355050127     1.19e-06  3.88e-05  8.79e-04  2.81e-04     0.6
                 **** Energy Check signals convergence ****

               *****************************************************
               *                     SUCCESS                       *
               *           SCF CONVERGED AFTER   8 CYCLES          *
               *****************************************************

             **** ENERGY FILE WAS UPDATED (sp.en.tmp) ****

----------------
TOTAL SCF ENERGY
----------------

Total Energy       :       -685.82495073550501 Eh          -18662.24568 eV

Components:
Nuclear Repulsion  :        839.51880586306208 Eh           22844.46810 eV
Electronic Energy  :      -1525.34375659856710 Eh          -41506.71378 eV
One Electron Energy:      -2607.63342726377687 Eh          -70957.31296 eV
Two Electron Energy:       1082.28967066520977 Eh           29450.59918 eV

Virial components:
Potential Energy   :      -1366.99007976100893 Eh          -37197.69116 eV
Kinetic Energy     :        681.16512902550392 Eh           18535.44548 eV
Virial Ratio       :          2.00684095751740

DFT components:
N(Alpha)           :       47.999748775116 electrons
N(Beta)            :       47.999748775116 electrons
N(Total)           :       95.999497550231 electrons
E(X)               :      -84.614839879869 Eh       
E(C)               :       -3.283784974991 Eh       
E(XC)              :      -87.898624854860 Eh       

---------------
SCF CONVERGENCE
---------------

  Last Energy change         ...   -1.1858e-06  Tolerance :   1.0000e-05
  Last MAX-Density change    ...    8.7857e-04  Tolerance :   1.0000e-03
  Last RMS-Density change    ...    3.8752e-05  Tolerance :   1.0000e-04
  Last DIIS Error            ...    1.3407e-03  Tolerance :   5.0000e-04
  Last Orbital Gradient      ...    2.8051e-04  Tolerance :   1.0000e-04
  Last Orbital Rotation      ...    1.7002e-04  Tolerance :   1.0000e-04


----------------
ORBITAL ENERGIES
----------------

  NO   OCC          E(Eh)            E(eV) 
   0   2.0000     -18.782442      -511.0962 
   1   2.0000     -18.782089      -511.0866 
   2   2.0000     -18.775160      -510.8981 
   3   2.0000     -18.761578      -510.5285 
   4   2.0000     -18.752955      -510.2939 
   5   2.0000     -18.737868      -509.8833 
   6   2.0000      -9.996493      -272.0184 
   7   2.0000      -9.954990      -270.8890 
   8   2.0000      -9.953143      -270.8388 
   9   2.0000      -9.948469      -270.7116 
  10   2.0000      -9.946274      -270.6519 
  11   2.0000      -9.925116      -270.0761 
  12   2.0000      -0.994757       -27.0687 
  13   2.0000      -0.966510       -26.3001 
  14   2.0000      -0.940056       -25.5802 
  15   2.0000      -0.930811       -25.3287 
  16   2.0000      -0.924840       -25.1662 
  17   2.0000      -0.911887       -24.8137 
  18   2.0000      -0.714146       -19.4329 
  19   2.0000      -0.700335       -19.0571 
  20   2.0000      -0.626470       -17.0471 
  21   2.0000      -0.587602       -15.9895 
  22   2.0000      -0.578443       -15.7402 
  23   2.0000      -0.532720       -14.4960 
  24   2.0000      -0.523230       -14.2378 
  25   2.0000      -0.487616       -13.2687 
  26   2.0000      -0.476684       -12.9712 
  27   2.0000      -0.468208       -12.7406 
  28   2.0000      -0.453173       -12.3315 
  29   2.0000      -0.426088       -11.5945 
  30   2.0000      -0.414793       -11.2871 
  31   2.0000      -0.407702       -11.0941 
  32   2.0000      -0.396876       -10.7996 
  33   2.0000      -0.386318       -10.5122 
  34   2.0000      -0.373923       -10.1750 
  35   2.0000      -0.355134        -9.6637 
  36   2.0000      -0.340021        -9.2524 
  37   2.0000      -0.326887        -8.8951 
  38   2.0000      -0.313449        -8.5294 
  39   2.0000      -0.299839        -8.1590 
  40   2.0000      -0.288140        -7.8407 
  41   2.0000      -0.273016        -7.4291 
  42   2.0000      -0.267292        -7.2734 
  43   2.0000      -0.251594        -6.8462 
  44   2.0000      -0.241792        -6.5795 
  45   2.0000      -0.231248        -6.2926 
  46   2.0000      -0.217530        -5.9193 
  47   2.0000      -0.205688        -5.5971 
  48   0.0000       0.004198         0.1142 
  49   0.0000       0.014504         0.3947 
  50   0.0000       0.037964         1.0330 
  51   0.0000       0.043764         1.1909 
  52   0.0000       0.052400         1.4259 
  53   0.0000       0.069056         1.8791 
  54   0.0000       0.074079         2.0158 
  55   0.0000       0.086381         2.3506 
  56   0.0000       0.099079         2.6961 
  57   0.0000       0.104396         2.8408 
  58   0.0000       0.109658         2.9840 
*Only the first 10 virtual orbitals were printed.

                    ********************************
                    * MULLIKEN POPULATION ANALYSIS *
                    ********************************

-----------------------
MULLIKEN ATOMIC CHARGES
-----------------------
   0 C :    0.076017
   1 C :    0.035304
   2 H :    0.079906
   3 C :    0.012816
   4 H :    0.055943
   5 C :   -0.001415
   6 H :    0.075133
   7 C :    0.092568
   8 H :    0.058566
   9 C :    0.164579
  10 H :    0.080812
  11 O :   -0.326354
  12 O :   -0.398011
  13 O :   -0.407431
  14 O :   -0.419341
  15 O :   -0.408400
  16 O :   -0.435568
  17 H :    0.058810
  18 H :    0.095740
  19 H :    0.308929
  20 H :    0.306885
  21 H :    0.303314
  22 H :    0.299394
  23 H :    0.291804
Sum of atomic charges:    0.0000000

--------------------------------
MULLIKEN REDUCED ORBITAL CHARGES
--------------------------------
  0 C s       :     3.024560  s :     3.024560
      pz      :     0.953537  p :     2.836058
      px      :     0.995285
      py      :     0.887235
      dz2     :     0.012602  d :     0.063365
      dxz     :     0.012081
      dyz     :     0.014472
      dx2y2   :     0.008142
      dxy     :     0.016068

  1 C s       :     3.047278  s :     3.047278
      pz      :     1.051951  p :     2.853052
      px      :     0.899412
      py      :     0.901688
      dz2     :     0.008886  d :     0.064366
      dxz     :     0.014632
      dyz     :     0.012844
      dx2y2   :     0.011302
      dxy     :     0.016702

  2 H s       :     0.920094  s :     0.920094

  3 C s       :     3.078662  s :     3.078662
      pz      :     1.071336  p :     2.839944
      px      :     0.890508
      py      :     0.878100
      dz2     :     0.013107  d :     0.068578
      dxz     :     0.010183
      dyz     :     0.014788
      dx2y2   :     0.013522
      dxy     :     0.016979

  4 H s       :     0.944057  s :     0.944057

  5 C s       :     3.042645  s :     3.042645
      pz      :     1.047337  p :     2.890991
      px      :     0.957630
      py      :     0.886024
      dz2     :     0.015387  d :     0.067779
      dxz     :     0.007222
      dyz     :     0.012099
      dx2y2   :     0.015132
      dxy     :     0.017939

  6 H s       :     0.924867  s :     0.924867

  7 C s       :     3.024290  s :     3.024290
      pz      :     0.926743  p :     2.816076
      px      :     0.873068
      py      :     1.016266
      dz2     :     0.019401  d :     0.067065
      dxz     :     0.016060
      dyz     :     0.005977
      dx2y2   :     0.011837
      dxy     :     0.013790

  8 H s       :     0.941434  s :     0.941434

  9 C s       :     2.999179  s :     2.999179
      pz      :     0.798745  p :     2.735804
      px      :     0.864510
      py      :     1.072548
      dz2     :     0.022651  d :     0.100439
      dxz     :     0.028824
      dyz     :     0.019266
      dx2y2   :     0.013480
      dxy     :     0.016218

 10 H s       :     0.919188  s :     0.919188

 11 O s       :     3.751089  s :     3.751089
      pz      :     1.642155  p :     4.560178
      px      :     1.281827
      py      :     1.636195
      dz2     :     0.002153  d :     0.015088
      dxz     :     0.004834
      dyz     :     0.002523
      dx2y2   :     0.002399
      dxy     :     0.003178

 12 O s       :     3.778238  s :     3.778238
      pz      :     1.463034  p :     4.604461
      px      :     1.771403
      py      :     1.370024
      dz2     :     0.005857  d :     0.015311
      dxz     :     0.001993
      dyz     :     0.002381
      dx2y2   :     0.002220
      dxy     :     0.002861

 13 O s       :     3.774390  s :     3.774390
      pz      :     1.659637  p :     4.617367
      px      :     1.533941
      py      :     1.423789
      dz2     :     0.003514  d :     0.015675
      dxz     :     0.003079
      dyz     :     0.001386
      dx2y2   :     0.004812
      dxy     :     0.002884

 14 O s       :     3.796011  s :     3.796011
      pz      :     1.286033  p :     4.607743
      px      :     1.804267
      py      :     1.517442
      dz2     :     0.006764  d :     0.015587
      dxz     :     0.000771
      dyz     :     0.002647
      dx2y2   :     0.002829
      dxy     :     0.002576

 15 O s       :     3.769245  s :     3.769245
      pz      :     1.896516  p :     4.623637
      px      :     1.540685
      py      :     1.186435
      dz2     :     0.002715  d :     0.015518
      dxz     :     0.001785
      dyz     :     0.000896
      dx2y2   :     0.002045
      dxy     :     0.008077

 16 O s       :     3.780612  s :     3.780612
      pz      :     1.545650  p :     4.639066
      px      :     1.545593
      py      :     1.547823
      dz2     :     0.001304  d :     0.015890
      dxz     :     0.005323
      dyz     :     0.001871
      dx2y2   :     0.003156
      dxy     :     0.004236

 17 H s       :     0.941190  s :     0.941190

 18 H s       :     0.904260  s :     0.904260

 19 H s       :     0.691071  s :     0.691071

 20 H s       :     0.693115  s :     0.693115

 21 H s       :     0.696686  s :     0.696686

 22 H s       :     0.700606  s :     0.700606

 23 H s       :     0.708196  s :     0.708196


------------------------
MULLIKEN OVERLAP CHARGES
------------------------
B(  0-C ,  1-C ) :   0.7880 B(  0-C ,  2-H ) :  -0.0772 B(  0-C ,  3-C ) :  -0.0625 
B(  0-C , 11-O ) :  -0.0943 B(  0-C , 16-O ) :   0.7090 B(  0-C , 17-H ) :   0.6299 
B(  0-C , 18-H ) :   0.6800 B(  0-C , 23-H ) :  -0.1072 B(  1-C ,  2-H ) :   0.5682 
B(  1-C ,  3-C ) :   0.1647 B(  1-C ,  4-H ) :  -0.0855 B(  1-C ,  9-C ) :  -0.1982 
B(  1-C , 11-O ) :   0.5155 B(  1-C , 15-O ) :  -0.1156 B(  1-C , 16-O ) :  -0.0657 
B(  2-H , 11-O ) :  -0.0610 B(  3-C ,  4-H ) :   0.6598 B(  3-C ,  5-C ) :   0.4063 
B(  3-C ,  7-C ) :  -0.1370 B(  3-C ,  9-C ) :   0.1046 B(  3-C , 11-O ) :  -0.1117 
B(  3-C , 14-O ) :  -0.0915 B(  3-C , 15-O ) :   0.6462 B(  3-C , 22-H ) :  -0.0971 
B(  4-H ,  5-C ) :  -0.1047 B(  4-H , 15-O ) :  -0.0797 B(  5-C ,  6-H ) :   0.5317 
B(  5-C ,  7-C ) :   0.3678 B(  5-C ,  8-H ) :  -0.0527 B(  5-C ,  9-C ) :   0.0677 
B(  5-C , 13-O ) :  -0.0541 B(  5-C , 14-O ) :   0.5984 B(  5-C , 21-H ) :  -0.1200 
B(  6-H ,  9-C ) :  -0.0525 B(  6-H , 14-O ) :  -0.0856 B(  7-C ,  8-H ) :   0.6149 
B(  7-C ,  9-C ) :  -0.0519 B(  7-C , 11-O ) :  -0.0884 B(  7-C , 12-O ) :  -0.0854 
B(  7-C , 13-O ) :   0.5805 B(  7-C , 14-O ) :  -0.1030 B(  7-C , 20-H ) :  -0.1045 
B(  8-H ,  9-C ) :  -0.0877 B(  8-H , 13-O ) :  -0.0587 B(  9-C , 10-H ) :   0.6386 
B(  9-C , 11-O ) :   0.6715 B(  9-C , 12-O ) :   0.5500 B(  9-C , 13-O ) :  -0.0751 
B( 10-H , 11-O ) :  -0.0667 B( 11-O , 12-O ) :  -0.1422 B( 11-O , 23-H ) :   0.0598 
B( 12-O , 19-H ) :   0.4905 B( 13-O , 20-H ) :   0.5334 B( 14-O , 21-H ) :   0.5309 
B( 14-O , 22-H ) :   0.0801 B( 15-O , 22-H ) :   0.5261 B( 16-O , 17-H ) :  -0.0795 
B( 16-O , 18-H ) :  -0.0675 B( 16-O , 23-H ) :   0.5335 B( 17-H , 18-H ) :  -0.0880 



                     *******************************
                     * LOEWDIN POPULATION ANALYSIS *
                     *******************************

----------------------
LOEWDIN ATOMIC CHARGES
----------------------
   0 C :   -0.134055
   1 C :   -0.067216
   2 H :    0.122604
   3 C :   -0.081338
   4 H :    0.100379
   5 C :   -0.089301
   6 H :    0.124070
   7 C :   -0.080245
   8 H :    0.104196
   9 C :    0.001435
  10 H :    0.107981
  11 O :   -0.143763
  12 O :   -0.308983
  13 O :   -0.313236
  14 O :   -0.308996
  15 O :   -0.319477
  16 O :   -0.340616
  17 H :    0.090742
  18 H :    0.120890
  19 H :    0.288052
  20 H :    0.288541
  21 H :    0.286811
  22 H :    0.279042
  23 H :    0.272481

-------------------------------
LOEWDIN REDUCED ORBITAL CHARGES
-------------------------------
  0 C s       :     2.921605  s :     2.921605
      pz      :     1.023674  p :     3.068598
      px      :     1.071532
      py      :     0.973392
      dz2     :     0.027922  d :     0.143851
      dxz     :     0.029053
      dyz     :     0.032978
      dx2y2   :     0.016242
      dxy     :     0.037657

  1 C s       :     2.901942  s :     2.901942
      pz      :     1.080792  p :     3.014891
      px      :     0.952567
      py      :     0.981532
      dz2     :     0.017279  d :     0.150384
      dxz     :     0.035706
      dyz     :     0.032601
      dx2y2   :     0.023294
      dxy     :     0.041504

  2 H s       :     0.877396  s :     0.877396

  3 C s       :     2.887728  s :     2.887728
      pz      :     1.097709  p :     3.032716
      px      :     0.985279
      py      :     0.949728
      dz2     :     0.030146  d :     0.160895
      dxz     :     0.022963
      dyz     :     0.036217
      dx2y2   :     0.030679
      dxy     :     0.040889

  4 H s       :     0.899621  s :     0.899621

  5 C s       :     2.894446  s :     2.894446
      pz      :     1.067984  p :     3.035622
      px      :     1.039050
      py      :     0.928587
      dz2     :     0.035910  d :     0.159233
      dxz     :     0.015754
      dyz     :     0.025688
      dx2y2   :     0.036114
      dxy     :     0.045768

  6 H s       :     0.875930  s :     0.875930

  7 C s       :     2.898978  s :     2.898978
      pz      :     1.006396  p :     3.023846
      px      :     0.949803
      py      :     1.067647
      dz2     :     0.047604  d :     0.157421
      dxz     :     0.036907
      dyz     :     0.010266
      dx2y2   :     0.025788
      dxy     :     0.036854

  8 H s       :     0.895804  s :     0.895804

  9 C s       :     2.884862  s :     2.884862
      pz      :     0.900666  p :     2.889589
      px      :     0.934254
      py      :     1.054669
      dz2     :     0.051848  d :     0.224115
      dxz     :     0.064526
      dyz     :     0.041507
      dx2y2   :     0.028692
      dxy     :     0.037542

 10 H s       :     0.892019  s :     0.892019

 11 O s       :     3.466552  s :     3.466552
      pz      :     1.665344  p :     4.647695
      px      :     1.330034
      py      :     1.652316
      dz2     :     0.003287  d :     0.029516
      dxz     :     0.009995
      dyz     :     0.003610
      dx2y2   :     0.005633
      dxy     :     0.006992

 12 O s       :     3.540104  s :     3.540104
      pz      :     1.538332  p :     4.741572
      px      :     1.777869
      py      :     1.425371
      dz2     :     0.010602  d :     0.027307
      dxz     :     0.002843
      dyz     :     0.004949
      dx2y2   :     0.003911
      dxy     :     0.005002

 13 O s       :     3.533734  s :     3.533734
      pz      :     1.705958  p :     4.751969
      px      :     1.561771
      py      :     1.484241
      dz2     :     0.005599  d :     0.027533
      dxz     :     0.006107
      dyz     :     0.002042
      dx2y2   :     0.008573
      dxy     :     0.005212

 14 O s       :     3.539532  s :     3.539532
      pz      :     1.363985  p :     4.742243
      px      :     1.802733
      py      :     1.575526
      dz2     :     0.012106  d :     0.027220
      dxz     :     0.001557
      dyz     :     0.004916
      dx2y2   :     0.004424
      dxy     :     0.004218

 15 O s       :     3.527716  s :     3.527716
      pz      :     1.901268  p :     4.764628
      px      :     1.600069
      py      :     1.263292
      dz2     :     0.004237  d :     0.027132
      dxz     :     0.002121
      dyz     :     0.001692
      dx2y2   :     0.003953
      dxy     :     0.015128

 16 O s       :     3.535532  s :     3.535532
      pz      :     1.594576  p :     4.777692
      px      :     1.602172
      py      :     1.580943
      dz2     :     0.002141  d :     0.027392
      dxz     :     0.009068
      dyz     :     0.004149
      dx2y2   :     0.004827
      dxy     :     0.007207

 17 H s       :     0.909258  s :     0.909258

 18 H s       :     0.879110  s :     0.879110

 19 H s       :     0.711948  s :     0.711948

 20 H s       :     0.711459  s :     0.711459

 21 H s       :     0.713189  s :     0.713189

 22 H s       :     0.720958  s :     0.720958

 23 H s       :     0.727519  s :     0.727519


---------------------------------
LOEWDIN BOND ORDERS (THRESH 0.050000)
---------------------------------
B(  0-C ,  1-C ) :   1.0677 B(  0-C ,  3-C ) :   0.0602 B(  0-C , 11-O ) :   0.0639 
B(  0-C , 16-O ) :   1.2515 B(  0-C , 17-H ) :   0.8995 B(  0-C , 18-H ) :   0.9045 
B(  1-C ,  2-H ) :   0.8726 B(  1-C ,  3-C ) :   1.0158 B(  1-C ,  5-C ) :   0.0600 
B(  1-C ,  9-C ) :   0.0622 B(  1-C , 11-O ) :   1.1060 B(  1-C , 15-O ) :   0.0701 
B(  1-C , 16-O ) :   0.0802 B(  3-C ,  4-H ) :   0.8589 B(  3-C ,  5-C ) :   1.0196 
B(  3-C ,  7-C ) :   0.0612 B(  3-C , 11-O ) :   0.0513 B(  3-C , 14-O ) :   0.0774 
B(  3-C , 15-O ) :   1.2318 B(  5-C ,  6-H ) :   0.8640 B(  5-C ,  7-C ) :   1.0280 
B(  5-C ,  9-C ) :   0.0541 B(  5-C , 13-O ) :   0.0774 B(  5-C , 14-O ) :   1.2098 
B(  5-C , 15-O ) :   0.0724 B(  7-C ,  8-H ) :   0.8608 B(  7-C ,  9-C ) :   1.0041 
B(  7-C , 11-O ) :   0.0579 B(  7-C , 12-O ) :   0.0648 B(  7-C , 13-O ) :   1.2332 
B(  7-C , 14-O ) :   0.0727 B(  9-C , 10-H ) :   0.8804 B(  9-C , 11-O ) :   1.2091 
B(  9-C , 12-O ) :   1.2520 B(  9-C , 13-O ) :   0.0640 B( 11-O , 12-O ) :   0.0976 
B( 12-O , 19-H ) :   0.8737 B( 13-O , 20-H ) :   0.8770 B( 14-O , 21-H ) :   0.8794 
B( 14-O , 22-H ) :   0.0522 B( 15-O , 22-H ) :   0.8612 B( 16-O , 23-H ) :   0.8775 


------------------------------------------
LOEWDIN REDUCED ORBITAL POPULATIONS PER MO
-------------------------------------------
THRESHOLD FOR PRINTING IS 0.1%%
                      0         1         2         3         4         5   
                 -18.78244 -18.78209 -18.77516 -18.76158 -18.75296 -18.73787
                   2.00000   2.00000   2.00000   2.00000   2.00000   2.00000
                  --------  --------  --------  --------  --------  --------
11 O  s              98.9       1.0       0.0       0.0       0.0       0.0
12 O  s               0.0       0.0      99.9       0.0       0.0       0.0
13 O  s               0.0       0.0       0.0      99.9       0.0       0.0
14 O  s               1.0      98.9       0.0       0.0       0.0       0.0
15 O  s               0.0       0.0       0.0       0.0      99.9       0.0
16 O  s               0.0       0.0       0.0       0.0       0.0      99.9

                      6         7         8         9        10        11   
                  -9.99649  -9.95499  -9.95314  -9.94847  -9.94627  -9.92512
                   2.00000   2.00000   2.00000   2.00000   2.00000   2.00000
                  --------  --------  --------  --------  --------  --------
 0 C  s               0.0       0.0       0.0       0.0       0.0      99.6
 1 C  s               0.0       0.0       0.0       0.0      99.6       0.0
 3 C  s               0.0       0.0       0.0      99.6       0.0       0.0
 5 C  s               0.0      99.5       0.0       0.0       0.0       0.0
 7 C  s               0.0       0.0      99.5       0.0       0.0       0.0
 9 C  s              99.6       0.0       0.0       0.0       0.0       0.0
12 O  pz              0.1       0.0       0.0       0.0       0.0       0.0

                     12        13        14        15        16        17   
                  -0.99476  -0.96651  -0.94006  -0.93081  -0.92484  -0.91189
                   2.00000   2.00000   2.00000   2.00000   2.00000   2.00000
                  --------  --------  --------  --------  --------  --------
 0 C  s               0.5       0.0       0.4       2.4       1.5       6.3
 0 C  pz              0.2       0.0       0.1       0.9       0.6       1.8
 0 C  px              0.3       0.0       0.0       0.0       0.0       1.1
 0 C  py              0.0       0.0       0.0       0.4       0.7       3.9
 0 C  dyz             0.0       0.0       0.0       0.1       0.1       0.4
 0 C  dx2y2           0.0       0.0       0.0       0.0       0.0       0.1
 1 C  s               4.4       0.0       1.1       3.2       0.4       0.3
 1 C  pz              0.1       0.1       0.0       0.0       0.4       0.5
 1 C  px              2.4       0.0       0.1       0.2       0.1       2.6
 1 C  py              1.3       0.6       0.0       0.3       2.2       0.1
 1 C  dxy             0.2       0.0       0.0       0.0       0.0       0.2
 2 H  s               0.5       0.0       0.2       0.5       0.0       0.0
 3 C  s               1.1       2.7       2.3       2.0       4.0       0.0
 3 C  pz              0.2       0.0       0.0       0.1       0.0       0.1
 3 C  px              0.0       0.2       0.7       1.0       2.4       0.1
 3 C  py              0.2       1.9       0.9       0.2       3.9       0.2
 3 C  dz2             0.0       0.0       0.0       0.0       0.1       0.0
 3 C  dxy             0.0       0.0       0.1       0.1       0.4       0.0
 4 H  s               0.2       0.3       0.2       0.2       0.4       0.0
 5 C  s               1.1       9.6       0.0       0.1       0.3       0.0
 5 C  pz              0.1       1.8       0.2       0.2       0.1       0.0
 5 C  px              0.0       0.5       1.6       0.4       1.0       0.0
 5 C  py              0.1       3.9       0.7       1.4       0.8       0.0
 5 C  dyz             0.0       0.3       0.0       0.0       0.1       0.0
 5 C  dx2y2           0.0       0.1       0.0       0.0       0.1       0.0
 5 C  dxy             0.0       0.1       0.0       0.0       0.0       0.0
 6 H  s               0.2       1.2       0.0       0.0       0.0       0.0
 7 C  s               2.4       1.7       7.1       0.5       0.2       0.0
 7 C  pz              0.1       0.2       2.8       0.9       0.1       0.0
 7 C  px              0.4       0.1       4.7       0.8       0.3       0.1
 7 C  py              0.6       1.6       0.0       0.0       0.1       0.0
 7 C  dxz             0.0       0.0       0.5       0.1       0.0       0.0
 7 C  dx2y2           0.0       0.0       0.2       0.1       0.0       0.0
 8 H  s               0.4       0.3       0.8       0.0       0.0       0.0
 9 C  s              15.3       0.5       0.2       0.5       0.1       0.0
 9 C  pz              0.3       0.1       0.2       5.8       2.0       3.3
 9 C  px              3.8       0.5       1.2       0.2       0.5       1.1
 9 C  py              0.1       0.4       0.3       1.7       0.2       0.5
 9 C  dz2             0.1       0.0       0.0       0.3       0.1       0.1
 9 C  dxz             0.1       0.0       0.0       0.2       0.1       0.2
 9 C  dyz             0.1       0.0       0.0       0.1       0.0       0.0
 9 C  dx2y2           0.1       0.0       0.0       0.1       0.1       0.1
10 H  s               1.8       0.0       0.1       0.0       0.0       0.0
11 O  s              27.8       1.2       1.8       7.7       5.1      11.1
11 O  pz              1.7       0.1       0.0       0.1       0.1       0.2
11 O  px              0.3       0.0       0.0       0.2       0.0       0.0
11 O  py              0.2       0.0       0.1       0.3       0.1       0.2
12 O  s              19.7       2.2       0.3      23.6       6.2       8.2
12 O  pz              1.9       0.1       0.0       0.7       0.2       0.1
12 O  py              0.0       0.0       0.0       0.3       0.1       0.2
13 O  s               1.4       3.5      44.0       6.8       2.0       0.2
13 O  pz              0.1       0.1       0.9       0.1       0.0       0.0
13 O  px              0.1       0.1       0.4       0.0       0.0       0.0
13 O  py              0.0       0.1       1.3       0.2       0.1       0.0
14 O  s               1.1      42.3       0.8       6.8       8.3       0.0
14 O  pz              0.0       0.4       0.0       0.1       0.1       0.0
14 O  px              0.0       0.1       0.0       0.0       0.0       0.0
14 O  py              0.1       2.1       0.0       0.2       0.3       0.0
15 O  s               0.5       6.0      10.0       7.6      32.9       0.4
15 O  px              0.0       0.6       0.6       0.4       1.8       0.0
16 O  s               0.4       0.0       0.9       7.8       7.2      41.9
16 O  px              0.0       0.0       0.1       0.5       0.4       2.1
16 O  py              0.0       0.0       0.0       0.1       0.1       0.3
17 H  s               0.2       0.0       0.0       0.2       0.1       0.8
18 H  s               0.1       0.0       0.1       0.3       0.1       0.7
19 H  s               4.0       0.4       0.1       4.7       1.2       1.7
20 H  s               0.3       0.9       8.8       1.3       0.4       0.0
21 H  s               0.2       8.6       0.2       1.4       1.7       0.0
22 H  s               0.1       2.0       2.1       1.3       6.1       0.1
23 H  s               0.2       0.0       0.2       1.9       1.7       8.1

                     18        19        20        21        22        23   
                  -0.71415  -0.70034  -0.62647  -0.58760  -0.57844  -0.53272
                   2.00000   2.00000   2.00000   2.00000   2.00000   2.00000
                  --------  --------  --------  --------  --------  --------
 0 C  s               1.5       4.2      11.0       2.8      10.9       0.5
 0 C  pz              0.0       0.1       0.3       0.0       2.3       1.3
 0 C  px              0.4       1.7       0.1       0.0       1.0       0.4
 0 C  py              0.9       1.9       1.5       0.0       0.0       0.4
 1 C  s               5.9      14.1       2.1       0.2       2.4       2.5
 1 C  pz              1.5       0.1       1.6       2.4       3.5       1.4
 1 C  px              0.0       0.5       4.2       0.8       1.9       0.3
 1 C  py              2.3       0.1       0.2       6.0       0.1       0.0
 1 C  dxz             0.0       0.0       0.0       0.1       0.0       0.0
 1 C  dxy             0.2       0.0       0.1       0.1       0.1       0.0
 2 H  s               1.1       2.9       0.4       0.2       1.3       2.2
 3 C  s              12.1       1.1       0.7      12.4       0.0       0.8
 3 C  pz              1.0       0.2       0.3       0.8       0.1       2.8
 3 C  px              2.3       1.6       3.7       0.2       0.4       0.1
 3 C  py              2.7       1.9       0.9       0.7       0.5       0.0
 3 C  dxy             0.1       0.0       0.0       0.0       0.0       0.0
 4 H  s               2.6       0.2       0.0       4.5       0.0       1.7
 5 C  s              12.9       1.7       7.9       2.1       2.9       0.2
 5 C  pz              0.0       0.0       0.6       1.5       0.7       2.1
 5 C  px              0.9       0.7       0.8       5.7       0.2       0.2
 5 C  py              4.5       1.2       0.2       0.0       2.0       5.7
 5 C  dxy             0.0       0.1       0.0       0.1       0.0       0.1
 6 H  s               2.5       0.3       3.0       1.3       1.7       1.3
 7 C  s               6.4       8.8       2.2       4.4       3.2       2.6
 7 C  pz              0.3       0.1       0.3       0.1       1.3       0.1
 7 C  px              3.3       2.3       0.2       0.0       0.4       0.1
 7 C  py              0.5       1.1       6.1       1.8       0.6       2.1
 7 C  dxy             0.1       0.0       0.1       0.1       0.0       0.1
 8 H  s               1.3       1.6       1.0       1.4       2.3       1.0
 9 C  s               0.0      10.6       5.4       2.2       0.9       3.2
 9 C  pz              1.0       0.7       0.1       0.4       2.9       4.6
 9 C  px              1.3       0.9       2.6       0.3       1.9       1.2
 9 C  py              2.5       1.7       0.4       0.9       2.2       1.1
 9 C  dz2             0.0       0.0       0.0       0.0       0.0       0.2
 9 C  dx2y2           0.1       0.0       0.0       0.0       0.0       0.0
10 H  s               0.0       2.4       1.7       1.0       0.8       0.9
11 O  s               4.1       0.0       1.4       0.4       0.0       0.9
11 O  pz              0.1       0.0       0.3       0.3       0.2       0.1
11 O  px              0.6      10.1       0.3       5.9       9.7       1.5
11 O  py              1.0       1.2       0.0       0.6       3.5       0.3
11 O  dxz             0.0       0.1       0.0       0.0       0.1       0.0
12 O  s               0.0       2.1       0.8       0.3       0.3       0.1
12 O  pz              0.0       1.2       1.4       1.1       0.3       6.9
12 O  px              0.1       0.5       1.0       0.1       0.3       4.6
12 O  py              0.3       2.2       3.4       0.7       0.3      14.1
12 O  dz2             0.0       0.0       0.0       0.0       0.0       0.2
13 O  s               1.8       2.4       0.2       1.2       0.2       0.2
13 O  pz              0.2       0.5       0.5       1.0       1.1       1.3
13 O  px              0.8       1.6       0.8       2.2       1.1       2.4
13 O  py              0.3       1.1       1.7       0.3       1.1       0.6
14 O  s               2.8       0.5       1.1       0.2       0.1       0.3
14 O  pz              1.5       0.3       4.6       3.9       5.8       8.3
14 O  px              0.3       0.0       1.0       0.1       1.0       1.1
14 O  py              1.1       0.2       1.6       1.1       1.1       0.2
15 O  s               3.8       0.4       0.3       1.6       0.1       0.0
15 O  pz              0.0       0.0       0.0       0.0       0.0       0.3
15 O  px              0.2       0.0       0.3       0.3       0.1       0.0
15 O  py              2.6       0.7       0.0      11.3       0.0       0.7
15 O  dxy             0.1       0.0       0.0       0.2       0.0       0.0
16 O  s               0.3       2.0       1.7       1.0       0.7       0.0
16 O  pz              0.1       0.2       1.9       0.9       4.9       0.9
16 O  px              0.0       0.0       0.1       0.0       0.4       0.1
16 O  py              0.1       0.5       2.4       1.3       3.7       0.2
17 H  s               0.3       1.0       2.6       0.7       3.9       0.9
18 H  s               0.3       0.9       3.5       0.7       4.8       0.4
19 H  s               0.1       1.7       1.9       0.5       0.0       7.0
20 H  s               0.8       1.6       0.9       1.1       0.9       1.2
21 H  s               1.4       0.2       2.4       1.5       2.3       2.5
22 H  s               1.8       0.4       0.0       3.7       0.0       0.2
23 H  s               0.2       0.6       1.8       0.7       2.8       0.3

                     24        25        26        27        28        29   
                  -0.52323  -0.48762  -0.47668  -0.46821  -0.45317  -0.42609
                   2.00000   2.00000   2.00000   2.00000   2.00000   2.00000
                  --------  --------  --------  --------  --------  --------
 0 C  s               0.4       0.0       0.1       0.1       0.0       0.5
 0 C  pz              0.6       0.1       0.3       0.8       2.6       0.3
 0 C  px              0.0       1.5       0.0      14.2       0.0       2.7
 0 C  py              0.7       0.1       2.0       2.2       1.0       0.4
 0 C  dyz             0.0       0.0       0.0       0.1       0.0       0.0
 1 C  s               1.4       0.4       0.6       0.8       0.6       0.8
 1 C  pz              0.9       1.1       0.1       8.7       3.5       0.2
 1 C  px              1.5       0.4       2.6       0.4       4.6       0.4
 1 C  py              2.6       2.3       3.2       1.1       0.1       5.2
 2 H  s               2.4       1.1       1.5       0.6       3.0       0.5
 3 C  s               0.0       0.2       1.5       0.1       0.1       0.0
 3 C  pz              2.4       7.8       2.4       0.9       0.4       0.0
 3 C  px              4.4       4.4       7.5       0.8       3.3       0.2
 3 C  py              0.1       0.8       0.8       5.2       0.7       5.7
 3 C  dxz             0.0       0.0       0.0       0.0       0.0       0.1
 3 C  dxy             0.0       0.1       0.1       0.2       0.1       0.1
 4 H  s               1.2       1.8       2.4       0.9       0.2       0.3
 5 C  s               0.0       0.3       0.1       0.0       0.2       2.2
 5 C  pz              3.4       2.4       1.8       0.0       8.4       3.6
 5 C  px              0.0       5.2      10.3       0.1       0.3       0.1
 5 C  py              2.4       4.5       2.9       0.0       0.2       3.1
 5 C  dz2             0.0       0.0       0.0       0.0       0.0       0.2
 5 C  dxz             0.0       0.0       0.2       0.0       0.0       0.0
 5 C  dx2y2           0.0       0.0       0.0       0.0       0.0       0.3
 5 C  dxy             0.0       0.0       0.1       0.0       0.0       0.2
 6 H  s               1.0       1.3       0.3       0.0       1.7       3.9
 7 C  s               0.0       0.7       0.6       0.0       0.1       0.1
 7 C  pz              6.6       4.2       1.0       1.0       6.3       3.6
 7 C  px              2.1       4.1       3.4       0.1       0.1       0.2
 7 C  py              1.4       0.6       7.0       0.0       0.2       3.2
 7 C  dxz             0.0       0.0       0.2       0.0       0.1       0.0
 7 C  dxy             0.0       0.0       0.0       0.0       0.0       0.1
 8 H  s               1.1       3.4       0.5       0.7       2.7       1.7
 9 C  s               0.5       0.3       0.1       0.2       0.8       0.0
 9 C  pz              7.9       0.8       0.3       0.8       3.4       1.0
 9 C  px              3.3       0.3       2.6       0.2       4.7       0.4
 9 C  py              1.2       0.7       0.0       0.1       6.7       6.2
 9 C  dyz             0.0       0.0       0.0       0.0       0.1       0.0
10 H  s               4.2       0.3       0.2       0.4       7.8       0.6
11 O  s               0.0       1.3       0.3       1.6       0.2       0.3
11 O  pz              1.4       0.0       0.2       3.0       4.6       0.5
11 O  px              0.8       1.1       5.1       0.5       0.1       5.8
11 O  py              0.1       3.2       0.4       0.9       2.6       4.0
12 O  s               0.0       0.0       0.0       0.4       0.6       0.1
12 O  pz              0.6       0.1       0.0       0.1       0.2       4.9
12 O  px              0.2       0.0       0.4       1.2       0.8       1.0
12 O  py              9.1       0.8       0.1       0.7       5.1       0.5
13 O  s               0.0       0.2       1.6       0.0       0.1       0.1
13 O  pz              0.9       2.3       0.5       0.0       0.1       0.1
13 O  px              6.8       0.1       1.5       0.3       4.3       2.5
13 O  py              7.3       0.0      11.4       0.2       1.7       0.1
14 O  s               0.6       0.0       0.0       0.0       1.6       1.3
14 O  pz              2.5      10.0       0.3       0.2       1.1      11.0
14 O  px              0.1       0.2       5.7       0.1       0.7       1.3
14 O  py              0.1       4.0       0.0       0.0       3.0       0.3
15 O  s               0.0       0.1       1.7       0.0       0.4       0.0
15 O  pz              0.3       0.8       0.4       0.2       0.0       0.0
15 O  px              0.1       0.0       3.8       0.1       0.8       0.4
15 O  py              4.2      12.5       1.9      13.5       2.0       4.4
15 O  dxy             0.0       0.1       0.0       0.2       0.0       0.1
16 O  s               0.0       0.1       0.0       0.5       0.2       1.2
16 O  pz              0.8       0.9       1.5       9.1       0.4       0.1
16 O  px              0.0       0.6       0.0       5.0       0.1       3.1
16 O  py              0.2       0.8       0.5       8.2       0.4       0.2
17 H  s               0.5       0.1       0.4       1.5       1.0       1.3
18 H  s               0.0       0.1       0.0       0.6       0.0       0.1
19 H  s               2.7       0.3       0.1       0.4       0.7       0.7
20 H  s               4.3       0.2       3.2       0.1       1.4       0.2
21 H  s               0.5       3.5       0.3       0.1       0.1       3.6
22 H  s               1.2       3.5       0.8       3.9       0.5       1.4
23 H  s               0.3       0.8       0.4       5.9       0.1       0.6

                     30        31        32        33        34        35   
                  -0.41479  -0.40770  -0.39688  -0.38632  -0.37392  -0.35513
                   2.00000   2.00000   2.00000   2.00000   2.00000   2.00000
                  --------  --------  --------  --------  --------  --------
 0 C  s               0.3       0.8       0.4       0.2       0.1       0.0
 0 C  pz              4.7       7.0       0.7      11.6       6.5       0.2
 0 C  px              1.3       0.7       0.9       7.6       0.2       5.6
 0 C  py              1.1       0.2      11.1       4.0       0.2      10.9
 0 C  dxz             0.0       0.0       0.1       0.0       0.0       0.1
 0 C  dx2y2           0.0       0.0       0.0       0.0       0.0       0.2
 0 C  dxy             0.1       0.1       0.2       0.2       0.1       0.1
 1 C  s               0.4       0.1       0.4       0.3       0.0       0.2
 1 C  pz              0.1       0.1       1.5       0.2       0.8       1.9
 1 C  px              1.3       0.1      10.1       1.4       1.2       1.5
 1 C  py              1.6       1.0       0.5       3.2       1.0       4.1
 1 C  dz2             0.0       0.0       0.0       0.1       0.0       0.2
 1 C  dxz             0.2       0.0       0.0       0.0       0.0       0.2
 1 C  dyz             0.0       0.0       0.1       0.1       0.0       0.1
 2 H  s               1.0       0.0       1.2       0.0       0.3       5.0
 3 C  s               0.1       0.1       0.3       0.3       0.4       0.1
 3 C  pz              0.9      15.7       1.2       1.2       2.6       0.1
 3 C  px              0.6       0.1       0.5       0.1       0.0       0.0
 3 C  py              0.3       2.4       4.9       3.2       0.1       0.7
 3 C  dz2             0.0       0.1       0.0       0.2       0.1       0.1
 3 C  dxy             0.1       0.0       0.0       0.0       0.0       0.0
 4 H  s               0.0       7.5       0.0       2.7       2.9       1.1
 5 C  s               0.0       0.0       0.1       0.0       0.3       0.1
 5 C  pz              0.6       0.1       0.3       1.5      13.8       0.1
 5 C  px              0.2       7.7       0.7       0.2       1.3       0.3
 5 C  py              0.0       0.7       0.0       0.0       0.6       0.0
 5 C  dyz             0.0       0.0       0.0       0.0       0.3       0.0
 5 C  dx2y2           0.1       0.1       0.0       0.0       0.0       0.0
 6 H  s               0.1       0.3       0.0       0.9       7.7       0.1
 7 C  s               0.1       0.3       0.0       0.2       0.3       0.2
 7 C  pz              0.3       9.3       1.3       0.0       2.2       0.3
 7 C  px              7.3       4.2       2.2       1.6       1.0       0.2
 7 C  py              5.3       0.9       1.2       1.4       0.4       0.7
 7 C  dxz             0.2       0.1       0.0       0.0       0.2       0.0
 7 C  dx2y2           0.3       0.1       0.0       0.0       0.0       0.0
 8 H  s               0.0       7.5       1.0       0.1       3.3       0.1
 9 C  s               0.7       0.2       0.2       0.4       0.1       0.2
 9 C  pz              1.1       0.1       0.1       0.1       0.2       0.6
 9 C  px             11.7       0.5       1.5       0.7       0.0       0.3
 9 C  py              4.9       0.0       8.6       3.4       0.0       0.0
 9 C  dz2             0.1       0.0       0.1       0.2       0.0       0.5
 9 C  dxz             0.0       0.1       0.1       0.0       0.1       0.1
 9 C  dx2y2           0.2       0.1       0.0       0.0       0.0       0.0
10 H  s               2.1       0.6       4.6       0.4       0.0       0.0
11 O  s               0.1       0.1       0.6       2.3       0.2       0.3
11 O  pz              3.3       0.0       2.0      10.2       0.2       9.0
11 O  px              1.8       0.9       1.8       0.1       0.1       4.8
11 O  py              4.3       0.7       0.5       0.0       2.9       1.3
12 O  s               0.1       0.0       2.4       0.6       0.0       3.3
12 O  pz              6.6       0.3       6.2       0.1       1.5       8.0
12 O  px              1.0       0.1       0.1       4.2       0.0       0.5
12 O  py              1.6       0.0       4.1       0.9       0.0       7.9
13 O  s               0.0       0.0       0.7       0.2       0.8       0.0
13 O  pz              6.4       2.7       1.8       1.0       1.5       0.1
13 O  px              5.3       2.6       0.1       0.6       0.4       0.9
13 O  py              1.6       0.1       0.8       0.2       1.5       0.1
14 O  s               0.5       0.0       0.1       0.0       1.9       0.0
14 O  pz              1.0       0.5       0.7       0.0       1.2       0.0
14 O  px              0.1       1.4       2.1       1.0       0.6       0.1
14 O  py              0.5       0.9       0.1       0.4      25.9       0.6
15 O  s               0.3       0.4       0.3       0.0       0.6       0.0
15 O  pz              0.4       5.4       0.2       0.5       1.0       0.0
15 O  px              0.2       1.6       1.1       0.7       1.4       0.0
15 O  py              2.7       0.3       0.6       2.7       0.3       1.0
16 O  s               0.2       0.2       0.4       1.0       0.1       0.4
16 O  pz              0.0       0.4       8.2       1.5       0.1       5.6
16 O  px              1.1       1.1       0.3       4.5       0.3       4.5
16 O  py              1.7       4.2       0.2       6.3       3.7       0.1
17 H  s               4.0       4.8       0.8       0.7       2.4       3.7
18 H  s               0.0       0.3       4.4       9.0       0.6       8.4
19 H  s               0.8       0.1       0.4       0.9       0.0       1.8
20 H  s               2.9       0.0       0.1       0.0       0.5       0.1
21 H  s               0.1       0.1       0.0       0.1       0.3       0.0
22 H  s               0.8       0.0       0.1       0.6       0.5       0.2
23 H  s               0.4       1.3       1.7       0.9       0.1       0.1

                     36        37        38        39        40        41   
                  -0.34002  -0.32689  -0.31345  -0.29984  -0.28814  -0.27302
                   2.00000   2.00000   2.00000   2.00000   2.00000   2.00000
                  --------  --------  --------  --------  --------  --------
 0 C  s               0.1       0.1       0.0       0.0       0.7       0.0
 0 C  pz              3.0       0.8       0.1       0.1       0.2       0.2
 0 C  px              0.0       0.1       0.3       0.2       2.0       0.2
 0 C  py              0.6       0.9       0.0       0.1       0.3       0.1
 0 C  dyz             0.1       0.0       0.0       0.0       0.2       0.0
 0 C  dxy             0.1       0.0       0.0       0.1       0.3       0.1
 1 C  s               0.1       0.2       0.3       0.4       0.4       0.0
 1 C  pz              8.9       4.7       0.9       0.3       0.6       4.5
[...]
 5 C  dxz             0.0       0.2       0.2       0.5       0.2       0.0
 5 C  dyz             0.1       0.6       1.4       0.2       1.4       0.5
 5 C  dx2y2           0.6       1.4       0.8       1.2       0.3       0.0
 5 C  dxy             1.1       0.7       1.4       0.4       0.5       0.0
 7 C  s               1.1       0.0       0.1       0.1       1.2       0.2
 7 C  pz              0.6       0.0       0.1       0.1       0.7       0.3
 7 C  px              1.0       0.1       0.2       0.2       0.8       0.1
 7 C  py              0.0       0.0       0.0       0.0       0.2       0.0
 7 C  dz2             0.0       0.0       0.3       0.1       0.2       0.0
 7 C  dxz             3.8       0.1       0.2       0.6       3.2       0.9
 7 C  dyz             0.2       0.0       0.1       0.1       0.0       0.0
 7 C  dx2y2           1.5       0.5       0.6       0.0       1.2       0.5
 7 C  dxy             0.3       0.0       0.0       0.0       0.3       0.0
 9 C  s               1.1       0.1       0.5       0.1       1.9       0.9
 9 C  pz              1.2       0.1       1.5       0.0       0.1       0.9
 9 C  px              0.0       0.1       0.1       0.1       1.1       1.1
 9 C  py              0.2       0.0       0.2       0.0       0.2       0.1
 9 C  dz2             2.2       0.1       2.3       0.1       1.6       1.2
 9 C  dxz             0.2       0.1       0.9       0.0       0.9       2.2
 9 C  dyz             2.8       0.2       1.7       0.2       1.1       0.0
 9 C  dx2y2           0.1       0.0       0.4       0.0       0.8       1.5
 9 C  dxy             0.2       0.0       0.0       0.0       0.3       0.0
11 O  s               0.0       0.1       0.1       0.0       0.2       0.0
11 O  px              0.0       0.0       0.1       0.4       1.6       3.9
11 O  py              0.0       0.0       0.0       0.0       0.1       0.8
11 O  dz2             0.6       0.2       0.0       0.9       0.0       1.5
11 O  dxz             0.3       0.2       2.2       1.7      10.4      29.4
11 O  dyz             0.0       0.0       0.0       0.1       0.3       4.7
11 O  dx2y2           0.0       0.2       0.1       0.2       4.5       4.2
11 O  dxy             0.4       0.3       0.8       2.8       2.7       6.6
12 O  s               1.3       0.2       1.8       0.0       1.1       0.2
12 O  pz              1.1       0.1       1.1       0.0       0.4       0.1
12 O  px              0.1       0.0       0.1       0.0       0.1       0.0
12 O  py              0.6       0.1       0.4       0.0       0.7       0.1
12 O  dz2            18.4       1.4      12.8       0.3       3.6       0.9
12 O  dxz             1.8       0.0       0.4       0.0       1.4       0.1
12 O  dyz             8.8       0.8       9.1       0.0       5.4       1.1
12 O  dx2y2           0.0       0.0       0.2       0.0       0.0       0.3
12 O  dxy             0.0       0.0       0.0       0.2       0.0       0.0
13 O  s               1.6       0.1       0.2       0.3       2.2       0.5
13 O  pz              0.7       0.0       0.0       0.1       0.5       0.1
13 O  px              1.2       0.1       0.2       0.2       1.1       0.3
13 O  py              0.2       0.0       0.0       0.0       0.2       0.0
13 O  dz2             1.6       0.1       0.1       0.0       0.1       0.1
13 O  dxz            21.8       0.7       1.7       2.3      14.4       3.1
13 O  dyz             0.0       0.1       0.0       0.0       0.1       0.0
13 O  dx2y2           8.3       0.5       1.7       1.1       7.1       1.6
13 O  dxy             0.1       0.1       0.2       0.1       0.0       0.0
14 O  s               0.4       1.0       1.4       0.6       1.7       0.4
14 O  pz              0.2       0.3       0.5       0.2       0.3       0.1
14 O  px              0.1       0.1       0.1       0.1       0.1       0.0
14 O  py              0.3       0.5       0.7       0.3       0.6       0.1
14 O  dz2             0.4       1.1       2.6       0.3       1.9       0.7
14 O  dxz             0.4       0.8       0.6       0.5       0.3       0.0
14 O  dyz             2.5       4.9       5.5       3.2       3.8       0.5
14 O  dx2y2           2.0       3.3       5.2       2.1       3.1       0.7
14 O  dxy             1.8       3.8       4.8       1.0       2.5       0.6
15 O  s               0.0       0.3       1.1       2.3       0.2       1.0
15 O  px              0.0       0.1       0.2       0.4       0.1       0.1
15 O  py              0.0       0.2       0.7       2.2       0.1       0.9
15 O  dz2             0.0       0.7       3.2       6.0       0.8       2.2
15 O  dxz             0.1       0.0       0.1       0.1       0.1       0.0
15 O  dyz             0.0       0.1       0.0       0.1       0.0       0.2
15 O  dx2y2           0.1       0.2       0.1       0.4       0.0       1.0
15 O  dxy             0.0       3.9       9.0      29.8       1.9       6.7
16 O  s               0.1       2.7       0.4       0.7       0.0       0.0
16 O  pz              0.0       1.2       0.2       0.4       0.0       0.0
16 O  py              0.1       1.7       0.3       0.5       0.0       0.0
16 O  dz2             0.0       0.1       0.0       0.0       0.0       0.1
16 O  dxz             0.3       8.1       1.4       3.3       0.1       0.0
16 O  dyz             0.7      18.9       3.6       5.9       0.0       0.0
16 O  dx2y2           0.2       6.5       1.2       1.7       0.0       0.0
16 O  dxy             0.5      13.7       1.8       2.8       0.0       0.2
19 H  s               0.4       0.0       0.2       0.0       0.2       0.0
20 H  s               0.4       0.0       0.0       0.0       0.3       0.0
21 H  s               0.1       0.1       0.2       0.0       0.2       0.1
22 H  s               0.0       0.0       0.1       0.5       0.0       0.1
23 H  s               0.0       0.6       0.1       0.2       0.0       0.0



                      *****************************
                      * MAYER POPULATION ANALYSIS *
                      *****************************

  NA   - Mulliken gross atomic population
  ZA   - Total nuclear charge
  QA   - Mulliken gross atomic charge
  VA   - Mayer's total valence
  BVA  - Mayer's bonded valence
  FA   - Mayer's free valence

  ATOM       NA         ZA         QA         VA         BVA        FA
  0 C      5.9240     6.0000     0.0760     3.9954     3.9954     0.0000
  1 C      5.9647     6.0000     0.0353     3.9964     3.9964     0.0000
  2 H      0.9201     1.0000     0.0799     0.9842     0.9842     0.0000
  3 C      5.9872     6.0000     0.0128     4.0853     4.0853    -0.0000
  4 H      0.9441     1.0000     0.0559     0.9847     0.9847     0.0000
  5 C      6.0014     6.0000    -0.0014     4.0376     4.0376     0.0000
  6 H      0.9249     1.0000     0.0751     0.9853     0.9853     0.0000
  7 C      5.9074     6.0000     0.0926     4.0479     4.0479    -0.0000
  8 H      0.9414     1.0000     0.0586     0.9912     0.9912     0.0000
  9 C      5.8354     6.0000     0.1646     4.1223     4.1223     0.0000
 10 H      0.9192     1.0000     0.0808     0.9832     0.9832     0.0000
 11 O      8.3264     8.0000    -0.3264     2.1658     2.1658    -0.0000
 12 O      8.3980     8.0000    -0.3980     2.0375     2.0375    -0.0000
 13 O      8.4074     8.0000    -0.4074     2.0301     2.0301    -0.0000
 14 O      8.4193     8.0000    -0.4193     2.0257     2.0257     0.0000
 15 O      8.4084     8.0000    -0.4084     2.0205     2.0205    -0.0000
 16 O      8.4356     8.0000    -0.4356     2.0115     2.0115    -0.0000
 17 H      0.9412     1.0000     0.0588     0.9811     0.9811    -0.0000
 18 H      0.9043     1.0000     0.0957     0.9572     0.9572    -0.0000
 19 H      0.6911     1.0000     0.3089     0.8883     0.8883    -0.0000
 20 H      0.6931     1.0000     0.3069     0.8852     0.8852    -0.0000
 21 H      0.6967     1.0000     0.3033     0.8883     0.8883    -0.0000
 22 H      0.7006     1.0000     0.2994     0.9144     0.9144    -0.0000
 23 H      0.7082     1.0000     0.2918     0.9098     0.9098     0.0000

  Mayer bond orders larger than 0.100000
B(  0-C ,  1-C ) :   1.0888 B(  0-C , 16-O ) :   1.0768 B(  0-C , 17-H ) :   0.8940 
B(  0-C , 18-H ) :   0.9133 B(  1-C ,  2-H ) :   0.8743 B(  1-C ,  3-C ) :   0.9751 
B(  1-C , 11-O ) :   0.9439 B(  3-C ,  4-H ) :   0.8718 B(  3-C ,  5-C ) :   1.0389 
B(  3-C , 15-O ) :   1.0989 B(  5-C ,  6-H ) :   0.8467 B(  5-C ,  7-C ) :   1.0336 
B(  5-C , 14-O ) :   1.0067 B(  7-C ,  8-H ) :   0.8746 B(  7-C ,  9-C ) :   0.9831 
B(  7-C , 13-O ) :   1.0952 B(  9-C , 10-H ) :   0.8933 B(  9-C , 11-O ) :   1.0795 
B(  9-C , 12-O ) :   1.0938 B( 12-O , 19-H ) :   0.8333 B( 13-O , 20-H ) :   0.8427 
B( 14-O , 21-H ) :   0.8454 B( 15-O , 22-H ) :   0.8231 B( 16-O , 23-H ) :   0.8389 


-------
TIMINGS
-------

Total SCF time: 0 days 0 hours 0 min 6 sec 

Total time                  ....       6.027 sec
Sum of individual times     ....       5.995 sec  ( 99.5%)

SCF preparation             ....       0.299 sec  (  5.0%)
Fock matrix formation       ....       5.480 sec  ( 90.9%)
  Startup                   ....       0.008 sec  (  0.1% of F)
  Split-RI-J                ....       2.873 sec  ( 52.4% of F)
  XC integration            ....       2.512 sec  ( 45.8% of F)
    XC Preparation          ....       0.000 sec  (  0.0% of XC)
    Basis function eval.    ....       1.043 sec  ( 41.5% of XC)
    Density eval.           ....       0.566 sec  ( 22.5% of XC)
    XC-Functional eval.     ....       0.156 sec  (  6.2% of XC)
    XC-Potential eval.      ....       0.585 sec  ( 23.3% of XC)
Diagonalization             ....       0.000 sec  (  0.0%)
Density matrix formation    ....       0.031 sec  (  0.5%)
Total Energy calculation    ....       0.002 sec  (  0.0%)
Population analysis         ....       0.060 sec  (  1.0%)
Orbital Transformation      ....       0.017 sec  (  0.3%)
Orbital Orthonormalization  ....       0.000 sec  (  0.0%)
DIIS solution               ....       0.082 sec  (  1.4%)
  MO trafo                  ....       0.000 sec  (  0.0 % of DIIS)
  Orb grad                  ....       0.000 sec  (  0.0 % of DIIS)
  Energy W gradient         ....       0.000 sec  (  0.0 % of DIIS)
  DIIS error                ....       0.005 sec  (  6.2 % of DIIS)
  DIIS work                 ....       0.067 sec  ( 81.6 % of DIIS)
  Form Q                    ....       0.000 sec  (  0.0 % of DIIS)
  Form QpQm                 ....       0.000 sec  (  0.0 % of DIIS)
  Exp/Cayley                ....       0.000 sec  (  0.0 % of DIIS)
  Orb update                ....       0.000 sec  (  0.0 % of DIIS)
  Wake-sleep                ....       0.001 sec  (  1.2 % of DIIS)
SOSCF solution              ....       0.022 sec  (  0.4%)
  MO trafo                  ....       0.014 sec  ( 62.0 % of SOSCF)
  Orb grad                  ....       0.000 sec  (  0.8 % of SOSCF)
  Rot update                ....       0.002 sec  (  7.6 % of SOSCF)
  Step                      ....       0.007 sec  ( 29.4 % of SOSCF)
Finished LeanSCF after   7.2 sec

Maximum memory used throughout the entire LEANSCF-calculation: 18.9 MB


-------------------------------------------------------------------------------
                          DFT DISPERSION CORRECTION                            
                                                                               
                                DFTD4 V3.4.0                                   
-------------------------------------------------------------------------------
The PBE functional is recognized
Active option DFTDOPT                   ...         5   

-------------------------   ----------------
Dispersion correction           -0.024579969
-------------------------   ----------------

------------------   -----------------
gCP correction             0.156384275
------------------   -----------------

-------------------------   --------------------
FINAL SINGLE POINT ENERGY      -685.693146429449
-------------------------   --------------------


------------------------------------------------------------------------------
                              ORCA PROPERTY CALCULATIONS
------------------------------------------------------------------------------

GBWName                                 ... sp.gbw
Number of atoms                         ...     24
Number of basis functions               ...    192
Max core memory                         ...   1024 MB

Electric properties:
Dipole moment                           ... YES
Quadrupole moment                       ...  NO
Static polarizability (Dipole/Dipole)   ...  NO
Static polarizability (Dipole/Quad.)    ...  NO
Static polarizability (Quad./Quad.)     ...  NO
Static polarizability (Velocity)        ...  NO

Atomic electric properties:
Dipole moment                           ...  NO
Quadrupole moment                       ...  NO
Static polarizability                   ...  NO

Choice of electric origin               ... Center of mass
Position of electric origin             ...    -0.000002     0.000001    -0.000003

General magnetic properties:
Magnetizability                         ...  NO

EPR properties:
g-Tensor (aka g-matrix)                 ...  NO
Zero-Field splitting spin-orbit         ...  NO
Zero-field splitting spin-spin          ...  NO
Hyperfine couplings                     ...  NO (   0 nuclei)
Quadrupole couplings                    ...  NO (   0 nuclei)
Contact density                         ...  NO (   0 nuclei)

NMR properties:
Chemical shifts                         ...  NO (   0 nuclei)
Spin-rotation constants                 ...  NO (   0 nuclei)
Spin-spin couplings                     ...  NO (   0 nuclei,    0 pairs)

Choice of magnetic origin               ... GIAO
Position of magnetic origin             ...     0.000000     0.000000     0.000000

Properties with geometric perturbations:
SCF Hessian                             ...  NO
IR spectrum                             ...  NO
VCD spectrum                            ...  NO
X-ray spectroscopy properties:
SCF XES/XAS/RIXS spectra                ...  NO


-------------
DIPOLE MOMENT
-------------

Method             : SCF
Type of density    : Electron Density
Multiplicity       :   1
Irrep              :   0
Energy             :  -685.8249507355050127 Eh
Relativity type    : 
Basis              : AO
                                X                 Y                 Z
Electronic contribution:      1.560799095       0.015929709       1.556959591
Nuclear contribution   :     -0.530884426       0.287118246      -2.079414634
                        -----------------------------------------
Total Dipole Moment    :      1.029914669       0.303047955      -0.522455043
                        -----------------------------------------
Magnitude (a.u.)       :      1.193952076
Magnitude (Debye)      :      3.034784999



--------------------
Rotational spectrum 
--------------------
 
Rotational constants in cm-1:             0.042733             0.026227             0.018776 
Rotational constants in MHz :          1281.092747           786.255456           562.875381 

Dipole components along the rotational axes: 
x,y,z [a.u.] :     1.026094    -0.242236    -0.560334 
x,y,z [Debye]:     2.608124    -0.615715    -1.424255 

 

Dipole moment calculation done in   0.0 sec 

Maximum memory used throughout the entire PROP-calculation: 12.5 MB

--------------------------------
SUGGESTED CITATIONS FOR THIS RUN
--------------------------------

Below you find a list of papers that are relevant to this ORCA run
We neither can nor want to force you to cite these papers, but we appreciate if you do
You receive ORCA, which is the product of decades of hard work by many enthusiastic individuals, for free
The only thing we kindly ask in return is that you cite our papers,
We deeply appreciate it, if you show your appreciation for ORCA by not just citing the generic ORCA reference.

Please note that relegating all ORCA citations to the supporting information does *not* help us.
SI sections are not indexed - citations you put there will not count into any citation statistics
But we need these citations in order to attract the funding resources that allow us to do what we are doing

Therefore, if you are a happy ORCA user, please consider citing a few of the papers listed below in the main body of your paper

In addition to the list printed below, the program has created the file sp.bibtex that contains the list in bibtex format
You can import this file easily into all common literature databanks and citation aid programs


List of essential papers. We consider these as the minimum necessary citations

  1. Neese,F.
     Software update: the ORCA program system, version 5.0
     WIRES Comput. Molec. Sci., 2022 12(1)e1606
     doi.org/10.1002/wcms.1606

List of papers to cite with high priority. The work reported in these papers was absolutely
necessary for this run to complete.
Our perspective: the developers of density functionals and basis sets usually get cited in chemistry papers
Good! But without the algorithms to do something with them, the functionals or basis sets would not do anything.
Hence, in our opinion, the algorithm design and method developments papers are equally worthy of getting cited

  1. Neese,F.
     An improvement of the resolution of the identity approximation for the formation of the Coulomb matrix
     J. Comp. Chem., 2003 24(14)1740-1747
     doi.org/10.1002/jcc.10318
  2. Neese,F.
     The SHARK Integral Generation and Digestion System
     J. Comp. Chem., 2022  1-16
     doi.org/10.1002/jcc.26942
  3. Caldeweyher,E.; Bannwarth,C.; Grimme,S.
     Extension of the D3 dispersion coefficient model
     J. Chem. Phys., 2017 147 034112
     doi.org/10.1063/1.4993215
  4. Caldeweyher,E.; Ehlert,S.; Hansen,A.; Neugebauer,H.; Spicher,S.; Bannwarth,C.; Grimme,S.
     A generally applicable atomic-charge dependent London dispersion correction
     J. Chem. Phys., 2019 150 154122
     doi.org/10.1063/1.5090222
  5. Caldeweyher,E.; Mewes,J.; Ehlert,S.; Grimme,S.
     Extension and evaluation of the D4 London-dispersion model for periodic systems
     Phys. Chem. Chem. Phys., 2020 22(16)8499-8512
     doi.org/10.1039/D0CP00502A
  6. Wittmann,L.; Gordiy,I.; Friede,M.; Helmich-Paris,B.; Grimme,S.; Hansen,A.; Bursch,M.
     Extension of the D3 and D4 London Dispersion Corrections to the full Actinides Series
     Phys. Chem. Chem. Phys., 2024 26(32)21379-21394
     doi.org/https://doi.org/10.1039/D4CP01514B 

List of suggested additional citations. These are papers that are important in the 'surrounding' of 
of this run, or papers that preceded the highly important papers. If you like your results we are grateful for a citation.

  1. Neese,F.
     The ORCA program system
     WIRES Comput. Molec. Sci., 2012 2(1)73-78
     doi.org/10.1002/wcms.81
  2. Neese,F.
     Software update: the ORCA program system, version 4.0
     WIRES Comput. Molec. Sci., 2018 8(1)1-6
     doi.org/10.1002/wcms.1327
  3. Neese,F.; Wennmohs,F.; Becker,U.; Riplinger,C.
     The ORCA quantum chemistry program package
     J. Chem. Phys., 2020 152 Art. No. L224108
     doi.org/10.1063/5.0004608

List of optional additional citations

  1. Neese,F.
     Approximate second-order SCF convergence for spin unrestricted wavefunctions
     Chem. Phys. Lett., 2000 325(1-3)93-98
     doi.org/10.1016/s0009-2614(00)00662-x

Timings for individual modules:

Sum of individual times          ...       42.040 sec (=   0.701 min)
Startup calculation              ...        0.622 sec (=   0.010 min)   1.5 %
SCF iterations                   ...       41.352 sec (=   0.689 min)  98.4 %
Property calculations            ...        0.066 sec (=   0.001 min)   0.2 %
                             ****ORCA TERMINATED NORMALLY****
TOTAL RUN TIME: 0 days 0 hours 1 minutes 6 seconds 231 msec
