8
 energy: -3050.310566854636 gnorm: 0.029064170598 xtb: 6.7.1 (edcfbbe)
C            0.16851152687467        0.65478820659015       -0.51040951262618
H            0.20428014629052        0.74037664402808       -1.60303673261035
C            1.33325946129080       -0.21258431309420       -0.01439783620638
F            1.33096141878978       -0.37309972216533        1.30267109667725
F            2.50366197220944        0.33273153404744       -0.35657739225801
F            1.28100998026765       -1.42147138702989       -0.57747788325590
F            0.25171560521154        1.88217385843404        0.03138970701391
Br          -1.50448923826668       -0.17575109417788        0.00400101080177
8
 energy: -3050.311695418020 gnorm: 0.009957745939 xtb: 6.7.1 (edcfbbe)
C            0.16885480610592        0.64700062585175       -0.49852298303605
H            0.19470036655071        0.71953167999032       -1.59069331750345
C            1.34216327334694       -0.21921858670597       -0.01039942598829
F            1.34397607400026       -0.36560367973633        1.31565478833343
F            2.50034410014138        0.35814107828180       -0.37256113227750
F            1.28556279659410       -1.43078596542325       -0.58327724749590
F            0.27584721435245        1.88287734785588        0.04405651809036
Br          -1.54253813096365       -0.16477852191842       -0.02809516950466
8
 energy: -3050.311798451150 gnorm: 0.002922248886 xtb: 6.7.1 (edcfbbe)
C            0.17026776762263        0.64648167794244       -0.50703567589188
H            0.19941924559934        0.72026524291955       -1.59757905313949
C            1.33800110807065       -0.22240940709290       -0.00992386070793
F            1.33798085954268       -0.36492577051861        1.31995240199518
F            2.49375743905200        0.36815238519181       -0.37365821291459
F            1.28719611268466       -1.43576153847889       -0.58575263784174
F            0.28238626176095        1.88025008804480        0.04938066358489
Br          -1.54009829426606       -0.16488870476084       -0.01922144271357
8
 energy: -3050.311808298763 gnorm: 0.001235563716 xtb: 6.7.1 (edcfbbe)
C            0.17008756041412        0.64499260663815       -0.50591102718542
H            0.19675755479336        0.71965130150142       -1.59623312261122
C            1.33849586213597       -0.22232342986770       -0.01048043436304
F            1.33966979900908       -0.36521559016731        1.31912359226240
F            2.49505644984412        0.36833620966088       -0.37390088063641
F            1.29039598922428       -1.43653559780420       -0.58436092012068
F            0.28179731921287        1.87914555702078        0.04998036210404
Br          -1.54335008411672       -0.16088705859465       -0.02205542668378
8
 energy: -3050.311809334939 gnorm: 0.000457848483 xtb: 6.7.1 (edcfbbe)
C            0.16983820651329        0.64508510042322       -0.50567337358945
H            0.19624199863148        0.72032141426865       -1.59585077898894
C            1.33735825762608       -0.22198965070485       -0.01095674073190
F            1.33881697384137       -0.36478837326519        1.31840787319773
F            2.49508278006693        0.36814237982014       -0.37427533394596
F            1.29049838701044       -1.43672241300534       -0.58320515868917
F            0.28334598973831        1.87939756827487        0.05023952360007
Br          -1.54227213289766       -0.16228203085369       -0.02252387355438
8
 energy: -3050.311809334939 gnorm: 0.000457848483 xtb: 6.7.1 (edcfbbe)
C            0.16983820651329        0.64508510042322       -0.50567337358945
H            0.19624199863148        0.72032141426865       -1.59585077898894
C            1.33735825762608       -0.22198965070485       -0.01095674073190
F            1.33881697384137       -0.36478837326519        1.31840787319773
F            2.49508278006693        0.36814237982014       -0.37427533394596
F            1.29049838701044       -1.43672241300534       -0.58320515868917
F            0.28334598973831        1.87939756827487        0.05023952360007
Br          -1.54227213289766       -0.16228203085369       -0.02252387355438
