      -----------------------------------------------------------      
     |                   =====================                   |     
     |                           x T B                           |     
     |                   =====================                   |     
     |                         S. Grimme                         |     
     |          Mulliken Center for Theoretical Chemistry        |     
     |                    University of Bonn                     |     
      -----------------------------------------------------------      

   * xtb version 6.7.1 (edcfbbe) compiled by 'albert@albert-system' on 2024-07-22

   xtb is free software: you can redistribute it and/or modify it under
   the terms of the GNU Lesser General Public License as published by
   the Free Software Foundation, either version 3 of the License, or
   (at your option) any later version.
   
   xtb is distributed in the hope that it will be useful,
   but WITHOUT ANY WARRANTY; without even the implied warranty of
   MERCHANTABILITY or FITNESS FOR A PARTICULAR PURPOSE.  See the
   GNU Lesser General Public License for more details.
   
   Cite this work as:
   * C. Bannwarth, E. Caldeweyher, S. Ehlert, A. Hansen, P. Pracht,
     J. Seibert, S. Spicher, S. Grimme, WIREs Comput. Mol. Sci., 2020, 11,
     e01493. DOI: 10.1002/wcms.1493
   
   for GFN2-xTB:
   * C. Bannwarth, S. Ehlert and S. Grimme., J. Chem. Theory Comput., 2019,
     15, 1652-1671. DOI: 10.1021/acs.jctc.8b01176
   for GFN1-xTB:
   * S. Grimme, C. Bannwarth, P. Shushkov, J. Chem. Theory Comput., 2017,
     13, 1989-2009. DOI: 10.1021/acs.jctc.7b00118
   for GFN0-xTB:
   * P. Pracht, E. Caldeweyher, S. Ehlert, S. Grimme, ChemRxiv, 2019, preprint.
     DOI: 10.26434/chemrxiv.8326202.v1
   for GFN-FF:
   * S. Spicher and S. Grimme, Angew. Chem. Int. Ed., 2020, 59, 15665-15673.
     DOI: 10.1002/anie.202004239
   
   for ALPB and GBSA implicit solvation:
   * S. Ehlert, M. Stahn, S. Spicher, S. Grimme, J. Chem. Theory Comput.,
     2021, 17, 4250-4261. DOI: 10.1021/acs.jctc.1c00471
   
   for ddCOSMO and CPCM-X implicit solvation:
   * M. Stahn, S. Ehlert, S. Grimme, J. Phys. Chem. A,
     2023, XX, XXXX-XXXX. DOI: 10.1021/acs.jpca.3c04382
   
   for DFT-D4:
   * E. Caldeweyher, C. Bannwarth and S. Grimme, J. Chem. Phys., 2017,
     147, 034112. DOI: 10.1063/1.4993215
   * E. Caldeweyher, S. Ehlert, A. Hansen, H. Neugebauer, S. Spicher,
     C. Bannwarth and S. Grimme, J. Chem. Phys., 2019, 150, 154122.
     DOI: 10.1063/1.5090222
   * E. Caldeweyher, J.-M. Mewes, S. Ehlert and S. Grimme, Phys. Chem. Chem. Phys.
     2020, 22, 8499-8512. DOI: 10.1039/D0CP00502A
   
   for sTDA-xTB:
   * S. Grimme and C. Bannwarth, J. Chem. Phys., 2016, 145, 054103.
     DOI: 10.1063/1.4959605
   
   in the mass-spec context:
   * V. Asgeirsson, C. Bauer and S. Grimme, Chem. Sci., 2017, 8, 4879.
     DOI: 10.1039/c7sc00601b
   * J. Koopman and S. Grimme, ACS Omega 2019, 4, 12, 15120-15133.
     DOI: 10.1021/acsomega.9b02011
   
   for metadynamics refer to:
   * S. Grimme, J. Chem. Theory Comput., 2019, 155, 2847-2862
     DOI: 10.1021/acs.jctc.9b00143
   
   for SPH calculations refer to:
   * S. Spicher and S. Grimme, J. Chem. Theory Comput., 2021, 17, 1701-1714
     DOI: 10.1021/acs.jctc.0c01306
   
   for ONIOM refer to:
   * C. Plett, A. Katbashev, S. Ehlert, S. Grimme, M. Bursch,
     Phys. Chem. Chem. Phys., 2023, 25, 17860-17868. DOI: 10.1039/D3CP02178E
   
   for DIPRO refer to:
   * J. Kohn, N. Gildemeister, S. Grimme, D. Fazzi, A. Hansen,
     J. Chem. Phys., 2023, just accepted.
   
   for PTB refer to:
   * S. Grimme, M. Mueller, A. Hansen, J. Chem. Phys., 2023, 158, 124111.
     DOI: 10.1063/5.0137838
   
   with help from (in alphabetical order)
   P. Atkinson, C. Bannwarth, F. Bohle, G. Brandenburg, E. Caldeweyher
   M. Checinski, S. Dohm, S. Ehlert, S. Ehrlich, I. Gerasimov, C. Hölzer
   A. Katbashev, J. Kohn, J. Koopman, C. Lavigne, S. Lehtola, F. März, M. Müller,
   F. Musil, H. Neugebauer, J. Pisarek, C. Plett, P. Pracht, F. Pultar,
   J. Seibert, P. Shushkov, S. Spicher, M. Stahn, M. Steiner, T. Strunk,
   J. Stückrath, T. Rose, and J. Unsleber
   
 * started run on 2025/04/15 at 19:43:59.301     
   ID    Z sym.   atoms
    1    6 C      1-3, 5
    2    8 O      4
    3    1 H      6-15

           -------------------------------------------------
          |                Calculation Setup                |
           -------------------------------------------------

          program call               : /software/projects/pawsey0265/mwang1/xtb/bin/xtb xtb_rrho.coord --gfn2 --ohess vtight --chrg 0 --enso --norestart -I rrho-xcontrol-inp --parallel 1
          hostname                   : nid002793
          coordinate file            : xtb_rrho.coord
          omp threads                :                     1


           -------------------------------------------------
          |                 G F N 2 - x T B                 |
           -------------------------------------------------

        Reference                      10.1021/acs.jctc.8b01176
      * Hamiltonian:
        H0-scaling (s, p, d)           1.850000    2.230000    2.230000
        zeta-weighting                 0.500000
      * Dispersion:
        s8                             2.700000
        a1                             0.520000
        a2                             5.000000
        s9                             5.000000
      * Repulsion:
        kExp                           1.500000    1.000000
        rExp                           1.000000
      * Coulomb:
        alpha                          2.000000
        third order                    shell-resolved
        anisotropic                    true
        a3                             3.000000
        a5                             4.000000
        cn-shift                       1.200000
        cn-exp                         4.000000
        max-rad                        5.000000


          ...................................................
          :                      SETUP                      :
          :.................................................:
          :  # basis functions                  30          :
          :  # atomic orbitals                  30          :
          :  # shells                           20          :
          :  # electrons                        32          :
          :  max. iterations                   250          :
          :  Hamiltonian                  GFN2-xTB          :
          :  restarted?                      false          :
          :  GBSA solvation                  false          :
          :  PC potential                    false          :
          :  electronic temp.          300.0000000     K    :
          :  accuracy                    1.0000000          :
          :  -> integral cutoff          0.2500000E+02      :
          :  -> integral neglect         0.1000000E-07      :
          :  -> SCF convergence          0.1000000E-05 Eh   :
          :  -> wf. convergence          0.1000000E-03 e    :
          :  Broyden damping             0.4000000          :
          :  net charge                          0          :
          :  unpaired electrons                  0          :
          ...................................................

 iter      E             dE          RMSdq      gap      omega  full diag
   1    -17.8736228 -0.178736E+02  0.363E+00   11.49       0.0  T
   2    -17.9222833 -0.486605E-01  0.185E+00   10.99       1.0  T
   3    -17.9229918 -0.708479E-03  0.853E-01   11.12       1.0  T
   4    -17.9232947 -0.302935E-03  0.157E-01   11.14       1.0  T
   5    -17.9233958 -0.101076E-03  0.730E-02   11.17       1.0  T
   6    -17.9233967 -0.927917E-06  0.727E-03   11.17       3.6  T
   7    -17.9233969 -0.141817E-06  0.331E-03   11.17       7.8  T
   8    -17.9233969 -0.618762E-08  0.774E-04   11.17      33.4  T
   9    -17.9233969 -0.817060E-09  0.246E-04   11.17     105.1  T

   *** convergence criteria satisfied after 9 iterations ***

         #    Occupation            Energy/Eh            Energy/eV
      -------------------------------------------------------------
         1        2.0000           -0.6865406             -18.6817
       ...           ...                  ...                  ...
        10        2.0000           -0.4768038             -12.9745
        11        2.0000           -0.4720096             -12.8440
        12        2.0000           -0.4630147             -12.5993
        13        2.0000           -0.4505178             -12.2592
        14        2.0000           -0.4469143             -12.1612
        15        2.0000           -0.4333431             -11.7919
        16        2.0000           -0.3938906             -10.7183 (HOMO)
        17                          0.0167230               0.4551 (LUMO)
        18                          0.0886131               2.4113
        19                          0.1005428               2.7359
        20                          0.1177559               3.2043
        21                          0.1448523               3.9416
       ...                                ...                  ...
        30                          0.2850396               7.7563
      -------------------------------------------------------------
                  HL-Gap            0.4106136 Eh           11.1734 eV
             Fermi-level           -0.1885838 Eh           -5.1316 eV

 SCC (total)                   0 d,  0 h,  0 min,  0.031 sec
 SCC setup                      ...        0 min,  0.000 sec (  0.685%)
 Dispersion                     ...        0 min,  0.000 sec (  0.366%)
 classical contributions        ...        0 min,  0.000 sec (  0.117%)
 integral evaluation            ...        0 min,  0.001 sec (  4.357%)
 iterations                     ...        0 min,  0.027 sec ( 87.330%)
 molecular gradient             ...        0 min,  0.002 sec (  6.666%)
 printout                       ...        0 min,  0.000 sec (  0.414%)

         :::::::::::::::::::::::::::::::::::::::::::::::::::::
         ::                     SUMMARY                     ::
         :::::::::::::::::::::::::::::::::::::::::::::::::::::
         :: total energy             -17.721266885792 Eh    ::
         :: gradient norm              0.022964296516 Eh/a0 ::
         :: HOMO-LUMO gap             11.173364231502 eV    ::
         ::.................................................::
         :: SCC energy               -17.923381628821 Eh    ::
         :: -> isotropic ES            0.020991718726 Eh    ::
         :: -> anisotropic ES          0.004781829929 Eh    ::
         :: -> anisotropic XC          0.005992425931 Eh    ::
         :: -> dispersion             -0.007315363314 Eh    ::
         :: repulsion energy           0.202114743029 Eh    ::
         :: add. restraining           0.000000000000 Eh    ::
         :: total charge               0.000000000000 e     ::
         :::::::::::::::::::::::::::::::::::::::::::::::::::::

      ----------------------------------------------------------- 
     |                   =====================                   |
     |                        A N C O P T                        |
     |                   =====================                   |
     |               Approximate Normal Coordinate               |
     |                Rational Function Optimizer                |
      ----------------------------------------------------------- 
      ----------------------------------------------------------- 
     |                   =====================                   |
     |                        A N C O P T                        |
     |                   =====================                   |
     |               Approximate Normal Coordinate               |
     |                Rational Function Optimizer                |
      ----------------------------------------------------------- 

          ...................................................
          :                      SETUP                      :
          :.................................................:
          :   optimization level         verytight          :
          :   max. optcycles                   300          :
          :   ANC micro-cycles                  20          :
          :   degrees of freedom                39          :
          :.................................................:
          :   RF solver                   davidson          :
          :   write xtbopt.log                true          :
          :   linear?                        false          :
          :   energy convergence         0.1000000E-06 Eh   :
          :   grad. convergence          0.2000000E-03 Eh/α :
          :   maxmium RF displ.          1.0000000          :
          :   Hlow (freq-cutoff)         0.1000000E-01      :
          :   Hmax (freq-cutoff)         5.0000000          :
          :   S6 in model hess.         20.0000000          :
          ...................................................

generating ANC from exact Hessian ...
Using Lindh-Hessian (1995)
 Shifting diagonal of input Hessian by   6.616882616955229E-003
 Lowest  eigenvalues of input Hessian
    0.000000    0.000000    0.000000    0.000000    0.000000    0.000000
    0.010000    0.013336    0.015240    0.016197    0.018319    0.021734
    0.034889    0.043322    0.058072    0.061063    0.064911    0.070810
 Highest eigenvalues
    1.110730    1.123952    1.195889    1.236257    1.302834    1.511898
 

........................................................................
.............................. CYCLE    1 ..............................
........................................................................

 iter      E             dE          RMSdq      gap      omega  full diag
   1    -17.9233969 -0.179234E+02  0.833E-05   11.17       0.0  T
   2    -17.9233969 -0.965628E-11  0.520E-05   11.17     496.2  T
   3    -17.9233969 -0.226663E-11  0.170E-05   11.17    1516.2  T
     SCC iter.                  ...        0 min,  0.001 sec
     gradient                   ...        0 min,  0.002 sec
 * total energy  :   -17.7212669 Eh     change       -0.5828937E-10 Eh
   gradient norm :     0.0229652 Eh/α   predicted     0.0000000E+00 (-100.00%)
   displ. norm   :     0.0793726 α      lambda       -0.8757324E-03
   maximum displ.:     0.0319223 α      in ANC's #3, #2, #5, ...

........................................................................
.............................. CYCLE    2 ..............................
........................................................................

 iter      E             dE          RMSdq      gap      omega  full diag
   1    -17.9299494 -0.179299E+02  0.874E-02   11.32       0.0  T
   2    -17.9299564 -0.699530E-05  0.510E-02   11.33       1.0  T
   3    -17.9299566 -0.225036E-06  0.121E-02   11.33       2.1  T
   4    -17.9299567 -0.111067E-06  0.209E-03   11.33      12.4  T
   5    -17.9299567 -0.110255E-07  0.123E-03   11.33      21.0  T
   6    -17.9299567 -0.165496E-08  0.458E-04   11.33      56.4  T
   7    -17.9299567 -0.301760E-09  0.118E-04   11.33     218.4  T
     SCC iter.                  ...        0 min,  0.001 sec
     gradient                   ...        0 min,  0.002 sec
 * total energy  :   -17.7218218 Eh     change       -0.5549279E-03 Eh
   gradient norm :     0.0088598 Eh/α   predicted    -0.4406257E-03 ( -20.60%)
   displ. norm   :     0.0511166 α      lambda       -0.1573800E-03
   maximum displ.:     0.0275657 α      in ANC's #2, #3, #12, ...

........................................................................
.............................. CYCLE    3 ..............................
........................................................................

 iter      E             dE          RMSdq      gap      omega  full diag
   1    -17.9323302 -0.179323E+02  0.391E-02   11.46       0.0  T
   2    -17.9323323 -0.211186E-05  0.237E-02   11.47       1.1  T
   3    -17.9323324 -0.633776E-07  0.677E-03   11.47       3.8  T
   4    -17.9323324 -0.253729E-07  0.103E-03   11.47      25.0  T
   5    -17.9323324 -0.597080E-08  0.425E-04   11.47      60.8  T
   6    -17.9323324 -0.414122E-09  0.199E-04   11.47     129.8  T
     SCC iter.                  ...        0 min,  0.001 sec
     gradient                   ...        0 min,  0.002 sec
 * total energy  :   -17.7219107 Eh     change       -0.8884070E-04 Eh
   gradient norm :     0.0027336 Eh/α   predicted    -0.7889471E-04 ( -11.20%)
   displ. norm   :     0.0230827 α      lambda       -0.1531925E-04
   maximum displ.:     0.0133477 α      in ANC's #2, #3, #1, ...

........................................................................
.............................. CYCLE    4 ..............................
........................................................................

 iter      E             dE          RMSdq      gap      omega  full diag
   1    -17.9320764 -0.179321E+02  0.122E-02   11.50       0.0  T
   2    -17.9320766 -0.163615E-06  0.744E-03   11.50       3.5  T
   3    -17.9320766 -0.485063E-08  0.192E-03   11.50      13.4  T
   4    -17.9320766 -0.711315E-08  0.438E-04   11.50      59.0  T
   5    -17.9320766 -0.106915E-08  0.117E-04   11.50     220.8  T
     SCC iter.                  ...        0 min,  0.001 sec
     gradient                   ...        0 min,  0.002 sec
 * total energy  :   -17.7219209 Eh     change       -0.1022614E-04 Eh
   gradient norm :     0.0009964 Eh/α   predicted    -0.7664104E-05 ( -25.05%)
   displ. norm   :     0.0268228 α      lambda       -0.4599740E-05
   maximum displ.:     0.0141277 α      in ANC's #4, #1, #2, ...

........................................................................
.............................. CYCLE    5 ..............................
........................................................................

 iter      E             dE          RMSdq      gap      omega  full diag
   1    -17.9315252 -0.179315E+02  0.124E-02   11.52       0.0  T
   2    -17.9315253 -0.872478E-07  0.753E-03   11.52       3.4  T
   3    -17.9315253 -0.476994E-09  0.148E-03   11.52      17.4  T
   4    -17.9315253 -0.962492E-08  0.395E-04   11.52      65.3  T
   5    -17.9315253 -0.582496E-09  0.131E-04   11.52     197.9  T
     SCC iter.                  ...        0 min,  0.001 sec
     gradient                   ...        0 min,  0.002 sec
 * total energy  :   -17.7219236 Eh     change       -0.2703269E-05 Eh
   gradient norm :     0.0007353 Eh/α   predicted    -0.2300586E-05 ( -14.90%)
   displ. norm   :     0.0061152 α      lambda       -0.8471769E-06
   maximum displ.:     0.0039247 α      in ANC's #4, #6, #1, ...

........................................................................
.............................. CYCLE    6 ..............................
........................................................................

 iter      E             dE          RMSdq      gap      omega  full diag
   1    -17.9316286 -0.179316E+02  0.346E-03   11.51       0.0  T
   2    -17.9316286 -0.611574E-08  0.208E-03   11.51      12.4  T
   3    -17.9316286 -0.184567E-09  0.340E-04   11.51      76.0  T
   4    -17.9316286 -0.347622E-09  0.900E-05   11.51     287.0  T
     SCC iter.                  ...        0 min,  0.001 sec
     gradient                   ...        0 min,  0.002 sec
 * total energy  :   -17.7219245 Eh     change       -0.9252096E-06 Eh
   gradient norm :     0.0002835 Eh/α   predicted    -0.4230265E-06 ( -54.28%)
   displ. norm   :     0.0146237 α      lambda       -0.7151826E-06
   maximum displ.:     0.0114478 α      in ANC's #4, #1, #6, ...

........................................................................
.............................. CYCLE    7 ..............................
........................................................................

 iter      E             dE          RMSdq      gap      omega  full diag
   1    -17.9317414 -0.179317E+02  0.573E-03   11.51       0.0  T
   2    -17.9317414 -0.557136E-08  0.350E-03   11.51       7.4  T
   3    -17.9317414 -0.381707E-09  0.342E-04   11.51      75.4  T
   4    -17.9317414 -0.651575E-09  0.123E-04   11.51     210.7  T
     SCC iter.                  ...        0 min,  0.001 sec
     gradient                   ...        0 min,  0.002 sec
 * total energy  :   -17.7219252 Eh     change       -0.6801672E-06 Eh
   gradient norm :     0.0001373 Eh/α   predicted    -0.3558627E-06 ( -47.68%)
   displ. norm   :     0.0089941 α      lambda       -0.2027471E-06
   maximum displ.:     0.0072448 α      in ANC's #4, #1, #6, ...

........................................................................
.............................. CYCLE    8 ..............................
........................................................................

 iter      E             dE          RMSdq      gap      omega  full diag
   1    -17.9317267 -0.179317E+02  0.292E-03   11.51       0.0  T
   2    -17.9317267 -0.727098E-09  0.178E-03   11.51      14.5  T
   3    -17.9317267 -0.976819E-10  0.142E-04   11.51     182.3  T
   4    -17.9317267 -0.125450E-09  0.617E-05   11.51     418.7  T
     SCC iter.                  ...        0 min,  0.001 sec
     gradient                   ...        0 min,  0.002 sec
 * total energy  :   -17.7219254 Eh     change       -0.2311579E-06 Eh
   gradient norm :     0.0001243 Eh/α   predicted    -0.1005909E-06 ( -56.48%)
   displ. norm   :     0.0077429 α      lambda       -0.1501974E-06
   maximum displ.:     0.0057603 α      in ANC's #4, #1, #2, ...

........................................................................
.............................. CYCLE    9 ..............................
........................................................................

 iter      E             dE          RMSdq      gap      omega  full diag
   1    -17.9317145 -0.179317E+02  0.215E-03   11.51       0.0  T
   2    -17.9317145 -0.378151E-09  0.130E-03   11.51      19.9  T
   3    -17.9317145 -0.193445E-10  0.908E-05   11.51     284.2  T
   4    -17.9317145 -0.630891E-10  0.348E-05   11.51     742.5  T
     SCC iter.                  ...        0 min,  0.001 sec
     gradient                   ...        0 min,  0.002 sec
 * total energy  :   -17.7219256 Eh     change       -0.1840595E-06 Eh
   gradient norm :     0.0000722 Eh/α   predicted    -0.7684034E-07 ( -58.25%)
   displ. norm   :     0.0104210 α      lambda       -0.1511064E-06
   maximum displ.:     0.0070729 α      in ANC's #4, #1, #2, ...

........................................................................
.............................. CYCLE   10 ..............................
........................................................................

 iter      E             dE          RMSdq      gap      omega  full diag
   1    -17.9316991 -0.179317E+02  0.272E-03   11.51       0.0  T
   2    -17.9316991 -0.381423E-09  0.164E-03   11.51      15.7  T
   3    -17.9316991 -0.808846E-10  0.672E-05   11.51     384.5  T
   4    -17.9316991 -0.108074E-10  0.257E-05   11.51    1003.8  T
     SCC iter.                  ...        0 min,  0.001 sec
     gradient                   ...        0 min,  0.002 sec
 * total energy  :   -17.7219258 Eh     change       -0.1551954E-06 Eh
   gradient norm :     0.0000589 Eh/α   predicted    -0.7558452E-07 ( -51.30%)
   displ. norm   :     0.0065974 α      lambda       -0.4622294E-07
   maximum displ.:     0.0043270 α      in ANC's #4, #2, #1, ...

........................................................................
.............................. CYCLE   11 ..............................
........................................................................

 iter      E             dE          RMSdq      gap      omega  full diag
   1    -17.9316987 -0.179317E+02  0.175E-03   11.51       0.0  T
   2    -17.9316987 -0.755769E-10  0.105E-03   11.51      24.5  T
   3    -17.9316987 -0.327383E-10  0.346E-05   11.51     746.3  T
   4    -17.9316987 -0.742517E-12  0.122E-05   11.51    2117.1  T
     SCC iter.                  ...        0 min,  0.001 sec
     gradient                   ...        0 min,  0.002 sec
 * total energy  :   -17.7219258 Eh     change       -0.3854535E-07 Eh
   gradient norm :     0.0000301 Eh/α   predicted    -0.2264420E-07 ( -41.25%)
   displ. norm   :     0.0012747 α      lambda       -0.4047838E-08
   maximum displ.:     0.0007586 α      in ANC's #4, #2, #1, ...

   *** GEOMETRY OPTIMIZATION CONVERGED AFTER 11 ITERATIONS ***

------------------------------------------------------------------------
 total energy gain   :        -0.0006589 Eh       -0.4135 kcal/mol
 total RMSD          :         0.0467909 a0        0.0248 Å
 total power (kW/mol):        -0.1572704 (step)  -37.7345 (real)
------------------------------------------------------------------------

 ANCopt (total)                0 d,  0 h,  0 min,  0.046 sec
 optimizer setup                ...        0 min,  0.000 sec (  0.979%)
 model hessian                  ...        0 min,  0.003 sec (  7.625%)
 ANC generation                 ...        0 min,  0.000 sec (  0.569%)
 coordinate transformation      ...        0 min,  0.000 sec (  0.134%)
 single point calculation       ...        0 min,  0.039 sec ( 85.310%)
 optimization log               ...        0 min,  0.001 sec (  2.386%)
 hessian update                 ...        0 min,  0.000 sec (  0.124%)
 rational function              ...        0 min,  0.001 sec (  2.010%)

================
 final structure:
================
$coord
        3.03444057362942       -1.70682333587420       -0.01418167355830      C
        0.81657335249678        0.02113431467137        0.62381659655883      C
        1.35482788806021        2.73663502308760       -0.21721589512656      C
       -1.33293731825851       -1.02116506506933       -0.59133385855137      O
       -3.66349038576465       -0.05309590575333        0.21495294838631      C
        2.60594051338876       -3.63149983681629        0.55717041915355      H
        3.35982993963341       -1.68746851483101       -2.04115482511364      H
        4.73172355538879       -1.07577823209991        0.95266148647269      H
        0.49681676780119        0.00435907943384        2.68706648555499      H
       -0.15163536289875        4.00757320901775        0.36357134575078      H
        1.52704232441146        2.80480640069739       -2.26370621567483      H
        3.11091415698337        3.38712681409488        0.62457244430931      H
       -3.94652604753634        1.91073510571671       -0.37976804593548      H
       -3.84799557032696       -0.15715484015974        2.27894746699642      H
       -5.10960127752553       -1.22919039971528       -0.65635314268658      H
$end
 
 Bond Distances (Angstroems)
 ---------------------------
C1-C2=1.5256         C1-H6=1.0864         C1-H7=1.0864         C1-H8=1.0863         C2-C1=1.5256         C2-C3=1.5311         
C2-O4=1.4183         C2-H9=1.1049         C3-C2=1.5311         C3-H10=1.0873        C3-H11=1.0874        C3-H12=1.0865        
O4-C2=1.4183         O4-C5=1.4019         C5-O4=1.4019         C5-H13=1.0961        C5-H14=1.0980        C5-H15=1.0888        
H6-C1=1.0864         H7-C1=1.0864         H8-C1=1.0863         H9-C2=1.1049         H10-C3=1.0873        H11-C3=1.0874        
H12-C3=1.0865        H13-C5=1.0961        H14-C5=1.0980        H15-C5=1.0888        
 C  H  Rav=1.0908 sigma=0.0062  Rmin=1.0863  Rmax=1.1049    10
 C  C  Rav=1.5283 sigma=0.0027  Rmin=1.5256  Rmax=1.5311     2
 O  C  Rav=1.4101 sigma=0.0082  Rmin=1.4019  Rmax=1.4183     2
 
 selected bond angles (degree)
 --------------------
H6-C1-C2=109.86                H7-C1-C2=109.56                H7-C1-H6=108.46                H8-C1-C2=110.34                
H8-C1-H6=109.25                H8-C1-H7=109.33                C3-C2-C1=110.80                O4-C2-C1=106.47                
O4-C2-C3=112.48                H9-C2-C1=109.37                H9-C2-C3=108.86                H9-C2-O4=108.79                
H10-C3-C2=111.22               H11-C3-C2=109.65               H11-C3-H10=108.81              H12-C3-C2=109.71               
H12-C3-H10=108.37              H12-C3-H11=109.03              C5-O4-C2=115.18                H13-C5-O4=112.29               
H14-C5-O4=111.26               H14-C5-H13=108.72              H15-C5-O4=106.29               H15-C5-H13=108.92              
H15-C5-H14=109.27              
 
 selected dihedral angles (degree)
 ---------------------------------
C3-C2-C1-H6=181.22            C3-C2-C1-H7=300.28            C3-C2-C1-H8= 60.71            O4-C2-C1-H6=303.83            
O4-C2-C1-H7= 62.89            O4-C2-C1-H8=183.32            H9-C2-C1-H6= 61.22            H9-C2-C1-H7=180.28            
H9-C2-C1-H8=300.70            H10-C3-C2-C1=184.50           H10-C3-C2-O4= 65.46           H10-C3-C2-H9=304.82           
H11-C3-C2-C1= 64.11           H11-C3-C2-O4=305.07           H11-C3-C2-H9=184.42           H12-C3-C2-C1=304.39           
H12-C3-C2-O4=185.35           H12-C3-C2-H9= 64.70           C5-O4-C2-C1=166.11            C5-O4-C2-C3=287.65            
C5-O4-C2-H9= 48.34            H13-C5-O4-C2= 69.72           H14-C5-O4-C2=307.59           H15-C5-O4-C2=188.73           
           -------------------------------------------------
          |                Final Singlepoint                |
           -------------------------------------------------

          ...................................................
          :                      SETUP                      :
          :.................................................:
          :  # basis functions                  30          :
          :  # atomic orbitals                  30          :
          :  # shells                           20          :
          :  # electrons                        32          :
          :  max. iterations                   250          :
          :  Hamiltonian                  GFN2-xTB          :
          :  restarted?                      false          :
          :  GBSA solvation                  false          :
          :  PC potential                    false          :
          :  electronic temp.          300.0000000     K    :
          :  accuracy                    1.0000000          :
          :  -> integral cutoff          0.2500000E+02      :
          :  -> integral neglect         0.1000000E-07      :
          :  -> SCF convergence          0.1000000E-05 Eh   :
          :  -> wf. convergence          0.1000000E-03 e    :
          :  Broyden damping             0.4000000          :
          :  net charge                          0          :
          :  unpaired electrons                  0          :
          ...................................................

 iter      E             dE          RMSdq      gap      omega  full diag
   1    -17.9316987 -0.179317E+02  0.280E-06   11.51       0.0  T
   2    -17.9316987 -0.213163E-13  0.147E-06   11.51   17510.6  T
   3    -17.9316987  0.213163E-13  0.584E-07   11.51   44226.3  T

   *** convergence criteria satisfied after 3 iterations ***

         #    Occupation            Energy/Eh            Energy/eV
      -------------------------------------------------------------
         1        2.0000           -0.6898988             -18.7731
       ...           ...                  ...                  ...
        10        2.0000           -0.4780411             -13.0082
        11        2.0000           -0.4718122             -12.8387
        12        2.0000           -0.4636003             -12.6152
        13        2.0000           -0.4502456             -12.2518
        14        2.0000           -0.4471789             -12.1684
        15        2.0000           -0.4322972             -11.7634
        16        2.0000           -0.3927675             -10.6877 (HOMO)
        17                          0.0302142               0.8222 (LUMO)
        18                          0.0952659               2.5923
        19                          0.1077936               2.9332
        20                          0.1213999               3.3035
        21                          0.1502311               4.0880
       ...                                ...                  ...
        30                          0.2974651               8.0944
      -------------------------------------------------------------
                  HL-Gap            0.4229817 Eh           11.5099 eV
             Fermi-level           -0.1812766 Eh           -4.9328 eV

 SCC (total)                   0 d,  0 h,  0 min,  0.003 sec
 SCC setup                      ...        0 min,  0.000 sec (  2.432%)
 Dispersion                     ...        0 min,  0.000 sec (  0.923%)
 classical contributions        ...        0 min,  0.000 sec (  0.379%)
 integral evaluation            ...        0 min,  0.001 sec ( 21.990%)
 iterations                     ...        0 min,  0.001 sec ( 15.975%)
 molecular gradient             ...        0 min,  0.002 sec ( 55.043%)
 printout                       ...        0 min,  0.000 sec (  2.776%)

         :::::::::::::::::::::::::::::::::::::::::::::::::::::
         ::                     SUMMARY                     ::
         :::::::::::::::::::::::::::::::::::::::::::::::::::::
         :: total energy             -17.721925798222 Eh    ::
         :: gradient norm              0.000030096506 Eh/a0 ::
         :: HOMO-LUMO gap             11.509918899210 eV    ::
         ::.................................................::
         :: SCC energy               -17.931683466839 Eh    ::
         :: -> isotropic ES            0.020608759966 Eh    ::
         :: -> anisotropic ES          0.004377260998 Eh    ::
         :: -> anisotropic XC          0.005524544573 Eh    ::
         :: -> dispersion             -0.007322346717 Eh    ::
         :: repulsion energy           0.209757668617 Eh    ::
         :: add. restraining           0.000000000000 Eh    ::
         :: total charge               0.000000000000 e     ::
         :::::::::::::::::::::::::::::::::::::::::::::::::::::

           ------------------------------------------------- 
          |                Numerical Hessian                |
           ------------------------------------------------- 
step length          :   0.00500
SCC accuracy         :   0.30000
Hessian scale factor :   1.00000
frozen atoms in %    :   0.00000    0
RMS gradient         :   0.00003
estimated CPU  time      0.01 min
estimated wall time      0.01 min

writing file <hessian>.

 projected vibrational frequencies (cm⁻¹)
eigval :       -0.00    -0.00    -0.00     0.00     0.00     0.00
eigval :       77.93   165.53   188.42   230.30   285.80   352.88
eigval :      444.48   495.17   844.63   936.09   942.89   968.67
eigval :     1085.44  1117.22  1133.27  1140.90  1171.89  1204.01
eigval :     1318.43  1331.57  1391.92  1404.60  1409.02  1472.50
eigval :     1474.64  1485.02  1492.07  1497.44  1502.91  2808.78
eigval :     2890.88  2919.37  3019.87  3035.96  3042.08  3043.92
eigval :     3048.59  3050.28  3053.60
           -------------------------------------------------
          |                Property Printout                |
           -------------------------------------------------

    * Orbital Energies and Occupations

         #    Occupation            Energy/Eh            Energy/eV
      -------------------------------------------------------------
         1        2.0000           -0.6898988             -18.7731
       ...           ...                  ...                  ...
         4        2.0000           -0.5918179             -16.1042
         5        2.0000           -0.5766702             -15.6920
         6        2.0000           -0.5464996             -14.8710
         7        2.0000           -0.5292908             -14.4027
         8        2.0000           -0.5247470             -14.2791
         9        2.0000           -0.4988489             -13.5744
        10        2.0000           -0.4780411             -13.0082
        11        2.0000           -0.4718122             -12.8387
        12        2.0000           -0.4636003             -12.6152
        13        2.0000           -0.4502456             -12.2518
        14        2.0000           -0.4471789             -12.1684
        15        2.0000           -0.4322972             -11.7634
        16        2.0000           -0.3927675             -10.6877 (HOMO)
        17                          0.0302142               0.8222 (LUMO)
        18                          0.0952659               2.5923
        19                          0.1077936               2.9332
        20                          0.1213999               3.3035
        21                          0.1502311               4.0880
        22                          0.1564028               4.2559
        23                          0.1706758               4.6443
        24                          0.1913569               5.2071
        25                          0.2120313               5.7697
        26                          0.2238995               6.0926
        27                          0.2345177               6.3816
       ...                                ...                  ...
        30                          0.2974651               8.0944
      -------------------------------------------------------------
                  HL-Gap            0.4229817 Eh           11.5099 eV
             Fermi-level           -0.1812766 Eh           -4.9328 eV

     #   Z          covCN         q      C6AA      α(0)
     1   6 C        3.754    -0.115    22.751     6.801
     2   6 C        3.742     0.123    18.644     6.160
     3   6 C        3.752    -0.116    22.789     6.808
     4   8 O        1.701    -0.320    19.351     5.939
     5   6 C        3.644     0.045    20.152     6.453
     6   1 H        0.925     0.051     2.301     2.372
     7   1 H        0.925     0.054     2.273     2.358
     8   1 H        0.925     0.041     2.430     2.438
     9   1 H        0.922     0.010     2.894     2.660
    10   1 H        0.925     0.037     2.491     2.468
    11   1 H        0.925     0.048     2.343     2.393
    12   1 H        0.925     0.039     2.465     2.455
    13   1 H        0.924     0.026     2.637     2.539
    14   1 H        0.923     0.023     2.693     2.566
    15   1 H        0.925     0.054     2.276     2.359

 Mol. C6AA /au·bohr⁶  :       1474.670243
 Mol. C8AA /au·bohr⁸  :      29867.953358
 Mol. α(0) /au        :         56.771078


Wiberg/Mayer (AO) data.
largest (>0.10) Wiberg bond orders for each atom

 ---------------------------------------------------------------------------
     #   Z sym  total        # sym  WBO       # sym  WBO       # sym  WBO
 ---------------------------------------------------------------------------
     1   6 C    3.994 --     2 C    1.004     8 H    0.986     6 H    0.986
                             7 H    0.985
     2   6 C    3.953 --     1 C    1.004     3 C    0.998     4 O    0.969
                             9 H    0.960
     3   6 C    3.996 --     2 C    0.998    11 H    0.986    12 H    0.986
                            10 H    0.985
     4   8 O    2.073 --     5 C    1.002     2 C    0.969
     5   6 C    3.958 --     4 O    1.002    15 H    0.980    13 H    0.976
                            14 H    0.976
     6   1 H    0.997 --     1 C    0.986
     7   1 H    0.997 --     1 C    0.985
     8   1 H    0.998 --     1 C    0.986
     9   1 H    1.000 --     2 C    0.960
    10   1 H    0.999 --     3 C    0.985
    11   1 H    0.998 --     3 C    0.986
    12   1 H    0.998 --     3 C    0.986
    13   1 H    0.999 --     5 C    0.976
    14   1 H    0.999 --     5 C    0.976
    15   1 H    0.997 --     5 C    0.980
 ---------------------------------------------------------------------------

Topologies differ in total number of bonds
Writing topology from bond orders to xtbtopo.mol

molecular dipole:
                 x           y           z       tot (Debye)
 q only:        0.095       0.277       0.223
   full:        0.039       0.421       0.364       1.419
molecular quadrupole (traceless):
                xx          xy          yy          xz          yz          zz
 q only:        2.558      -0.785      -1.098      -0.531      -0.362      -1.460
  q+dip:        1.437      -0.570      -1.273      -0.638      -0.855      -0.164
   full:        2.178      -0.761      -1.370      -0.671      -0.660      -0.808

           -------------------------------------------------
          |                Geometry Summary                 |
           -------------------------------------------------

      molecular mass/u    :       74.1217560
   center of mass at/Å    :       -0.0000205       0.0001057      -0.0001866
  moments of inertia/u·Å² :        0.6594816E+02   0.1332883E+03   0.1792968E+03
rotational constants/cm⁻¹ :        0.2556194E+00   0.1264749E+00   0.9402085E-01

 * 14 selected distances

     #   Z          #   Z                                           value/Å
     1   6 C        2   6 C                                       1.5256296
     2   6 C        3   6 C                                       1.5310514 (max)
     2   6 C        4   8 O                                       1.4182913
     4   8 O        5   6 C                                       1.4019437
     1   6 C        6   1 H                                       1.0863527
     1   6 C        7   1 H                                       1.0864092
     1   6 C        8   1 H                                       1.0862674 (min)
     2   6 C        9   1 H                                       1.1048945
     3   6 C       10   1 H                                       1.0873311
     3   6 C       11   1 H                                       1.0873824
     3   6 C       12   1 H                                       1.0865011
     5   6 C       13   1 H                                       1.0961041
     5   6 C       14   1 H                                       1.0979559
     5   6 C       15   1 H                                       1.0888212

 * 3 distinct bonds (by element types)

   Z      Z             #   av. dist./Å        max./Å        min./Å
   1 H    6 C          10     1.0908020     1.1048945     1.0862674
   6 C    6 C           2     1.5283405     1.5310514     1.5256296
   6 C    8 O           2     1.4101175     1.4182913     1.4019437

           -------------------------------------------------
          |               Frequency Printout                |
           -------------------------------------------------
 projected vibrational frequencies (cm⁻¹)
eigval :       -0.00    -0.00    -0.00     0.00     0.00     0.00
eigval :       77.93   165.53   188.42   230.30   285.80   352.88
eigval :      444.48   495.17   844.63   936.09   942.89   968.67
eigval :     1085.44  1117.22  1133.27  1140.90  1171.89  1204.01
eigval :     1318.43  1331.57  1391.92  1404.60  1409.02  1472.50
eigval :     1474.64  1485.02  1492.07  1497.44  1502.91  2808.78
eigval :     2890.88  2919.37  3019.87  3035.96  3042.08  3043.92
eigval :     3048.59  3050.28  3053.60
 reduced masses (amu)
   1:  9.65   2: 11.30   3:  9.17   4: 10.79   5:  9.69   6: 10.66   7:  7.24   8:  1.43
   9:  1.71  10:  3.99  11:  9.05  12:  8.17  13:  9.92  14:  8.69  15:  8.80  16:  3.72
  17:  6.61  18:  4.31  19: 10.24  20:  6.76  21:  4.71  22:  7.37  23:  7.52  24:  7.59
  25:  4.64  26:  3.07  27:  3.40  28:  3.16  29:  2.51  30:  1.57  31:  1.57  32:  1.57
  33:  1.57  34:  1.58  35:  1.55  36:  1.71  37:  1.87  38:  1.50  39:  1.68  40:  1.92
  41:  1.69  42:  1.61  43:  1.60  44:  1.89  45:  1.60
 IR intensities (km·mol⁻¹)
   1:  0.68   2:  0.07   3:  0.56   4:  0.08   5:  0.13   6:  0.29   7:  4.34   8:  0.06
   9:  1.26  10:  2.62  11:  3.22  12:  0.59  13:  5.88  14:  0.14  15:  8.67  16:  1.96
  17:  9.40  18:  1.02  19: 40.76  20: 29.87  21:  0.36  22: 39.93  23: 52.35  24: 30.31
  25: 15.57  26: 28.46  27: 10.49  28:  9.12  29:  0.28  30:  2.36  31:  2.90  32:  2.40
  33:  0.55  34:  3.83  35:  2.98  36: 85.41  37: 63.68  38: 51.83  39: 21.96  40: 29.28
  41: 13.37  42:  8.90  43: 49.87  44: 40.06  45: 29.61
 Raman intensities (Ä⁴*amu⁻¹)
   1:  0.00   2:  0.00   3:  0.00   4:  0.00   5:  0.00   6:  0.00   7:  0.00   8:  0.00
   9:  0.00  10:  0.00  11:  0.00  12:  0.00  13:  0.00  14:  0.00  15:  0.00  16:  0.00
  17:  0.00  18:  0.00  19:  0.00  20:  0.00  21:  0.00  22:  0.00  23:  0.00  24:  0.00
  25:  0.00  26:  0.00  27:  0.00  28:  0.00  29:  0.00  30:  0.00  31:  0.00  32:  0.00
  33:  0.00  34:  0.00  35:  0.00  36:  0.00  37:  0.00  38:  0.00  39:  0.00  40:  0.00
  41:  0.00  42:  0.00  43:  0.00  44:  0.00  45:  0.00
 output can be read by thermo (or use thermo option).
 writing <g98.out> molden fake output.
 recommended (thermochemical) frequency scaling factor: 1.0
           -------------------------------------------------
          |             Thermodynamic Functions             |
           -------------------------------------------------

Molecule has no symmetry elements
It seems to be the C1 point group
c1  symmetry found (for desy threshold:  0.10E+00) used in thermo

          ...................................................
          :                      SETUP                      :
          :.................................................:
          :  # frequencies                          39      :
          :  # imaginary freq.                       0      :
          :  linear?                             false      :
          :  only rotor calc.                    false      :
          :  symmetry                               c1      :
          :  rotational number                       1      :
          :  scaling factor                  1.0000000      :
          :  rotor cutoff                    0.0000000 cm⁻¹ :
          :  imag. cutoff                 -100.0000000 cm⁻¹ :
          :.................................................:

    mode    ω/cm⁻¹     T·S(HO)/kcal·mol⁻¹    T·S(FR)/kcal·mol⁻¹   T·S(vib)
   ------------------------------------------------------------------------
       1     77.93    -1.17539 (100.00%)    -0.92457 (  0.00%)    -1.17539
       2    165.53    -0.74111 (100.00%)    -0.70168 (  0.00%)    -0.74111
       3    188.42    -0.66883 (100.00%)    -0.66332 (  0.00%)    -0.66883
       4    230.30    -0.55951 (100.00%)    -0.60391 (  0.00%)    -0.55951
       5    285.80    -0.44684 (100.00%)    -0.53998 (  0.00%)    -0.44684
   ------------------------------------------------------------------------

   temp. (K)  partition function   enthalpy   heat capacity  entropy
                                   cal/mol     cal/K/mol   cal/K/mol   J/K/mol
 298.15  VIB   32.1                 2625.253     17.837     15.698
         ROT  0.959E+05              888.752      2.981     25.777
         INT  0.308E+07             3514.006     20.818     41.475
         TR   0.617E+27             1481.254      4.968     38.808
         TOT                        4995.2595    25.7858    80.2825   335.9020

       T/K    H(0)-H(T)+PV         H(T)/Eh          T*S/Eh         G(T)/Eh
   ------------------------------------------------------------------------
    298.15    0.796045E-02    0.141185E+00    0.381448E-01    0.103040E+00
   ------------------------------------------------------------------------

         :::::::::::::::::::::::::::::::::::::::::::::::::::::
         ::                  THERMODYNAMIC                  ::
         :::::::::::::::::::::::::::::::::::::::::::::::::::::
         :: total free energy         -17.618885380113 Eh   ::
         ::.................................................::
         :: total energy              -17.721925798222 Eh   ::
         :: zero point energy           0.133224771520 Eh   ::
         :: G(RRHO) w/o ZPVE           -0.030184353411 Eh   ::
         :: G(RRHO) contrib.            0.103040418109 Eh   ::
         :::::::::::::::::::::::::::::::::::::::::::::::::::::

optimized geometry written to: xtbopt.coord


           -------------------------------------------------
          | TOTAL ENERGY              -17.721925798222 Eh   |
          | TOTAL ENTHALPY            -17.580740573906 Eh   |
          | TOTAL FREE ENERGY         -17.618885380113 Eh   |
          | GRADIENT NORM               0.000030088702 Eh/α |
          | HOMO-LUMO GAP              11.509918903077 eV   |
           -------------------------------------------------

------------------------------------------------------------------------
 * finished run on 2025/04/15 at 19:43:59.934     
------------------------------------------------------------------------
 total:
 * wall-time:     0 d,  0 h,  0 min,  0.632 sec
 *  cpu-time:     0 d,  0 h,  0 min,  0.398 sec
 * ratio c/w:     0.630 speedup
 SCF:
 * wall-time:     0 d,  0 h,  0 min,  0.031 sec
 *  cpu-time:     0 d,  0 h,  0 min,  0.013 sec
 * ratio c/w:     0.409 speedup
 ANC optimizer:
 * wall-time:     0 d,  0 h,  0 min,  0.052 sec
 *  cpu-time:     0 d,  0 h,  0 min,  0.050 sec
 * ratio c/w:     0.962 speedup
 analytical hessian:
 * wall-time:     0 d,  0 h,  0 min,  0.324 sec
 *  cpu-time:     0 d,  0 h,  0 min,  0.323 sec
 * ratio c/w:     0.999 speedup

