24
 energy: -32.434357290398 gnorm: 0.029025940107 xtb: 6.7.1 (edcfbbe)
C           -3.05183062539439        0.82062486523298        0.51234359943440
O           -1.85426701132305        0.75532493819451       -0.28783701534895
C           -1.09818156670080       -0.35290140571260       -0.08958306644119
O           -1.40223843692618       -1.22093989715829        0.69610965983305
C            0.11627705444455       -0.37248014352718       -1.00516339630222
C            1.12110179118696       -1.43754360748283       -0.54781617581251
C            1.83127934462954       -1.02896454306946        0.74616535429706
C            2.49309756113742        0.34469348392228        0.61389308448722
C            1.47937663166614        1.40436733767433        0.17528269289237
C            0.79574219125068        1.00196896252248       -1.13273923889391
H           -3.71375760645547       -0.01769282330657        0.27856448886173
H           -3.52396759384405        1.76855183784591        0.25404455127009
H           -2.80197652153112        0.78990455173634        1.57629909251579
H           -0.28533660849107       -0.65372525238827       -1.99036057969140
H            0.61146348518357       -2.39596451147965       -0.41438753737717
H            1.86379993739078       -1.56600017437775       -1.34631417443208
H            1.09946385090826       -1.00663723491579        1.56304412927956
H            2.57713955264352       -1.78676500920121        1.01165095910136
H            2.95867657589842        0.63390017149519        1.56308163151219
H            3.29908083345475        0.29045975829705       -0.13200374943589
H            0.71858882891533        1.53067686587168        0.95954211085730
H            1.96925028834912        2.37748012853314        0.05556798923266
H            0.07095864634338        1.75836615084540       -1.44375330608064
H            1.55214416891063        0.93001613901203       -1.92553699717257
24
 energy: -32.435422730866 gnorm: 0.010027984558 xtb: 6.7.1 (edcfbbe)
C           -3.04251072698736        0.82177513388667        0.50693651148826
O           -1.85016164783778        0.74908272169269       -0.27909960502378
C           -1.08970791102094       -0.34582102170512       -0.07939035806888
O           -1.39131072491661       -1.21079932826971        0.69961388516300
C            0.11705653577055       -0.37163397173227       -1.00104878282039
C            1.12728978137887       -1.43097240031042       -0.55242889251525
C            1.82167120684775       -1.02264011050664        0.74445526775623
C            2.48879546904595        0.34214017392692        0.60304695070158
C            1.47037260017579        1.39669126757302        0.18015747937405
C            0.79705161152763        0.99621624041973       -1.12860989816091
H           -3.69829897416700       -0.01813356530249        0.27193296691418
H           -3.51541384211030        1.76591310164232        0.24725356060755
H           -2.79334298225085        0.79145498604286        1.56880647578126
H           -0.28398597669924       -0.65268976095916       -1.98459489480394
H            0.61281434630675       -2.38248767527926       -0.40696673955553
H            1.87229813651531       -1.56266404788418       -1.34337912712894
H            1.08614861922235       -0.99302873482323        1.55274520762329
H            2.56944983063522       -1.77558161650171        1.00657739154989
H            2.94650252431032        0.62964896827770        1.55305708687936
H            3.28712479127045        0.28586809311185       -0.14487388099261
H            0.71234668379965        1.51086725479429        0.96211357269113
H            1.96477966607915        2.36408004424449        0.05659393060186
H            0.06478449525695        1.74886150793376       -1.42416066949693
H            1.55213125949430        0.93057332829160       -1.91864333197822
24
 energy: -32.435580102248 gnorm: 0.004048056615 xtb: 6.7.1 (edcfbbe)
C           -3.03014686006626        0.82266854987772        0.50268110637528
O           -1.84364897651029        0.74320454422576       -0.27815886754560
C           -1.08583295276909       -0.34773951850618       -0.08080223556759
O           -1.37923184759879       -1.20681727704210        0.70659123372511
C            0.11908850070068       -0.37203999801438       -1.00316480499830
C            1.12707416874978       -1.43132897484625       -0.55270099271090
C            1.81792369724932       -1.02132094276224        0.74417470474702
C            2.48537753336027        0.34194261542420        0.60161352333960
C            1.46487612741527        1.39437097800314        0.18215942074764
C            0.79284999307315        0.99723858388044       -1.12749348390607
H           -3.68847824586546       -0.01577085114953        0.27036857231635
H           -3.50276229608582        1.76547863893972        0.24213945866939
H           -2.78498211672837        0.79369828416789        1.56535295744027
H           -0.28264270510869       -0.65408920802848       -1.98528622231168
H            0.61092187358306       -2.38091670691815       -0.40510809393708
H            1.87314999141068       -1.56224447384749       -1.33938344646089
H            1.07860713947061       -0.98558052702336        1.54555051307448
H            2.56367185211095       -1.77321867961383        1.01001547524461
H            2.94537236154341        0.62887870467201        1.54939506743770
H            3.27610418983082        0.28439330995988       -0.15053092317483
H            0.70813255956129        1.49800929159066        0.96281434126388
H            1.95673372090515        2.36200550527738        0.06106154731296
H            0.05582894850437        1.74730229366703       -1.41606639598352
H            1.54789811491086        0.93859644662991       -1.91512834851157
24
 energy: -32.435612635828 gnorm: 0.001274563800 xtb: 6.7.1 (edcfbbe)
C           -3.02427482524878        0.82354610075481        0.49976957569039
O           -1.84074855559102        0.73986458319580       -0.28017007893113
C           -1.08166957472951       -0.34740745295639       -0.07875659709533
O           -1.37224448607333       -1.20525324702541        0.71248012421131
C            0.12049256313448       -0.37343709981594       -1.00513548626395
C            1.12832075612152       -1.43270725179730       -0.55393694503703
C            1.81611958403620       -1.02151795093235        0.74479412502779
C            2.48427492440011        0.34164890134714        0.60008197926789
C            1.46110197137488        1.39373103092058        0.18458210162070
C            0.79075749747678        0.99778385658522       -1.12707157441832
H           -3.68597128857761       -0.01447057033562        0.27252865595548
H           -3.49683746890008        1.76603895179413        0.23736355985042
H           -2.78088724945557        0.79801991175648        1.56359284637651
H           -0.28207680651134       -0.65518998961544       -1.98698049898189
H            0.61116563223910       -2.38171060381934       -0.40670049775844
H            1.87532177205232       -1.56387938785685       -1.33919281153795
H            1.07415627361434       -0.98287787116369        1.54317947854866
H            2.55994674761543       -1.77351924580460        1.01483540378737
H            2.94784994660050        0.62858573332076        1.54590804977961
H            3.27139951560407        0.28400878107948       -0.15540030291829
H            0.70394426134403        1.49144734118837        0.96513918738073
H            1.94945431464068        2.36336098078532        0.06695314513899
H            0.05090941891555        1.74607192432988       -1.41278710702577
H            1.54537984756416        0.94458316262875       -1.91498222608151
24
 energy: -32.435626062811 gnorm: 0.002411363142 xtb: 6.7.1 (edcfbbe)
C           -3.01935508070611        0.82611377338211        0.49725043038421
O           -1.84110832554678        0.73427101812066       -0.28700035202494
C           -1.08021764380755       -0.34976148933098       -0.08016465036748
O           -1.36401821188997       -1.20239589327611        0.72067194082302
C            0.12225422789232       -0.37608446626157       -1.00731526523848
C            1.13113969625315       -1.43457419370914       -0.55545733302894
C            1.81516890346833       -1.02200924390782        0.74559937869114
C            2.48336288885842        0.34146083097482        0.59872813232589
C            1.45601269174422        1.39226440240090        0.18817143535908
C            0.78827605969732        0.99824189369057       -1.12638802882387
H           -3.68671009262463       -0.01117748577450        0.27970529753203
H           -3.49120919040266        1.76875123485885        0.23161877649293
H           -2.77359649397449        0.80669108666610        1.56153963892590
H           -0.27950235756432       -0.65739324338221       -1.98955802040723
H            0.61424777740582       -2.38418821474201       -0.41048969882938
H            1.88033340286938       -1.56514609249267       -1.33912860247704
H            1.06980513787180       -0.98110243435487        1.54102893893237
H            2.55697304553207       -1.77411901805754        1.02121556184478
H            2.95316518784164        0.62848389599978        1.54165251519274
H            3.26599120238032        0.28441068216713       -0.16198440407768
H            0.69732899831645        1.48227477844148        0.96884315765030
H            1.93881892341524        2.36554865314711        0.07655242563401
H            0.04527093074599        1.74410011111634       -1.41052750349560
H            1.54345309387094        0.95206000288739       -1.91446966443150
24
 energy: -32.435631306918 gnorm: 0.001408331836 xtb: 6.7.1 (edcfbbe)
C           -3.02016454754926        0.82657900155709        0.49690673698955
O           -1.84282471986818        0.73296140918556       -0.28954706442007
C           -1.07989780156155       -0.34957050315718       -0.07962039614898
O           -1.36334463971366       -1.20128947901203        0.72177718118893
C            0.12224215377694       -0.37649166006745       -1.00735739862810
C            1.13142320266065       -1.43466435928324       -0.55542937399789
C            1.81576910787672       -1.02223833986958        0.74535360419187
C            2.48323666243187        0.34143085512352        0.59868771408257
C            1.45546114548030        1.39178210126890        0.18878999583735
C            0.78810893884995        0.99807109487086       -1.12584357135867
H           -3.68803775700760       -0.01084729633713        0.28220163700279
H           -3.49188001255188        1.76897780541312        0.23010562361629
H           -2.77163443415664        0.80938704749215        1.56049767279314
H           -0.27919943390337       -0.65740778561957       -1.98986473042006
H            0.61550396868354       -2.38496529002146       -0.41106259908555
H            1.88073786843635       -1.56431769042762       -1.33930931262146
H            1.07054600543327       -0.98177907321574        1.54102949906565
H            2.55785139089130       -1.77418227600487        1.02086527445655
H            2.95396192112719        0.62843994728522        1.54119522461548
H            3.26535406158158        0.28485754393888       -0.16273414961717
H            0.69649471745983        1.48071762792661        0.96948581304626
H            1.93742730057770        2.36564318286398        0.07816119135838
H            0.04516264504695        1.74381988378448       -1.41047253984004
H            1.54358702764491        0.95180684086935       -1.91372192552059
24
 energy: -32.435637581202 gnorm: 0.001325160599 xtb: 6.7.1 (edcfbbe)
C           -3.02239089112824        0.82819530532161        0.49549729755179
O           -1.84934806551205        0.72751967157247       -0.29945335057870
C           -1.08038349554377       -0.35024465491714       -0.07965102953550
O           -1.35960957213519       -1.19553644020725        0.72872832354190
C            0.12197580488703       -0.37762951255332       -1.00724502455203
C            1.13258513337057       -1.43440332045162       -0.55573696698044
C            1.81744450516215       -1.02289798261896        0.74449934287832
C            2.48267040387939        0.34130128065126        0.59832301864895
C            1.45295040861716        1.38988554815209        0.19128449164525
C            0.78777195227690        0.99732307647697       -1.12401376227388
H           -3.69205185607475       -0.00966191916855        0.29130483699877
H           -3.49377112168914        1.76937338105896        0.22444243830635
H           -2.76364046958927        0.81905482241530        1.55634193681596
H           -0.27803124881439       -0.65767355094059       -1.99045865689646
H            0.61961310309312       -2.38662547322016       -0.41295493977437
H            1.88196361888095       -1.56099060393621       -1.34040557671554
H            1.07328075690969       -0.98444803982344        1.54137364940529
H            2.56094030242522       -1.77414355624667        1.01820482262959
H            2.95533871424656        0.62796528357455        1.53990663115307
H            3.26338227057685        0.28662731809758       -0.16487714583296
H            0.69328773988682        1.47481837065237        0.97197973999790
H            1.93232724103947        2.36536928252773        0.08370874194648
H            0.04502419016337        1.74273745153211       -1.40994333250810
H            1.54455534671844        0.95080485061475       -1.91076137928538
24
 energy: -32.435640981564 gnorm: 0.000661672584 xtb: 6.7.1 (edcfbbe)
C           -3.02195516068170        0.82830232483419        0.49413143088234
O           -1.85023889991339        0.72585556786277       -0.30178961964055
C           -1.07959507500565       -0.34969871537424       -0.07877813076630
O           -1.35632660001066       -1.19203539500520        0.73385094997807
C            0.12185250267540       -0.37777715837666       -1.00727124809171
C            1.13266476700438       -1.43467773509451       -0.55640351947445
C            1.81780947178480       -1.02341519799533        0.74390171640332
C            2.48259149926746        0.34123077358720        0.59843533771215
C            1.45207108340050        1.38947508851528        0.19201752923612
C            0.78721562917261        0.99739861937098       -1.12372844209975
H           -3.69181958674548       -0.01016919151643        0.29311992898195
H           -3.49400685492127        1.76862428420919        0.22146712136285
H           -2.76208368796803        0.82177902116378        1.55468499471617
H           -0.27875443120507       -0.65757466205012       -1.99024090047129
H            0.61952028555224       -2.38673444570765       -0.41348124021165
H            1.88180998598844       -1.56114018242754       -1.34113103956027
H            1.07388237782508       -0.98550703684995        1.54086290752979
H            2.56159588323712       -1.77458912900749        1.01685779419881
H            2.95504450298268        0.62758555610506        1.54018896047660
H            3.26303847050521        0.28728569268217       -0.16488578061020
H            0.69244464767013        1.47293245498018        0.97268376030064
H            1.93068413443914        2.36535511268973        0.08512648900261
H            0.04427396819147        1.74274879679738       -1.40932279106235
H            1.54416585840149        0.95146614517102       -1.91020210220666
24
 energy: -32.435648625422 gnorm: 0.001343670903 xtb: 6.7.1 (edcfbbe)
C           -3.02326520708357        0.82830861154406        0.48884418593261
O           -1.85637046940708        0.71923936120061       -0.31206677009371
C           -1.07702040515554       -0.34654368807835       -0.07434369678380
O           -1.34326396750902       -1.17629451237977        0.75550597722430
C            0.12088082248780       -0.37784003475786       -1.00656323131632
C            1.13266710034716       -1.43526686485988       -0.55884217684546
C            1.82049832045348       -1.02616228812649        0.74120567639281
C            2.48272405458173        0.34054940846349        0.59870028116384
C            1.44994175227932        1.38810472463314        0.19469229238817
C            0.78634912277284        0.99743258063473       -1.12249092484078
H           -3.69291028188785       -0.01361453696156        0.30115513297251
H           -3.49893048975551        1.76458770654368        0.20855985304263
H           -2.75799934673278        0.83375365510409        1.54819704793470
H           -0.28255899957798       -0.65623501144782       -1.98862634067986
H            0.61927743553477       -2.38703615466401       -0.41547813755098
H            1.88002359540475       -1.56123523569850       -1.34508570293917
H            1.07853461150134       -0.99210327799015        1.53991427584794
H            2.56641493776584       -1.77686186578712        1.00959090407167
H            2.95338681465135        0.62545012210469        1.54172485740037
H            3.26366154184904        0.29031120623487       -0.16408380511278
H            0.69021165157108        1.46745828781849        0.97537017616922
H            1.92642721557937        2.36520030570578        0.09015034349169
H            0.04337689292959        1.74292468875974       -1.40760853994708
H            1.54382806904676        0.95259340056795       -1.90832757133632
24
 energy: -32.435652975835 gnorm: 0.001406832560 xtb: 6.7.1 (edcfbbe)
C           -3.02620592627037        0.82772021564989        0.48480094996334
O           -1.86177728246516        0.71473972711969       -0.31867945925778
C           -1.07524869932227       -0.34328415777560       -0.06992869543229
O           -1.33402974175588       -1.16400000780398        0.77110177527603
C            0.12004255997387       -0.37734962259848       -1.00510812405888
C            1.13216031575322       -1.43562772308868       -0.56030416664020
C            1.82298870583202       -1.02806254759137        0.73879013184808
C            2.48359450538522        0.33981380031816        0.59902588569206
C            1.44989759573348        1.38702338933157        0.19620825630489
C            0.78606698068194        0.99769500379209       -1.12126474134812
H           -3.69463492244163       -0.01721141587899        0.30617528409422
H           -3.50510596686658        1.76056843925524        0.19855187118848
H           -2.75776257527049        0.84226053476770        1.54330274581277
H           -0.28587613172394       -0.65438759841908       -1.98645801070767
H            0.61874570043451       -2.38735329830511       -0.41655020820654
H            1.87772115720954       -1.56126189636147       -1.34828649370285
H            1.08316785497239       -0.99722029806527        1.53951791753543
H            2.57076863855033       -1.77837975388243        1.00303341293066
H            2.95323117171074        0.62348151000323        1.54298786585322
H            3.26504004364389        0.29198030164277       -0.16337228987309
H            0.69029209514797        1.46492874819866        0.97709512050164
H            1.92587230535272        2.36444059418087        0.09273389513371
H            0.04338831595692        1.74360692647824       -1.40625402816842
H            1.54354807142448        0.95259971759613       -1.90702478815250
24
 energy: -32.435657456799 gnorm: 0.000703642875 xtb: 6.7.1 (edcfbbe)
C           -3.03055808365647        0.82653210543910        0.48092778550184
O           -1.86780411167787        0.71032474528884       -0.32455038160211
C           -1.07404987937692       -0.33991709822946       -0.06535571600086
O           -1.32543809054309       -1.15195095661472        0.78574039241550
C            0.11898694912403       -0.37642251040087       -1.00341395679183
C            1.13137937068771       -1.43528337422559       -0.56114829961569
C            1.82574714413625       -1.03013760551175        0.73675534743895
C            2.48477279833502        0.33855248429926        0.59849475476211
C            1.45120501130125        1.38644083990482        0.19751336247915
C            0.78653611050641        0.99800325950543       -1.11962347925193
H           -3.69705270444143       -0.02166737414463        0.31074863167832
H           -3.51302915744198        1.75558439639564        0.18829672318452
H           -2.75962346216230        0.85054077197808        1.53863086917780
H           -0.28936127272356       -0.65197647853521       -1.98416473045932
H            0.61810353835662       -2.38708284465838       -0.41712578715556
H            1.87492791314860       -1.56072490250950       -1.35121551676040
H            1.08812680038269       -1.00204131596660        1.53963111680139
H            2.57510374611235       -1.78034895735759        0.99705015054026
H            2.95403048763566        0.62094337964672        1.54303320887470
H            3.26670802160223        0.29264440826758       -0.16368026636034
H            0.69199368205909        1.46400233484293        0.97902224107676
H            1.92747880188442        2.36384367197568        0.09464289105395
H            0.04423079487134        1.74449960428866       -1.40413083662252
H            1.54347036352684        0.95236200488531       -1.90598439777853
24
 energy: -32.435660677672 gnorm: 0.000364502179 xtb: 6.7.1 (edcfbbe)
C           -3.03489422493556        0.82515348159393        0.47796292435243
O           -1.87297077669210        0.70680760206986       -0.32904514109016
C           -1.07348084811900       -0.33734726337823       -0.06174646701953
O           -1.31935339160012       -1.14314530437465        0.79642389612436
C            0.11835471233566       -0.37538392517127       -1.00166636810674
C            1.13063549749779       -1.43505249303228       -0.56153632036010
C            1.82730869341502       -1.03109660788188        0.73536464788911
C            2.48667560811722        0.33728446326520        0.59779478726971
C            1.45316923182730        1.38562967282606        0.19853360804971
C            0.78677747254087        0.99876953048910       -1.11799845161973
H           -3.69929076885219       -0.02600200070671        0.31445330359179
H           -3.52040220976276        1.75091555000751        0.17979755211414
H           -2.76195196298675        0.85719181721165        1.53497393727806
H           -0.29125803509046       -0.64968894657208       -1.98218860660932
H            0.61756973046683       -2.38710282658721       -0.41771794745886
H            1.87291355798594       -1.56009216010430       -1.35310552760134
H            1.09130005240174       -1.00414274741284        1.53983790008438
H            2.57714068451496       -1.78161940123609        0.99332162710746
H            2.95722176270128        0.61874175195643        1.54204581628292
H            3.26797237083982        0.29184183143064       -0.16528772049467
H            0.69477452718776        1.46370195410311        0.98105022232065
H            1.93012807897178        2.36275596807615        0.09580596663989
H            0.04469316569880        1.74587858693801       -1.40167738013607
H            1.54285184318306        0.95272205505359       -1.90530215202193
24
 energy: -32.435663319711 gnorm: 0.000540837160 xtb: 6.7.1 (edcfbbe)
C           -3.03807163579009        0.82376577094311        0.47571479038987
O           -1.87648375060440        0.70437788725014       -0.33194911226582
C           -1.07332204077946       -0.33557788263821       -0.05952670401731
O           -1.31539899784570       -1.13715239340547        0.80348056653542
C            0.11781258628828       -0.37445902233957       -1.00047872187252
C            1.13003162707108       -1.43461507789530       -0.56151705192320
C            1.82825560861756       -1.03182388032570        0.73481958005804
C            2.48837584888854        0.33603067154678        0.59667536026317
C            1.45536005731175        1.38544793766125        0.19923902764654
C            0.78686835096164        0.99952815652325       -1.11641973120174
H           -3.70035678662881       -0.02987061513105        0.31694611325630
H           -3.52618734136174        1.74680078390842        0.17342835021504
H           -2.76402939120974        0.86170357065172        1.53217909694508
H           -0.29259135680516       -0.64776398912433       -1.98092490346361
H            0.61685282660474       -2.38664812282522       -0.41786817009852
H            1.87159947739562       -1.55954388127679       -1.35384208283173
H            1.09292017475474       -1.00427627205681        1.53986759429986
H            2.57760437901396       -1.78309066770018        0.99209042060012
H            2.96071374594360        0.61685562997379        1.54021676906773
H            3.26848474530174        0.29012526564003       -0.16764864963272
H            0.69801890411080        1.46382623054640        0.98284088384669
H            1.93292815135806        2.36231660949426        0.09630443235420
H            0.04468100554071        1.74708631252188       -1.39868027899269
H            1.54181858350915        0.95367756662124       -1.90485347259207
24
 energy: -32.435666399794 gnorm: 0.000463951319 xtb: 6.7.1 (edcfbbe)
C           -3.04129248060706        0.82193287985163        0.47312363582602
O           -1.88011213050151        0.70174483576905       -0.33517919542423
C           -1.07314121430190       -0.33369190617428       -0.05732433002187
O           -1.31155215505165       -1.13098289994463        0.81068651766693
C            0.11730878794998       -0.37321519379769       -0.99909752815359
C            1.12921501160254       -1.43414714527067       -0.56133615387330
C            1.82881383393364       -1.03232448583020        0.73454248165805
C            2.49074383285982        0.33450181115991        0.59501550633129
C            1.45796719135529        1.38516611237701        0.20018826349981
C            0.78691971825499        1.00065171440372       -1.11463409118490
H           -3.70081414115583       -0.03485083765247        0.31995522621927
H           -3.53277336324272        1.74155244426276        0.16599262185463
H           -2.76615081658475        0.86688503477299        1.52900942424529
H           -0.29376847403466       -0.64540795464618       -1.97953088631481
H            0.61563613969699       -2.38596934614739       -0.41777084858254
H            1.87005084173510       -1.55906474592894       -1.35433547837109
H            1.09398751461499       -1.00328793860294        1.53996327819684
H            2.57712848229131       -1.78468581144990        0.99159930741990
H            2.96558256397760        0.61465056561267        1.53746573084615
H            3.26899887589249        0.28762515812313       -0.17113055926371
H            0.70222007482089        1.46380014800416        0.98531362961671
H            1.93626114968593        2.36162910277567        0.09680235741103
H            0.04436228965659        1.74872043303071       -1.39459952918223
H            1.54029323879881        0.95548861386549       -1.90462527383353
24
 energy: -32.435669444338 gnorm: 0.000488404592 xtb: 6.7.1 (edcfbbe)
C           -3.04468162933553        0.81978986397582        0.47067569842688
O           -1.88320804382209        0.70006660865015       -0.33720400429453
C           -1.07333873142077       -0.33179985667360       -0.05544976997876
O           -1.30938725641652       -1.12596561764785        0.81599949944929
C            0.11673995240659       -0.37169417344545       -0.99745009638643
C            1.12815099869875       -1.43366590474826       -0.56092387738947
C            1.82938756306156       -1.03262407191790        0.73434753071292
C            2.49362586147754        0.33295503886047        0.59335765594131
C            1.46153339277599        1.38521898299058        0.20077227792675
C            0.78687474903908        1.00203474107866       -1.11268730852234
H           -3.70045700602768       -0.04063293736254        0.32234600663050
H           -3.54019815919213        1.73557772230872        0.15875425312188
H           -2.76945528402696        0.87150765184874        1.52613798006793
H           -0.29495588236196       -0.64289162254787       -1.97787663691011
H            0.61364987770796       -2.38491677490032       -0.41703408554188
H            1.86818390902105       -1.55917091394501       -1.35452716786284
H            1.09516557390472       -1.00143782140832        1.54017148536644
H            2.57629604265448       -1.78637742026324        0.99137035881255
H            2.97124865583322        0.61241795466792        1.53459189961305
H            3.26977781240898        0.28450218926328       -0.17472554848819
H            0.70770437040371        1.46456676296462        0.98756026322971
H            1.94090127217323        2.36104941120388        0.09643627790647
H            0.04398805771713        1.75075302913947       -1.39008633453446
H            1.53833867496651        0.95745774647157       -1.90446225071055
24
 energy: -32.435671828833 gnorm: 0.000591192583 xtb: 6.7.1 (edcfbbe)
C           -3.04815823360308        0.81792027671439        0.46752612899598
O           -1.88723954071914        0.69754120717169       -0.34103655661499
C           -1.07312998684942       -0.32964359184330       -0.05308047624178
O           -1.30552067451189       -1.11928299733839        0.82405050240217
C            0.11613232761808       -0.37025653190733       -0.99589490114426
C            1.12709126383212       -1.43322689107626       -0.56068517055462
C            1.83049733170965       -1.03330938618269        0.73377194106756
C            2.49634435538552        0.33135810665952        0.59159035188043
C            1.46433962857986        1.38487546667491        0.20197302015425