
                                 *****************
                                 * O   R   C   A *
                                 *****************

                                            #,                                       
                                            ###                                      
                                            ####                                     
                                            #####                                    
                                            ######                                   
                                           ########,                                 
                                     ,,################,,,,,                         
                               ,,#################################,,                 
                          ,,##########################################,,             
                       ,#########################################, ''#####,          
                    ,#############################################,,   '####,        
                  ,##################################################,,,,####,       
                ,###########''''           ''''###############################       
              ,#####''   ,,,,##########,,,,          '''####'''          '####       
            ,##' ,,,,###########################,,,                        '##       
           ' ,,###''''                  '''############,,,                           
         ,,##''                                '''############,,,,        ,,,,,,###''
      ,#''                                            '''#######################'''  
     '                                                          ''''####''''         
             ,#######,   #######,   ,#######,      ##                                
            ,#'     '#,  ##    ##  ,#'     '#,    #''#        ,####,   ,####,        
            ##       ##  ##   ,#'  ##            #'  '#       #'       #'  '#        
            ##       ##  #######   ##           ,######,      #####,   #    #        
            '#,     ,#'  ##    ##  '#,     ,#' ,#      #,     #,   #   #,  ,#        
             '#######'   ##     ##  '#######'  #'      '#     '####' # '####'        



                #########################################################
                #                        -***-                          #
                #          Department of theory and spectroscopy        #
                #                                                       #
                #                      Frank Neese                      #
                #                                                       #
                #     Directorship, Architecture, Infrastructure        #
                #                    SHARK, DRIVERS                     #
                #        Core code/Algorithms in most modules           #
                #                                                       #
                #        Max Planck Institute fuer Kohlenforschung      #
                #                Kaiser Wilhelm Platz 1                 #
                #                 D-45470 Muelheim/Ruhr                 #
                #                      Germany                          #
                #                                                       #
                #                  All rights reserved                  #
                #                        -***-                          #
                #########################################################


                         Program Version 6.0.1  -  RELEASE   -


 With contributions from (in alphabetic order):
[Max-Planck-Institut fuer Kohlenforschung]                               
  Daniel Aravena         : Magnetic Suceptibility                        
  Michael Atanasov       : Ab Initio Ligand Field Theory (pilot matlab implementation)
  Alexander A. Auer      : GIAO ZORA, VPT2 properties, NMR spectrum      
  Ute Becker             : All parallelization in ORCA, NUMFREQ, NUMCALC 
  Giovanni Bistoni       : ED, misc. LED, open-shell LED, HFLD           
  Martin Brehm           : Molecular dynamics                            
  Dmytro Bykov           : pre 5.0 version of the SCF Hessian            
  Marcos Casanova-Páez   : Triplet and SCS-CIS(D). UHF-(DLPNO)-IP/EA/STEOM-CCSD. UHF-CVS-IP/STEOM-CCSD   
  Vijay G. Chilkuri      : MRCI spin determinant printing, contributions to CSF-ICE 
  Pauline Colinet        : FMM embedding                                 
  Dipayan Datta          : RHF DLPNO-CCSD density                        
  Achintya Kumar Dutta   : EOM-CC, STEOM-CC                              
  Nicolas Foglia         : Exact transition moments, OPA infrastructure, MCD improvements    
  Dmitry Ganyushin       : Spin-Orbit,Spin-Spin,Magnetic field MRCI      
  Miquel Garcia-Rates    : C-PCM and meta-GGA Hessian, CCSD/C-PCM, Gaussian charge scheme 
  Tiago L. C. Gouveia    : GS-ROHF, GS-ROCIS                             
  Yang Guo               : DLPNO-NEVPT2, F12-NEVPT2, CIM, IAO-localization        
  Andreas Hansen         : Spin unrestricted coupled pair/coupled cluster methods 
  Ingolf Harden          : AUTO-CI MPn and infrastructure                
  Benjamin Helmich-Paris : MC-RPA, TRAH-(SCF,CASSCF), AVAS, COSX integrals, SCF dyn. polar. 
  Lee Huntington         : MR-EOM, pCC                                   
  Robert Izsak           : Overlap fitted RIJCOSX, COSX-SCS-MP3, EOM     
  Riya Kayal             : Wick's Theorem for AUTO-CI, AUTO-CI UHF-CCSDT 
  Emily Kempfer          : AUTO-CI, RHF CISDT and CCSDT                  
  Christian Kollmar      : KDIIS, OOCD, Brueckner-CCSD(T), CCSD density, CASPT2, CASPT2-K, improved NEVPT2 
  Axel Koslowski         : Symmetry handling                             
  Simone Kossmann        : meta-GGA functionals, TD-DFT gradient, OOMP2, (MP2 Hessian; deprecated post 5.0) 
  Lucas Lang             : DCDCAS                                        
  Marvin Lechner         : AUTO-CI (C++ implementation), FIC-MRCC        
  Spencer Leger          : CASSCF response                               
  Dagmar Lenk            : GEPOL surface, SMD, ORCA-2-JSON               
  Dimitrios Liakos       : Extrapolation schemes; Compound Job, initial MDCI parallelization 
  Dimitrios Manganas     : Further ROCIS development; embedding schemes. LFT, Crystal Embedding 
  Dimitrios Pantazis     : SARC Basis sets                               
  Anastasios Papadopoulos: AUTO-CI, single reference methods and gradients 
  Taras Petrenko         : pre 6.0 DFT Hessian and TD-DFT gradient, (ASA, deprecated), ECA, 1-Electron XAS/XES, NRVS 
  Peter Pinski           : DLPNO-MP2, DLPNO-MP2 Gradient                 
  Christoph Reimann      : Effective Core Potentials                     
  Marius Retegan         : Local ZFS, SOC                                
  Christoph Riplinger    : Optimizer, TS searches, QM/MM, DLPNO-CCSD(T), (RO)-DLPNO pert. Triples 
  Michael Roemelt        : Original ROCIS implementation                 
  Masaaki Saitow         : Open-shell DLPNO-CCSD energy and density      
  Barbara Sandhoefer     : DKH picture change effects                    
  Kantharuban Sivalingam : CASSCF convergence/infrastructure, NEVPT2 and variants, FIC-MRCI 
  Bernardo de Souza      : ESD, SOC TD-DFT                               
  Georgi L. Stoychev     : AutoAux, RI-MP2 NMR, DLPNO-MP2 response, X2C  
  Van Anh Tran           : RI-MP2 g-tensors                              
  Willem Van den Heuvel  : Paramagnetic NMR                              
  Zikuan Wang            : NOTCH, Electric field optimization            
  Frank Wennmohs         : Technical directorship and infrastructure     
  Hang Xu                : AUTO-CI-Response properties                   
                                                                         
[FACCTs GmbH]                                                            
  Markus Bursch, Miquel Garcia-Rates, Christoph Riplinger, Bernardo de Souza, Georgi L. Stoychev 
                                                                 
  APM, Basis sets (HGBS, AHGBS, def-TZVP (Ac-Lr), def2-XVPD (La-Lu)), CI-OPT, improved COSX, DLPNO-Multilevel,           
  DOCKER, DRACO, updates on ESD, GOAT, IRC, LR-CPCM, MBIS, meta-GGA TD-DFT gradient, ML-optimized integration grids, 
  MM, NACMEs, nearIR, NEB, NEB-TS, NL-DFT gradient (VV10), 2- and 3-layer-ONIOM, interface openCOSMO-RS, QMMM,   
  Crystal-QMMM, SF, symmetry and pop. for TD-DFT, r2SCAN hybrids, SOLVATOR                                   
                                                                         
[Other institutions]                                                     
  V. Asgeirsson          : NEB                                           
  Christoph Bannwarth    : sTDA-DFT, sTD-DFT, PBEh-3c, B97-3c, D3        
  Sebastian Ehlert       : rSCAN, r2SCAN, r2SCAN-3c, D4, dhf basis sets  
  Marvin Friede          : D4 for Fr, Ra, Ac-Lr                          
  Lars Goerigk           : TD-DFT with DH, B97 family of functionals     
  Stefan Grimme          : VdW corrections, initial TS optimization, DFT functionals, gCP, sTDA/sTD-DF 
  Waldemar Hujo          : DFT-NL                                        
  H. Jonsson             : NEB                                           
  Holger Kruse           : gCP                                           
  Marcel Mueller         : wB97X-3c, vDZP basis set                      
  Hagen Neugebauer       : wr2SCAN                                       
  Tobias Risthaus        : range-separated hybrid DFT                    
  Lukas Wittmann         : regularized MP2, r2SCAN double-hybrids, wr2SCAN        
                                                                         
We gratefully acknowledge several colleagues who have allowed us to      
interface, adapt or use parts of their codes:                            
  Ed Valeev, F. Pavosevic, A. Kumar             : LibInt (2-el integral package), F12 methods 
  Garnet Chan, S. Sharma, J. Yang, R. Olivares  : DMRG                   
  Ulf Ekstrom                                   : XCFun DFT Library      
  Mihaly Kallay                                 : mrcc  (arbitrary order and MRCC methods)
  Frank Weinhold                                : gennbo (NPA and NBO analysis)           
  Simon Mueller                                 : openCOSMO-RS                            
  Christopher J. Cramer and Donald G. Truhlar   : smd solvation model                     
  S Lehtola, MJT Oliveira, MAL Marques          : LibXC Library                           
  Liviu Ungur et al                             : ANISO software                          


 Your calculation uses the libint2 library for the computation of 2-el integrals
 For citations please refer to: http://libint.valeyev.net

 Your ORCA version has been built with support for libXC version: 6.2.2
 For citations please refer to: https://libxc.gitlab.io

 This ORCA versions uses:
   CBLAS   interface :  Fast vector & matrix operations
   LAPACKE interface :  Fast linear algebra routines
   SCALAPACK package :  Parallel linear algebra routines
   Shared memory     :  Shared parallel matrices
   BLAS/LAPACK       :  OpenBLAS 0.3.27  USE64BITINT DYNAMIC_ARCH NO_AFFINITY Zen SINGLE_THREADED
        Core in use  :  Zen
   Copyright (c) 2011-2014, The OpenBLAS Project


Your calculation utilizes the geometrical counterpoise correction gCP
Please cite in your paper:
H.Kruse, S. Grimme J.Chem.Phys., 136, (2012), 154101 
   

Your calculation utilizes the atom-pairwise dispersion correction
based on EEQ partial charges (D4)


================================================================================

----- Orbital basis set information -----
Your calculation utilizes the basis: def2-mTZVPP
   Stefan Grimme, Andreas Hansen, Sebastian Ehlert, and Jan-Michael Mewes 
   J. Chem. Phys. 154, 064103 (2021). DOI: 10.1063/5.0040021

----- AuxJ basis set information -----
Your calculation utilizes the auxiliary basis: def2/J
   F. Weigend, Phys. Chem. Chem. Phys. 8, 1057 (2006).

================================================================================
                                        WARNINGS
                       Please study these warnings very carefully!
================================================================================



WARNING: SCAN, rSCAN, or r2SCAN functional requested.
  ===> : libXC variant has now been activated.



================================================================================
                                       INPUT FILE
================================================================================
NAME = sp.inp
|  1> ! r2scan-3c def2/J RI DEFGRID2 scfconv6 printgap
|  2> %output
|  3>     printlevel normal
|  4> end
|  5> * xyz 0 1
|  6> C -1.5458151808 0.1240014297 0.5466257936
|  7> C -0.6700444311 -0.4781700669 -0.5439958469
|  8> C 0.670737828 0.2463990082 -0.6520961219
|  9> N 1.4186716007 0.1079625943 0.587985359
| 10> H -2.4624074888 -0.4494282013 0.6633263715
| 11> H -1.0054296739 0.1260331095 1.4888831245
| 12> H -1.8076494663 1.1498001253 0.2986637815
| 13> H -1.1805048207 -0.4227829196 -1.507735425
| 14> H -0.4853891187 -1.5323379759 -0.3226976598
| 15> H 1.2173540458 -0.1398120809 -1.5311524794
| 16> H 0.4950786074 1.3143592644 -0.8106378567
| 17> H 1.6283388148 -0.8703456388 0.7601753419
| 18> H 2.2984464225 0.6084426291 0.5295880404
| 19> *
| 20> 
| 21>                          ****END OF INPUT****
================================================================================

                       ****************************
                       * Single Point Calculation *
                       ****************************

---------------------------------
CARTESIAN COORDINATES (ANGSTROEM)
---------------------------------
  C     -1.545815    0.124001    0.546626
  C     -0.670044   -0.478170   -0.543996
  C      0.670738    0.246399   -0.652096
  N      1.418672    0.107963    0.587985
  H     -2.462407   -0.449428    0.663326
  H     -1.005430    0.126033    1.488883
  H     -1.807649    1.149800    0.298664
  H     -1.180505   -0.422783   -1.507735
  H     -0.485389   -1.532338   -0.322698
  H      1.217354   -0.139812   -1.531152
  H      0.495079    1.314359   -0.810638
  H      1.628339   -0.870346    0.760175
  H      2.298446    0.608443    0.529588

----------------------------
CARTESIAN COORDINATES (A.U.)
----------------------------
  NO LB      ZA    FRAG     MASS         X           Y           Z
   0 C     6.0000    0    12.011   -2.921167    0.234329    1.032973
   1 C     6.0000    0    12.011   -1.266200   -0.903610   -1.028003
   2 C     6.0000    0    12.011    1.267511    0.465627   -1.232283
   3 N     7.0000    0    14.007    2.680901    0.204020    1.111131
   4 H     1.0000    0     1.008   -4.653276   -0.849296    1.253505
   5 H     1.0000    0     1.008   -1.899987    0.238168    2.813581
   6 H     1.0000    0     1.008   -3.415962    2.172807    0.564393
   7 H     1.0000    0     1.008   -2.230831   -0.798944   -2.849207
   8 H     1.0000    0     1.008   -0.917253   -2.895699   -0.609810
   9 H     1.0000    0     1.008    2.300466   -0.264207   -2.893459
  10 H     1.0000    0     1.008    0.935563    2.483779   -1.531884
  11 H     1.0000    0     1.008    3.077114   -1.644715    1.436523
  12 H     1.0000    0     1.008    4.343434    1.149790    1.000776

--------------------------------
INTERNAL COORDINATES (ANGSTROEM)
--------------------------------
 C      0   0   0     0.000000000000     0.00000000     0.00000000
 C      1   0   0     1.522839610752     0.00000000     0.00000000
 C      2   1   0     1.527868803387   111.58105003     0.00000000
 N      3   2   1     1.454775463194   110.22637170    62.39245760
 H      1   2   3     1.087465873338   110.67525205   184.39058096
 H      1   2   3     1.086217980621   109.62696800   304.78115710
 H      1   2   3     1.087338639248   110.37786764    64.13437540
 H      2   1   3     1.091985128027   110.07059376   238.99214011
 H      2   1   3     1.092858843756   109.48595244   120.59600150
 H      3   2   1     1.104847670300   108.94629259   186.90509453
 H      3   2   1     1.093860481176   109.41075584   304.50726572
 H      4   3   2     1.015232352632   110.02637086    62.56783643
 H      4   3   2     1.013851196738   110.49092970   181.52698984

---------------------------
INTERNAL COORDINATES (A.U.)
---------------------------
 C      0   0   0     0.000000000000     0.00000000     0.00000000
 C      1   0   0     2.877749810208     0.00000000     0.00000000
 C      2   1   0     2.887253606964   111.58105003     0.00000000
 N      3   2   1     2.749127211784   110.22637170    62.39245760
 H      1   2   3     2.055012680595   110.67525205   184.39058096
 H      1   2   3     2.052654505115   109.62696800   304.78115710
 H      1   2   3     2.054772243010   110.37786764    64.13437540
 H      2   1   3     2.063552834287   110.07059376   238.99214011
 H      2   1   3     2.065203917734   109.48595244   120.59600150
 H      3   2   1     2.087859516568   108.94629259   186.90509453
 H      3   2   1     2.067096738141   109.41075584   304.50726572
 H      4   3   2     1.918511108771   110.02637086    62.56783643
 H      4   3   2     1.915901102382   110.49092970   181.52698984

---------------------
BASIS SET INFORMATION
---------------------
There are 3 groups of distinct atoms

 Group   1 Type C   : 11s6p1d contracted to 5s3p1d pattern {62111/411/1}
 Group   2 Type N   : 11s6p2d contracted to 5s3p2d pattern {62111/411/11}
 Group   3 Type H   : 4s1p contracted to 2s1p pattern {31/1}

Atom   0C    basis set group =>   1
Atom   1C    basis set group =>   1
Atom   2C    basis set group =>   1
Atom   3N    basis set group =>   2
Atom   4H    basis set group =>   3
Atom   5H    basis set group =>   3
Atom   6H    basis set group =>   3
Atom   7H    basis set group =>   3
Atom   8H    basis set group =>   3
Atom   9H    basis set group =>   3
Atom  10H    basis set group =>   3
Atom  11H    basis set group =>   3
Atom  12H    basis set group =>   3
---------------------------------
AUXILIARY/J BASIS SET INFORMATION
---------------------------------
There are 3 groups of distinct atoms

 Group   1 Type C   : 12s5p4d2f1g contracted to 6s4p3d1f1g pattern {711111/2111/211/2/1}
 Group   2 Type N   : 12s5p4d2f1g contracted to 6s4p3d1f1g pattern {711111/2111/211/2/1}
 Group   3 Type H   : 5s2p1d contracted to 3s1p1d pattern {311/2/1}

Atom   0C    basis set group =>   1
Atom   1C    basis set group =>   1
Atom   2C    basis set group =>   1
Atom   3N    basis set group =>   2
Atom   4H    basis set group =>   3
Atom   5H    basis set group =>   3
Atom   6H    basis set group =>   3
Atom   7H    basis set group =>   3
Atom   8H    basis set group =>   3
Atom   9H    basis set group =>   3
Atom  10H    basis set group =>   3
Atom  11H    basis set group =>   3
Atom  12H    basis set group =>   3

Checking for AutoStart:
The File: sp.gbw exists
Trying to determine its content:
     ... Fine, the file contains calculation information
     ... Fine, the calculation information was read
     ... Fine, the file contains a basis set
     ... Fine, the basis set was read
     ... Fine, the file contains a geometry
     ... Fine, the geometry was read
     ... Fine, the file contains a set of orbitals
     ... Fine, the orbitals can be read
     => possible old guess file was deleted
     => GBW file was renamed to GES file
     => GES file is set as startup file
     => Guess is set to MORead
     ... now leaving AutoStart

------------------------------------------------------------------------------
                             ORCA STARTUP CALCULATIONS
                           -- RI-GTO INTEGRALS CHOSEN --
------------------------------------------------------------------------------
------------------------------------------------------------------------------
                   ___                                                        
                  /   \      - P O W E R E D   B Y -                         
                 /     \                                                     
                 |  |  |   _    _      __       _____    __    __             
                 |  |  |  | |  | |    /  \     |  _  \  |  |  /  |          
                  \  \/   | |  | |   /    \    | | | |  |  | /  /          
                 / \  \   | |__| |  /  /\  \   | |_| |  |  |/  /          
                |  |  |   |  __  | /  /__\  \  |    /   |      \           
                |  |  |   | |  | | |   __   |  |    \   |  |\   \          
                \     /   | |  | | |  |  |  |  | |\  \  |  | \   \       
                 \___/    |_|  |_| |__|  |__|  |_| \__\ |__|  \__/        
                                                                              
                      - O R C A' S   B I G   F R I E N D -                    
                                      &                                       
                       - I N T E G R A L  F E E D E R -                       
                                                                              
 v1 FN, 2020, v2 2021, v3 2022-2024                                           
------------------------------------------------------------------------------


----------------------
SHARK INTEGRAL PACKAGE
----------------------

Number of atoms                             ...     13
Number of basis functions                   ...    126
Number of shells                            ...     64
Maximum angular momentum                    ...      2
Integral batch strategy                     ... SHARK/LIBINT Hybrid
RI-J (if used) integral strategy            ... SPLIT-RIJ (Revised 2003 algorithm where possible)
Printlevel                                  ...      1
Contraction scheme used                     ... SEGMENTED contraction
Prescreening option                         ... SCHWARTZ
   Thresh                                   ... 1.000e-10
   Tcut                                     ... 1.000e-11
   Tpresel                                  ... 1.000e-11 
Coulomb Range Separation                    ... NOT USED
Exchange Range Separation                   ... NOT USED
Multipole approximations                    ... NOT USED
Finite Nucleus Model                        ... NOT USED
CABS basis                                  ... NOT available
Auxiliary Coulomb fitting basis             ... AVAILABLE
   # of basis functions in Aux-J            ...    295
   # of shells in Aux-J                     ...    105
   Maximum angular momentum in Aux-J        ...      4
Auxiliary J/K fitting basis                 ... NOT available
Auxiliary Correlation fitting basis         ... NOT available
Auxiliary 'external' fitting basis          ... NOT available

Checking pre-screening integrals            ... done (  0.0 sec) Dimension = 64
Check shell pair data                       ... done (  0.0 sec)
Shell pair information
Shell pair cut-off parameter TPreSel        ...   1.0e-11
Total number of shell pairs                 ...      2080
Shell pairs after pre-screening             ...      2027
Total number of primitive shell pairs       ...      7136
Primitive shell pairs kept                  ...      5452
          la=0 lb=0:    714 shell pairs
          la=1 lb=0:    779 shell pairs
          la=1 lb=1:    225 shell pairs
          la=2 lb=0:    189 shell pairs
          la=2 lb=1:    105 shell pairs
          la=2 lb=2:     15 shell pairs

Calculating one electron integrals          ... done (  0.0 sec)
Calculating RI/J V-Matrix + Cholesky decomp.... done (  0.0 sec)
Calculating Nuclear repulsion               ... done (  0.0 sec) ENN=    134.161493736443 Eh

Diagonalization of the overlap matrix:
Smallest eigenvalue                        ... 3.352e-04
Time for diagonalization                   ...    0.002 sec
Threshold for overlap eigenvalues          ... 1.000e-07
Number of eigenvalues below threshold      ... 0
Time for construction of square roots      ...    0.003 sec
Total time needed                          ...    0.006 sec

-------------------
DFT GRID GENERATION
-------------------

General Integration Accuracy     IntAcc      ... 4.388
Radial Grid Type                 RadialGrid  ... OptM3 with GC (2021)
Angular Grid (max. ang.)         AngularGrid ... 4 (Lebedev-302)
Angular grid pruning method      GridPruning ... 4 (adaptive)
Weight generation scheme         WeightScheme... mBecke (2022)
Basis function cutoff            BFCut       ... 1.0000e-10
Integration weight cutoff        WCut        ... 1.0000e-14
Partially contracted basis set               ... off
Rotationally invariant grid construction     ... off
Angular grids for H and He will be reduced by one unit

Total number of grid points                  ...    53209
Total number of batches                      ...      838
Average number of points per batch           ...       63
Average number of grid points per atom       ...     4093
Initializing property integral containers    ... done (  0.0 sec)

SHARK setup successfully completed in   0.4 seconds

Maximum memory used throughout the entire STARTUP-calculation: 22.5 MB
-------------------------------------------------------------------------------
                                 ORCA GUESS
                   Start orbitals & Density for SCF / CASSCF
-------------------------------------------------------------------------------

------------
SCF SETTINGS
------------
Hamiltonian:
 Density Functional     Method          .... DFT(GTOs)
  Functional kind                       .... Exchange
  Functional name                       .... Re-regularized SCAN exchange by Furness et al
  Functional family                     .... MGGA
  Functional refs                              
    [ 0] J. W. Furness, A. D. Kaplan, J. Ning, J. P. Perdew, and J. Sun.,  J. Phys. Chem. Lett. 11, 8208-8215 (2020), doi: 10.1021/acs.jpclett.0c02405
    [ 1] J. W. Furness, A. D. Kaplan, J. Ning, J. P. Perdew, and J. Sun.,  J. Phys. Chem. Lett. 11, 9248-9248 (2020), doi: 10.1021/acs.jpclett.0c03077
  Functional external parameters        .... 6
    Parameter  0 _c1        =  6.670000e-01 : c1 parameter        
    Parameter  1 _c2        =  8.000000e-01 : c2 parameter        
    Parameter  2 _d         =  1.240000e+00 : d parameter         
    Parameter  3 _k1        =  6.500000e-02 : k1 parameter        
    Parameter  4 _eta       =  1.000000e-03 : eta parameter       
    Parameter  5 _dp2       =  3.610000e-01 : dp2 parameter       
  Functional kind                       .... Correlation
  Functional name                       .... Re-regularized SCAN correlation by Furness et al
  Functional family                     .... MGGA
  Functional refs                              
    [ 0] J. W. Furness, A. D. Kaplan, J. Ning, J. P. Perdew, and J. Sun.,  J. Phys. Chem. Lett. 11, 8208-8215 (2020), doi: 10.1021/acs.jpclett.0c02405
    [ 1] J. W. Furness, A. D. Kaplan, J. Ning, J. P. Perdew, and J. Sun.,  J. Phys. Chem. Lett. 11, 9248-9248 (2020), doi: 10.1021/acs.jpclett.0c03077
  Functional external parameters        .... 1
    Parameter  0 _eta       =  1.000000e-03 : Regularization parameter
 Gradients option       PostSCFGGA      .... off
 RI-approximation to the Coulomb term is turned on
   Number of AuxJ basis functions       .... 295


General Settings:
 Integral files         IntName         .... sp
 Hartree-Fock type      HFTyp           .... RHF
 Total Charge           Charge          ....    0
 Multiplicity           Mult            ....    1
 Number of Electrons    NEL             ....   34
 Basis Dimension        Dim             ....  126
 Nuclear Repulsion      ENuc            ....    134.1614937364 Eh

Convergence Acceleration:
 AO-DIIS                CNVDIIS         .... on
   Start iteration      DIISMaxIt       ....    12
   Startup error        DIISStart       ....  0.200000
   # of expansion vecs  DIISMaxEq       ....     5
   Bias factor          DIISBfac        ....   1.050
   Max. coefficient     DIISMaxC        ....  10.000
 MO-DIIS                CNVKDIIS        .... off
 Trust-Rad. Augm. Hess. CNVTRAH         .... auto
   Auto Start mean grad. ratio tolernc. ....  1.125000
   Auto Start start iteration           ....     1
   Auto Start num. interpolation iter.  ....    10
   Max. Number of Micro iterations      ....    24
   Max. Number of Macro iterations      .... Maxiter - #DIIS iter
   Number of Davidson start vectors     ....     2
   Converg. threshold    (grad. norm)   ....   3.330e-04
   Grad. Scal. Fac. for Micro threshold ....   0.100
   Minimum threshold for Micro iter.    ....   1.000e-02
   NR start threshold (gradient norm)   ....   1.000e-04
   Initial trust radius                 ....   0.400
   Minimum AH scaling param. (alpha)    ....   1.000
   Maximum AH scaling param. (alpha)    .... 1000.000
   Quad. conv. algorithm                .... NR
   White noise on init. David. guess    .... on
   Maximum white noise                  ....   0.010
   Pseudo random numbers                .... off
   Inactive MOs                         .... canonical
   Orbital update algorithm             .... Taylor
   Preconditioner                       .... Diag
   Full preconditioner red. dimension   ....   250
   COSX micro iterations for RIJONX calc.... off
 SOSCF                  CNVSOSCF        .... on
   Start iteration      SOSCFMaxIt      ....   150
   Startup grad/error   SOSCFStart      ....  0.003300
   Hessian update       SOSCFHessUp     .... L-BFGS
 Level Shifting         CNVShift        .... on
   Level shift para.    LevelShift      ....    0.2500
   Turn off err/grad.   ShiftErr        ....    0.0010
 Zerner damping         CNVZerner       .... off
 Static damping         CNVDamp         .... on
   Fraction old density DampFac         ....    0.7000
   Max. Damping (<1)    DampMax         ....    0.9800
   Min. Damping (>=0)   DampMin         ....    0.0000
   Turn off err/grad.   DampErr         ....    0.1000

SCF Procedure:
 Maximum # iterations   MaxIter         ....   125
 SCF integral mode      SCFMode         .... Direct
   Integral package                     .... SHARK and LIBINT hybrid scheme
 Reset frequency        DirectResetFreq ....    20
 Integral Threshold     Thresh          ....  1.000e-10 Eh
 Primitive CutOff       TCut            ....  1.000e-11 Eh

Convergence Tolerance:
 Convergence Check Mode ConvCheckMode   .... Total+1el-Energy
 Convergence forced     ConvForced      .... 0
 Energy Change          TolE            ....  1.000e-06 Eh
 1-El. energy change                    ....  1.000e-03 Eh
 Orbital Gradient       TolG            ....  3.330e-04
 Orbital Rotation angle TolX            ....  3.330e-04
 DIIS Error             TolErr          ....  1.000e-06

---------------------
INITIAL GUESS: MOREAD
---------------------
Guess MOs are being read from file: sp.ges
Input Geometry matches current geometry (good)
Atom 0: N(Shells)= 9 and 6 - projection required
Input basis set needs projection
NBasis(read)= 74
NBasis(calc)= 126
Basis set overlap was calculated
Using GuessMode=FMatrix for the initial guess
C*T matrix was formed
Effective Fockian was calculated
Effective Fockian was diagonalized
Initial density was built
                      ------------------
                      INITIAL GUESS DONE (   0.0 sec)
                      ------------------
             **** ENERGY FILE WAS UPDATED (sp.en.tmp) ****
Finished Guess after   0.1 sec
Maximum memory used throughout the entire GUESS-calculation: 9.3 MB

-------------------------------------------------------------------------------------------
                                      ORCA LEAN-SCF
                              memory conserving SCF solver
-------------------------------------------------------------------------------------------

----------------------------------------D-I-I-S--------------------------------------------
Iteration    Energy (Eh)           Delta-E    RMSDP     MaxDP     DIISErr   Damp  Time(sec)
-------------------------------------------------------------------------------------------
               ***  Starting incremental Fock matrix formation  ***
    1    -174.3251861879155626     0.00e+00  3.52e-03  8.39e-02  4.42e-01  0.700   0.7
    2    -174.3563489885087847    -3.12e-02  2.94e-03  7.06e-02  3.11e-01  0.700   0.6
    3    -174.3785068792857373    -2.22e-02  2.19e-03  5.20e-02  2.18e-01  0.700   0.6
                               ***Turning on AO-DIIS***
    4    -174.3940832105385539    -1.56e-02  1.61e-03  3.78e-02  1.52e-01  0.700   0.6
    5    -174.4050189519639957    -1.09e-02  1.15e-03  2.68e-02  1.07e-01  0.700   0.8
    6    -174.4126947875537894    -7.68e-03  8.17e-04  1.89e-02  7.46e-02  0.700   0.6
    7    -174.4180792450760009    -5.38e-03  1.92e-03  4.42e-02  5.22e-02  0.000   0.6
                              *** Initializing SOSCF ***
---------------------------------------S-O-S-C-F--------------------------------------
Iteration    Energy (Eh)           Delta-E    RMSDP     MaxDP     MaxGrad    Time(sec)
--------------------------------------------------------------------------------------
    8    -174.4306790201123363    -1.26e-02  1.77e-05  3.48e-04  2.22e-04     0.6
               *** Restarting incremental Fock matrix formation ***
    9    -174.4306791499010956    -1.30e-07  1.22e-05  2.22e-04  5.13e-05     0.7
                  *** Gradient check signals convergence ***

               *****************************************************
               *                     SUCCESS                       *
               *           SCF CONVERGED AFTER   9 CYCLES          *
               *****************************************************

             **** ENERGY FILE WAS UPDATED (sp.en.tmp) ****

----------------
TOTAL SCF ENERGY
----------------

Total Energy       :       -174.43067914990110 Eh           -4746.50009 eV

Components:
Nuclear Repulsion  :        134.16149373644288 Eh            3650.71984 eV
Electronic Energy  :       -308.59217288634397 Eh           -8397.21993 eV
One Electron Energy:       -499.71358180791049 Eh          -13597.89786 eV
Two Electron Energy:        191.12140892156651 Eh            5200.67793 eV

Virial components:
Potential Energy   :       -348.05787345507065 Eh           -9471.13624 eV
Kinetic Energy     :        173.62719430516952 Eh            4724.63615 eV
Virial Ratio       :          2.00462764400443

DFT components:
N(Alpha)           :       16.999990269674 electrons
N(Beta)            :       16.999990269674 electrons
N(Total)           :       33.999980539348 electrons
E(X)               :      -25.459869361376 Eh       
E(C)               :       -1.048341849544 Eh       
E(XC)              :      -26.508211210920 Eh       

---------------
SCF CONVERGENCE
---------------

  Last Energy change         ...    1.2979e-07  Tolerance :   1.0000e-06
  Last MAX-Density change    ...    2.2225e-04  Tolerance :   1.0000e-05
  Last RMS-Density change    ...    1.2211e-05  Tolerance :   1.0000e-06
  Last DIIS Error            ...    2.2249e-04  Tolerance :   1.0000e-06
  Last Orbital Gradient      ...    5.1253e-05  Tolerance :   3.3300e-04
  Last Orbital Rotation      ...    6.8878e-05  Tolerance :   3.3300e-04


----------------
ORBITAL ENERGIES
----------------

  NO   OCC          E(Eh)            E(eV) 
   0   2.0000     -14.133900      -384.6030 
   1   2.0000     -10.047243      -273.3994 
   2   2.0000     -10.021519      -272.6994 
   3   2.0000     -10.005091      -272.2524 
   4   2.0000      -0.846341       -23.0301 
   5   2.0000      -0.726807       -19.7774 
   6   2.0000      -0.624397       -16.9907 
   7   2.0000      -0.543493       -14.7892 
   8   2.0000      -0.458196       -12.4682 
   9   2.0000      -0.423340       -11.5197 
  10   2.0000      -0.409442       -11.1415 
  11   2.0000      -0.370780       -10.0894 
  12   2.0000      -0.347018        -9.4428 
  13   2.0000      -0.313683        -8.5357 
  14   2.0000      -0.299727        -8.1560 
  15   2.0000      -0.297005        -8.0819 
  16   2.0000      -0.202722        -5.5163 
  17   0.0000       0.079513         2.1637 
  18   0.0000       0.117187         3.1888 
  19   0.0000       0.127689         3.4746 
  20   0.0000       0.132953         3.6178 
  21   0.0000       0.149751         4.0749 
  22   0.0000       0.163908         4.4602 
  23   0.0000       0.173094         4.7101 
  24   0.0000       0.187996         5.1156 
  25   0.0000       0.200057         5.4438 
  26   0.0000       0.205836         5.6011 
  27   0.0000       0.229589         6.2474 
*Only the first 10 virtual orbitals were printed.

                    ********************************
                    * MULLIKEN POPULATION ANALYSIS *
                    ********************************

-----------------------
MULLIKEN ATOMIC CHARGES
-----------------------
   0 C :   -0.489543
   1 C :   -0.211148
   2 C :   -0.175229
   3 N :   -0.572137
   4 H :    0.140718
   5 H :    0.174628
   6 H :    0.136050
   7 H :    0.135396
   8 H :    0.125578
   9 H :    0.122578
  10 H :    0.138130
  11 H :    0.237979
  12 H :    0.237002
Sum of atomic charges:   -0.0000000

--------------------------------
MULLIKEN REDUCED ORBITAL CHARGES
--------------------------------
  0 C s       :     3.323714  s :     3.323714
      pz      :     1.028002  p :     3.138963
      px      :     1.056134
      py      :     1.054827
      dz2     :     0.007092  d :     0.026867
      dxz     :     0.006412
      dyz     :     0.002868
      dx2y2   :     0.005054
      dxy     :     0.005441

  1 C s       :     3.180263  s :     3.180263
      pz      :     1.025216  p :     2.994125
      px      :     0.945293
      py      :     1.023616
      dz2     :     0.008841  d :     0.036761
      dxz     :     0.008799
      dyz     :     0.003296
      dx2y2   :     0.009080
      dxy     :     0.006745

  2 C s       :     3.252020  s :     3.252020
      pz      :     0.896488  p :     2.873094
      px      :     0.928660
      py      :     1.047946
      dz2     :     0.014767  d :     0.050116
      dxz     :     0.013668
      dyz     :     0.005773
      dx2y2   :     0.009491
      dxy     :     0.006417

  3 N s       :     3.567155  s :     3.567155
      pz      :     1.418148  p :     3.971958
      px      :     1.310508
      py      :     1.243302
      dz2     :     0.013927  d :     0.033024
      dxz     :     0.001797
      dyz     :     0.002311
      dx2y2   :     0.010008
      dxy     :     0.004981

  4 H s       :     0.840961  s :     0.840961
      pz      :     0.003893  p :     0.018321
      px      :     0.008855
      py      :     0.005572

  5 H s       :     0.806806  s :     0.806806
      pz      :     0.009057  p :     0.018566
      px      :     0.005932
      py      :     0.003577

  6 H s       :     0.845650  s :     0.845650
      pz      :     0.003989  p :     0.018301
      px      :     0.004123
      py      :     0.010188

  7 H s       :     0.846759  s :     0.846759
      pz      :     0.009228  p :     0.017844
      px      :     0.005106
      py      :     0.003510

  8 H s       :     0.856496  s :     0.856496
      pz      :     0.003803  p :     0.017926
      px      :     0.003607
      py      :     0.010516

  9 H s       :     0.860278  s :     0.860278
      pz      :     0.008104  p :     0.017145
      px      :     0.004870
      py      :     0.004171

 10 H s       :     0.844453  s :     0.844453
      pz      :     0.003067  p :     0.017417
      px      :     0.003560
      py      :     0.010790

 11 H s       :     0.730142  s :     0.730142
      pz      :     0.008435  p :     0.031878
      px      :     0.006756
      py      :     0.016688

 12 H s       :     0.730783  s :     0.730783
      pz      :     0.007845  p :     0.032215
      px      :     0.014953
      py      :     0.009417


------------------------
MULLIKEN OVERLAP CHARGES
------------------------
B(  0-C ,  1-C ) :   0.3577 B(  0-C ,  2-C ) :  -0.2599 B(  0-C ,  3-N ) :   0.1296 
B(  0-C ,  4-H ) :   0.8016 B(  0-C ,  5-H ) :   0.8642 B(  0-C ,  6-H ) :   0.8171 
B(  0-C ,  8-H ) :  -0.0898 B(  1-C ,  2-C ) :   0.6318 B(  1-C ,  3-N ) :  -0.3298 
B(  1-C ,  4-H ) :  -0.0827 B(  1-C ,  5-H ) :  -0.0898 B(  1-C ,  6-H ) :  -0.0700 
B(  1-C ,  7-H ) :   0.8063 B(  1-C ,  8-H ) :   0.8552 B(  1-C ,  9-H ) :  -0.1252 
B(  2-C ,  3-N ) :   0.2556 B(  2-C ,  7-H ) :  -0.0950 B(  2-C ,  8-H ) :  -0.0504 
B(  2-C ,  9-H ) :   0.8016 B(  2-C , 10-H ) :   0.8991 B(  3-N ,  9-H ) :  -0.0559 
B(  3-N , 10-H ) :  -0.1544 B(  3-N , 11-H ) :   0.6715 B(  3-N , 12-H ) :   0.6343 
B(  9-H , 10-H ) :  -0.0650 


                     *******************************
                     * LOEWDIN POPULATION ANALYSIS *
                     *******************************

----------------------
LOEWDIN ATOMIC CHARGES
----------------------
   0 C :   -0.425642
   1 C :   -0.294760
   2 C :   -0.077373
   3 N :   -0.753582
   4 H :    0.147293
   5 H :    0.163716
   6 H :    0.149563
   7 H :    0.152919
   8 H :    0.150274
   9 H :    0.147012
  10 H :    0.169880
  11 H :    0.234671
  12 H :    0.236029

-------------------------------
LOEWDIN REDUCED ORBITAL CHARGES
-------------------------------
  0 C s       :     2.972527  s :     2.972527
      pz      :     1.127380  p :     3.390076
      px      :     1.121931
      py      :     1.140766
      dz2     :     0.016223  d :     0.063040
      dxz     :     0.015464
      dyz     :     0.006409
      dx2y2   :     0.011729
      dxy     :     0.013214

  1 C s       :     2.941121  s :     2.941121
      pz      :     1.107654  p :     3.274767
      px      :     1.054767
      py      :     1.112345
      dz2     :     0.018965  d :     0.078872
      dxz     :     0.019677
      dyz     :     0.006750
      dx2y2   :     0.019537
      dxy     :     0.013943

  2 C s       :     2.870820  s :     2.870820
      pz      :     0.996885  p :     3.094473
      px      :     1.017400
      py      :     1.080188
      dz2     :     0.035020  d :     0.112080
      dxz     :     0.029411
      dyz     :     0.012736
      dx2y2   :     0.020814
      dxy     :     0.014099

  3 N s       :     3.244399  s :     3.244399
      pz      :     1.512699  p :     4.187599
      px      :     1.362851
      py      :     1.312049
      dz2     :     0.091137  d :     0.321583
      dxz     :     0.067209
      dyz     :     0.054711
      dx2y2   :     0.059138
      dxy     :     0.049389

  4 H s       :     0.809183  s :     0.809183
      pz      :     0.008857  p :     0.043523
      px      :     0.021477
      py      :     0.013189

  5 H s       :     0.791119  s :     0.791119
      pz      :     0.023029  p :     0.045165
      px      :     0.014231
      py      :     0.007906

  6 H s       :     0.807181  s :     0.807181
      pz      :     0.009135  p :     0.043256
      px      :     0.009100
      py      :     0.025021

  7 H s       :     0.803973  s :     0.803973
      pz      :     0.022639  p :     0.043108
      px      :     0.012380
      py      :     0.008088

  8 H s       :     0.807216  s :     0.807216
      pz      :     0.008851  p :     0.042510
      px      :     0.008386
      py      :     0.025273

  9 H s       :     0.812548  s :     0.812548
      pz      :     0.018633  p :     0.040440
      px      :     0.012047
      py      :     0.009761

 10 H s       :     0.790304  s :     0.790304
      pz      :     0.006433  p :     0.039816
      px      :     0.007992
      py      :     0.025391

 11 H s       :     0.680175  s :     0.680175
      pz      :     0.022049  p :     0.085154
      px      :     0.017916
      py      :     0.045189

 12 H s       :     0.678524  s :     0.678524
      pz      :     0.020517  p :     0.085448
      px      :     0.041614
      py      :     0.023316


---------------------------------
LOEWDIN BOND ORDERS (THRESH 0.050000)
---------------------------------
B(  0-C ,  1-C ) :   1.1398 B(  0-C ,  2-C ) :   0.0643 B(  0-C ,  4-H ) :   0.9318 
B(  0-C ,  5-H ) :   0.9182 B(  0-C ,  6-H ) :   0.9307 B(  1-C ,  2-C ) :   1.0490 
B(  1-C ,  3-N ) :   0.1633 B(  1-C ,  7-H ) :   0.8926 B(  1-C ,  8-H ) :   0.8926 
B(  2-C ,  3-N ) :   1.4079 B(  2-C ,  9-H ) :   0.8391 B(  2-C , 10-H ) :   0.8322 
B(  3-N ,  9-H ) :   0.1080 B(  3-N , 10-H ) :   0.0983 B(  3-N , 11-H ) :   0.9420 
B(  3-N , 12-H ) :   0.9403 

------------------------------------------
LOEWDIN REDUCED ORBITAL POPULATIONS PER MO
-------------------------------------------
THRESHOLD FOR PRINTING IS 0.1%%
                      0         1         2         3         4         5   
                 -14.13390 -10.04724 -10.02152 -10.00509  -0.84634  -0.72681
                   2.00000   2.00000   2.00000   2.00000   2.00000   2.00000
                  --------  --------  --------  --------  --------  --------
 0 C  s               0.0       0.0       0.0      99.7       0.7      20.6
 0 C  pz              0.0       0.0       0.0       0.0       0.2       1.6
 0 C  px              0.0       0.0       0.0       0.0       0.6       0.9
 0 C  py              0.0       0.0       0.0       0.0       0.0       0.4
 1 C  s               0.0       0.0      99.7       0.0       3.6      27.6
 1 C  pz              0.0       0.0       0.0       0.0       0.1       0.6
 1 C  px              0.0       0.1       0.0       0.0       1.8       0.4
 1 C  py              0.0       0.0       0.0       0.0       0.4       0.5
 2 C  s               0.0      99.4       0.0       0.0      16.0       3.7
 2 C  pz              0.0       0.0       0.0       0.0       4.6       0.7
 2 C  px              0.0       0.0       0.1       0.0       1.2       7.5
 2 C  py              0.0       0.0       0.0       0.0       0.2       0.5
 2 C  dxz             0.0       0.0       0.0       0.0       0.3       0.1
 3 N  s              99.8       0.0       0.0       0.0      44.1       6.2
 3 N  pz              0.0       0.1       0.0       0.0       2.4       0.5
 3 N  px              0.0       0.0       0.0       0.0       0.1       1.9
 3 N  py              0.0       0.0       0.0       0.0       0.1       0.0
 3 N  dxz             0.0       0.2       0.0       0.0       0.4       0.4
 3 N  dx2y2           0.0       0.0       0.0       0.0       0.0       0.2
 4 H  s               0.0       0.0       0.0       0.0       0.1       3.2
 4 H  px              0.0       0.0       0.0       0.0       0.0       0.2
 5 H  s               0.0       0.0       0.0       0.0       0.1       3.0
 5 H  pz              0.0       0.0       0.0       0.0       0.0       0.2
 6 H  s               0.0       0.0       0.0       0.0       0.1       3.2
 6 H  py              0.0       0.0       0.0       0.0       0.0       0.2
 7 H  s               0.0       0.0       0.0       0.0       0.3       4.5
 7 H  pz              0.0       0.0       0.0       0.0       0.0       0.3
 8 H  s               0.0       0.0       0.0       0.0       0.4       4.2
 8 H  py              0.0       0.0       0.0       0.0       0.0       0.4
 9 H  s               0.0       0.0       0.0       0.0       1.6       0.5
 9 H  pz              0.0       0.0       0.0       0.0       0.1       0.0
10 H  s               0.0       0.0       0.0       0.0       1.6       0.7
10 H  py              0.0       0.0       0.0       0.0       0.1       0.1
11 H  s               0.0       0.0       0.0       0.0       8.2       1.6
11 H  py              0.0       0.0       0.0       0.0       1.0       0.3
12 H  s               0.0       0.0       0.0       0.0       8.1       2.1
12 H  px              0.0       0.0       0.0       0.0       0.8       0.2
12 H  py              0.0       0.0       0.0       0.0       0.3       0.1

                      6         7         8         9        10        11   
                  -0.62440  -0.54349  -0.45820  -0.42334  -0.40944  -0.37078
                   2.00000   2.00000   2.00000   2.00000   2.00000   2.00000
                  --------  --------  --------  --------  --------  --------
 0 C  s              20.2       5.6       0.0       0.5       0.1       0.0
 0 C  pz              0.7       3.4       3.3       0.3       4.6      12.3
 0 C  px              0.9       1.1       0.8       8.4       1.8      16.9
 0 C  py              0.0       2.9       0.0       0.6      13.3       0.1
 1 C  s               0.9      12.5       0.8       0.7       0.0       0.1
 1 C  pz              4.8       1.8       5.8       7.4       2.2       2.8
 1 C  px              8.8       0.4       6.4       0.0       0.0       8.8
 1 C  py              0.0       7.0       0.3       0.0      22.7       0.0
 1 C  dxy             0.2       0.0       0.0       0.0       0.0       0.0
 2 C  s              15.2       6.8       0.2       0.7       0.1       0.2
 2 C  pz              2.9       0.3       3.1      25.0       0.2       6.9
 2 C  px              0.6       2.3       0.0       2.1      11.7       4.4
 2 C  py              0.0       6.8       8.4       4.3       2.1       0.0
 2 C  dz2             0.0       0.0       0.1       0.0       0.1       0.2
 2 C  dxz             0.0       0.0       0.0       0.1       0.0       0.3
 2 C  dyz             0.0       0.0       0.1       0.0       0.0       0.0
 3 N  s               3.5       0.8       0.1       0.5       0.2       0.5
 3 N  pz              3.8       4.2       0.2       1.3       6.1       7.5
 3 N  px              3.4       2.0      17.3       6.6       0.1      10.7
 3 N  py              0.4       3.7      24.2      13.8       5.1       0.5
 3 N  dz2             1.0       0.7       0.0       0.6       0.4       0.3
 3 N  dxz             0.9       0.1       0.1       0.1       0.1       0.0
 3 N  dyz             0.0       0.2       0.2       0.1       0.2       0.0
 3 N  dx2y2           0.0       0.0       0.2       0.5       0.0       0.5
 3 N  dxy             0.0       0.2       0.2       0.0       0.5       0.2
 4 H  s               5.8       2.0       0.0       2.7       4.6       4.5
 4 H  pz              0.0       0.0       0.0       0.0       0.0       0.1
 4 H  px              0.3       0.1       0.0       0.0       0.2       0.0
 4 H  py              0.1       0.1       0.0       0.1       0.0       0.1
 5 H  s               4.9       2.8       1.4       0.0       0.7      10.8
 5 H  pz              0.3       0.1       0.0       0.0       0.0       0.3
 5 H  px              0.1       0.1       0.0       0.0       0.1       0.0
 6 H  s               5.0       3.5       0.0       1.4       3.8       0.7
 6 H  py              0.4       0.2       0.0       0.1       0.1       0.1
 7 H  s               0.4       6.1       5.0       1.0       1.2       3.3
 7 H  pz              0.0       0.3       0.2       0.0       0.0       0.1
 7 H  py              0.0       0.0       0.0       0.0       0.1       0.0
 8 H  s               0.2       8.0       0.1       0.4       8.2       0.6
 8 H  py              0.0       0.5       0.0       0.0       0.2       0.0
 9 H  s               4.7       2.5       0.0      13.7       2.8       0.8
 9 H  pz              0.2       0.1       0.0       0.2       0.1       0.0
 9 H  px              0.1       0.0       0.0       0.2       0.0       0.1
10 H  s               4.3       6.0       2.1       0.1       1.1       0.2
10 H  pz              0.0       0.0       0.0       0.2       0.0       0.0
10 H  py              0.4       0.3       0.1       0.0       0.0       0.0
11 H  s               1.9       2.9       4.5       5.5       3.6       0.1
11 H  px              0.0       0.0       0.3       0.0       0.0       0.1
11 H  py              0.3       0.2       0.1       0.2       0.2       0.0
12 H  s               1.8       0.2      13.6       0.0       0.5       4.0
12 H  pz              0.0       0.0       0.0       0.0       0.1       0.1
12 H  px              0.1       0.0       0.5       0.1       0.0       0.0
12 H  py              0.1       0.1       0.0       0.1       0.0       0.0

                     12        13        14        15        16        17   
                  -0.34702  -0.31368  -0.29973  -0.29701  -0.20272   0.07951
                   2.00000   2.00000   2.00000   2.00000   2.00000   0.00000
                  --------  --------  --------  --------  --------  --------
 0 C  s               0.0       0.8       0.1       0.1       0.0       3.3
 0 C  pz              0.0      23.3       4.8       0.3       1.5       0.5
 0 C  px              0.2       8.2      11.4       4.9       0.2       0.3
 0 C  py             25.5       0.8       4.2       9.1       0.0       0.1
 0 C  dz2             0.0       0.0       0.6       0.0       0.0       0.0
 0 C  dxz             0.0       0.2       0.1       0.1       0.0       0.0
 0 C  dx2y2           0.1       0.0       0.1       0.3       0.0       0.1
 0 C  dxy             0.1       0.2       0.0       0.2       0.0       0.1
 1 C  s               0.1       0.3       0.0       0.5       0.2       3.3
 1 C  pz              1.9      22.1       5.7       0.1       0.2       0.0
 1 C  px              2.8       4.8       9.9       7.4       1.1       0.7
 1 C  py              0.1       2.8       6.3      15.2       0.2       1.6
 1 C  dz2             0.0       0.0       0.8       0.0       0.0       0.0
 1 C  dxz             0.1       0.4       0.1       0.1       0.0       0.4
 1 C  dx2y2           0.0       0.0       0.2       0.6       0.0       0.0
 1 C  dxy             0.0       0.2       0.0       0.2       0.0       0.1
 2 C  s               0.2       0.0       0.1       0.7       0.2      10.4
 2 C  pz              1.1       1.8       0.2       0.2       2.8       5.8
 2 C  px              1.1       5.2       4.3       9.5       0.8      11.4
 2 C  py             17.5       0.8       1.0      11.6       0.6       0.3
 2 C  dz2             0.0       0.0       0.2       0.0       1.0       0.1
 2 C  dxz             0.0       0.3       0.1       0.0       0.3       1.0
 2 C  dyz             0.1       0.0       0.0       0.0       0.2       0.1
 2 C  dx2y2           0.3       0.1       0.2       0.4       0.0       0.1
 2 C  dxy             0.1       0.1       0.0       0.2       0.0       0.0
 3 N  s               0.1       0.9       0.1       0.0       5.6      13.6
 3 N  pz              5.2       2.3       2.6       0.2      39.3       0.6
 3 N  px              0.1       3.2       0.9       0.7      21.0       3.4
 3 N  py              4.9       1.0       0.0       2.1       9.7       0.3
 3 N  dz2             0.1       0.1       0.2       0.1       0.9       2.9
 3 N  dxz             0.0       0.0       0.6       0.4       0.0       1.0
 3 N  dyz             1.2       0.0       0.0       0.7       0.1       0.0
 3 N  dx2y2           0.4       0.0       0.0       0.9       0.0       0.7
 3 N  dxy             0.7       0.0       0.0       0.5       0.1       0.2
 4 H  s               4.7       2.9       1.4       8.7       0.0       1.4
 4 H  pz              0.0       0.2       0.0       0.0       0.0       0.0
 4 H  px              0.2       0.0       0.0       0.1       0.0       0.2
 4 H  py              0.0       0.1       0.1       0.0       0.0       0.1
 5 H  s               0.0       4.0      10.0       1.5       0.2       0.6
 5 H  pz              0.0       0.0       0.1       0.0       0.0       0.1
 5 H  px              0.0       0.2       0.0       0.0       0.1       0.2
 5 H  py              0.2       0.0       0.0       0.1       0.0       0.0
 6 H  s              11.4       0.0       7.3       3.9       0.1       0.2
 6 H  pz              0.0       0.2       0.0       0.0       0.0       0.1
 6 H  py              0.1       0.0       0.1       0.0       0.0       0.0
 7 H  s               0.2       5.7      11.4       1.1       0.0       1.8
 7 H  pz              0.0       0.0       0.1       0.0       0.0       0.2
 7 H  px              0.0       0.2       0.0       0.0       0.0       0.2
 7 H  py              0.0       0.0       0.0       0.2       0.0       0.0
 8 H  s               0.1       0.4       9.8       8.0       0.0       0.8
 8 H  pz              0.0       0.2       0.0       0.0       0.0       0.0
 8 H  px              0.0       0.0       0.0       0.1       0.0       0.4
 8 H  py              0.0       0.0       0.1       0.0       0.0       0.2
 9 H  s               0.4       4.5       0.9       0.0       8.1       2.2
 9 H  px              0.0       0.0       0.0       0.1       0.0       0.8
 9 H  py              0.1       0.0       0.0       0.1       0.0       0.4
10 H  s              12.8       0.7       2.8       5.7       1.4       2.0
10 H  pz              0.0       0.0       0.0       0.0       0.0       0.3
10 H  px              0.0       0.0       0.0       0.1       0.0       0.0
10 H  py              0.2       0.0       0.0       0.0       0.0       0.7
11 H  s               3.9       0.0       0.1       1.0       0.8       8.1
11 H  pz              0.0       0.0       0.0       0.0       0.8       0.1
11 H  px              0.0       0.0       0.0       0.0       0.3       0.0
11 H  py              0.1       0.0       0.0       0.0       0.0       3.0
12 H  s               0.9       0.1       0.4       1.6       0.7       9.6
12 H  pz              0.1       0.0       0.0       0.0       0.7       0.0
12 H  px              0.1       0.0       0.0       0.0       0.1       2.2
12 H  py              0.0       0.0       0.0       0.0       0.3       1.2

                     18        19        20        21        22        23   
                   0.11719   0.12769   0.13295   0.14975   0.16391   0.17309
                   0.00000   0.00000   0.00000   0.00000   0.00000   0.00000
                  --------  --------  --------  --------  --------  --------
 0 C  s               6.1       3.3      24.1       1.1       1.8       2.6
 0 C  pz              2.2       1.7       3.4       5.1      10.4       2.4
 0 C  px              2.2       4.8       5.8       3.5       1.9       1.1
 0 C  py              1.6       1.2       0.1       3.5      12.1       7.1
 0 C  dz2             0.3       0.0       0.1       0.1       0.0       0.0
 0 C  dxz             0.2       0.1       0.0       0.3       1.5       0.0
 0 C  dyz             0.4       0.0       0.0       0.1       0.7       0.1
 0 C  dx2y2           0.0       0.0       0.0       0.0       0.2       0.2
 0 C  dxy             0.1       0.7       0.0       0.4       0.1       0.0
 1 C  s              14.5       5.9       0.6       1.0       6.9       1.4
 1 C  pz              6.5       3.7       3.3       5.3       1.6       7.4
 1 C  px              1.9       0.9      13.5       3.0       0.7       6.9
 1 C  py              0.3      10.6       1.0      10.5       0.1       5.0
 1 C  dz2             0.1       0.1       0.6       0.0       0.0       0.0
 1 C  dxz             0.0       0.5       0.2       0.1       0.1       0.7
 1 C  dyz             0.0       0.2       0.2       1.0       0.2       0.1
 1 C  dx2y2           0.1       0.3       0.0       1.2       0.2       0.0
 1 C  dxy             0.0       0.0       0.6       0.2       0.1       0.6
 2 C  s               4.8       0.2       6.8       0.8       4.7       4.4
 2 C  pz             10.1       1.6      11.9      10.3       5.6       2.0
 2 C  px              9.2       3.8       2.4       0.2       2.8       3.7
 2 C  py              1.8      18.4       0.7       7.4       1.7       6.1
 2 C  dz2             0.5       0.0       0.0       0.4       0.0       0.3
 2 C  dxz             0.2       0.1       0.1       0.2       0.5       0.9
 2 C  dyz             0.1       0.9       0.1       0.0       0.2       0.0
 2 C  dx2y2           0.0       0.0       0.1       1.6       0.3       0.2
 2 C  dxy             0.5       0.2       0.2       0.2       0.0       0.0
 3 N  s               3.3       0.1       0.8       0.5       0.8       0.3
 3 N  pz              1.6       0.4       0.6       1.2       0.6       1.1
 3 N  px              1.5       1.0       1.1       0.8       0.8       0.3
 3 N  py              0.4       5.2       0.1       4.5       0.4       2.5
 3 N  dz2             1.0       0.1       1.2       0.4       0.0       0.0
 3 N  dxz             0.7       0.5       0.5       1.8       0.0       0.8
 3 N  dyz             1.0       0.2       0.1       2.2       0.4       1.4
 3 N  dx2y2           0.8       3.2       0.2       0.9       0.1       9.7
 3 N  dxy             0.3       8.6       0.8       2.0       8.0       0.6
 4 H  s               1.4       0.6       2.3       0.8       4.5       0.0
 4 H  pz              0.0       0.1       0.0       0.4       0.4       0.0
 4 H  px              0.1       0.1       1.2       0.0       0.9       0.1
 4 H  py              0.8       0.1       0.7       0.1       0.0       0.0
 5 H  s               0.1       0.3       2.8       0.2       2.0       0.6
 5 H  pz              0.0       0.2       1.7       0.2       0.0       0.4
 5 H  px              0.2       0.0       0.3       0.0       0.2       0.1
 5 H  py              0.1       0.0       0.0       0.2       0.9       0.2
 6 H  s               3.2       1.1       2.0       0.1       1.3       3.0
 6 H  pz              0.4       0.0       0.1       0.0       0.8       0.4
 6 H  px              0.0       0.5       0.1       0.3       0.1       0.0
 6 H  py              0.9       0.5       1.3       0.0       0.1       1.0
 7 H  s               2.5       1.3       0.1       0.2       0.8       3.6
 7 H  pz              2.1       0.0       0.2       0.0       0.4       0.9
 7 H  px              0.2       0.0       0.7       0.2       0.1       0.9
 7 H  py              0.1       0.0       0.0       1.6       0.1       0.2
 8 H  s               1.8       2.1       0.5       7.9       0.6       0.0
 8 H  pz              0.2       0.1       0.2       1.3       0.2       0.0
 8 H  px              0.0       0.1       0.4       0.2       0.1       0.2
 8 H  py              1.0       2.2       0.3       0.8       0.4       0.1
 9 H  s               1.6       0.5       0.9       0.0      10.9       0.9
 9 H  pz              1.0       0.0       0.8       0.5       2.2       0.3
 9 H  px              0.1       0.1       0.1       0.1       1.2       0.1
 9 H  py              0.1       0.7       0.0       0.5       0.4       0.3
10 H  s               1.7       0.6       0.8       6.7       0.1       7.8
10 H  pz              0.2       0.4       0.2       0.3       0.2       0.0
10 H  px              0.8       0.2       0.1       0.1       0.0       0.3
10 H  py              0.5       0.5       0.8       1.4       0.0       3.0
11 H  s               2.3       3.9       0.2       2.9       0.4       0.9
11 H  pz              0.3       0.0       0.1       0.0       0.0       0.0
11 H  px              0.1       0.3       0.1       0.0       0.1       0.0
11 H  py              0.7       1.1       0.0       0.7       0.2       0.4
12 H  s               0.6       3.1       0.0       0.2       3.6       3.0
12 H  pz              0.0       0.0       0.1       0.2       0.0       0.0
12 H  px              0.2       0.8       0.0       0.2       0.6       1.1
12 H  py              0.2       0.1       0.0       0.0       0.4       0.0

                     24        25        26        27        28        29   
                   0.18800   0.20006   0.20584   0.22959   0.23929   0.24147
                   0.00000   0.00000   0.00000   0.00000   0.00000   0.00000
                  --------  --------  --------  --------  --------  --------
 0 C  s               0.1       0.0       0.2       2.2       0.3       3.7
 0 C  pz              5.0       0.3      11.6      10.8      14.7      20.6
 0 C  px              4.8      12.7      10.0       6.7       8.5       0.1
 0 C  py              6.6       9.2       4.3       8.7       5.0       1.7
 0 C  dz2             0.3       0.7       2.2       0.2       0.0       0.0
 0 C  dxz             0.0       0.3       1.3       1.2       0.4       0.5
 0 C  dyz             0.0       0.2       0.2       0.8       0.3       0.0
 0 C  dx2y2           0.0       0.8       2.3       0.2       0.1       0.1
 0 C  dxy             1.0       0.9       0.0       0.2       0.0       0.2
 1 C  s               0.0       0.4       0.0       2.3       1.1       0.7
 1 C  pz              9.0       0.2       1.1       7.6       2.3       8.0
 1 C  px              3.1       7.6       0.6       3.5       2.3       5.4
 1 C  py              5.3       2.0       2.4      11.4       4.4      11.5
 1 C  dz2             1.8       0.7       0.5       0.0       0.0       0.4
 1 C  dxz             0.5       0.1       0.0       0.0       0.4       1.2
 1 C  dyz             0.0       0.4       0.0       0.0       0.0       1.1
 1 C  dx2y2           0.6       0.4       0.0       0.1       0.2       0.6
 1 C  dxy             0.0       0.8       1.0       0.0       0.8       0.0
 2 C  s               0.8       0.6       0.5       0.2       0.7       0.6
 2 C  pz              0.6       4.2       0.1       1.5       6.2       1.0
 2 C  px              2.1       9.0       1.6       3.4       3.2       1.0
 2 C  py              4.0       7.0       2.6       3.5       3.5       1.6
 2 C  dz2             0.1       0.6       0.3       0.0       1.0       0.0
 2 C  dxz             0.3       0.0       0.0       0.2       0.5       0.1
 2 C  dyz             0.0       0.0       0.1       0.2       0.0       0.0
 2 C  dx2y2           0.1       0.2       0.1       0.3       0.2       0.0
 2 C  dxy             0.3       0.9       0.0       0.1       0.1       1.2
 3 N  s               0.8       0.1       0.3       0.0       0.1       0.0
 3 N  pz              0.6       0.7       0.1       0.1       3.1       1.9
 3 N  px              1.9       2.0       2.9       0.7       3.4       1.0
 3 N  py              5.9       0.5       0.2       0.3       1.4       0.8
 3 N  dz2             0.0       0.8       0.4       0.6       6.9       0.0
 3 N  dxz             2.2       0.1       1.1       1.5       0.5       0.8
 3 N  dyz             0.3       1.3       0.6       0.7       0.4       4.6
 3 N  dx2y2           1.4       1.4       0.1       2.2       1.1       0.0
 3 N  dxy             0.6       0.0       0.0       3.1       0.0       0.0
 4 H  s               1.4      13.4       0.3       1.7       1.0       0.4
 4 H  pz              0.0       0.2       1.1       0.1       0.6       0.3
 4 H  px              0.1       3.4       0.5       0.1       0.5       0.1
 4 H  py              0.1       0.8       1.1       1.0       0.0       0.0
 5 H  s               0.8       2.2      19.8       1.6       1.4       6.4
 5 H  pz              0.5       1.1       1.9       0.1       0.4       1.4
 5 H  px              0.1       0.0       0.7       0.8       0.1       0.9
 5 H  py              0.2       0.0       0.3       0.3       0.3       0.1
 6 H  s               2.6       1.1      13.7       3.4       0.2       2.1
 6 H  pz              0.0       0.0       0.3       1.0       0.0       0.1
 6 H  px              0.7       0.6       0.2       0.1       0.1       0.2
 6 H  py              0.8       0.3       2.8       0.4       0.2       0.1
 7 H  s              11.6       0.8       0.6       0.9       3.4       0.7
 7 H  pz              2.7       0.3       0.0       0.2       1.0       0.2
 7 H  px              0.7       0.2       0.2       0.1       0.0       0.8
 7 H  py              0.0       0.0       0.3       0.0       0.4       1.2
 8 H  s               3.9       0.1       1.7       2.4       1.5       7.5
 8 H  pz              0.2       0.0       0.1       0.0       0.2       1.0
 8 H  px              0.2       0.4       0.8       0.0       0.4       0.0
 8 H  py              1.8       0.0       0.1       0.8       0.2       0.9
 9 H  s               0.1       1.9       0.3       3.7       0.1       1.2
 9 H  pz              0.0       0.7       0.0       0.7       0.1       0.1
 9 H  px              0.0       0.0       0.0       1.1       0.7       0.3
 9 H  py              0.0       0.6       0.0       0.0       0.6       0.1
10 H  s               0.3       0.2       1.3       2.3       2.5       1.4
10 H  pz              0.0       0.0       0.1       0.3       0.3       0.0
10 H  px              0.1       0.7       0.0       0.0       0.0       1.0
10 H  py              0.0       0.3       0.2       0.6       0.4       0.4
11 H  s               4.9       0.1       0.7       0.2       6.8       0.4
11 H  pz              0.2       0.0       0.1       0.0       0.0       0.0
11 H  px              0.4       0.0       0.0       0.2       0.0       0.0
11 H  py              1.2       0.0       0.2       0.1       1.7       0.0
12 H  s               3.2       2.5       1.4       1.1       0.5       0.0
12 H  pz              0.1       0.0       0.0       0.0       0.3       0.1
12 H  px              0.8       0.7       0.4       0.1       0.0       0.0
12 H  py              0.1       0.0       0.2       0.3       0.5       0.0

                     30        31        32        33        34        35   
                   0.25181   0.25872   0.27272   0.29919   0.31473   0.33439
                   0.00000   0.00000   0.00000   0.00000   0.00000   0.00000
                  --------  --------  --------  --------  --------  --------
 0 C  s               0.6       0.1       0.2       0.2       0.1       0.9
 0 C  pz              0.8       7.8       0.2       1.1       0.6       0.7
 0 C  px             11.2       0.4      14.3       7.0       1.2       3.1
 0 C  py              3.5      10.1      28.7       0.5       1.0       2.6
 0 C  dz2             0.1       0.0       0.2       0.2       0.1       0.7
 0 C  dxz             0.0       0.0       0.0       0.0       0.1       0.0
 0 C  dyz             0.2       0.1       0.0       0.1       0.1       0.2
 0 C  dx2y2           0.0       0.2       0.3       0.0       0.4       0.0
 0 C  dxy             0.0       0.4       0.9       0.0       0.0       0.2
 1 C  s               0.2       1.4       0.2       0.1       1.3       0.1
 1 C  pz              1.9       2.7       0.9       3.3      16.7       4.7
 1 C  px             14.5       0.4       1.2       1.3       9.2       0.1
 1 C  py              1.4      20.4       1.8       0.3       7.7       2.4
 1 C  dz2             0.4       0.0       0.0       0.2       0.5       0.3
 1 C  dxz             0.3       0.0       0.0       0.5       1.2       0.0
 1 C  dx2y2           0.3       0.0       0.9       0.2       0.3       0.5
 1 C  dxy             0.5       0.0       0.1       0.1       0.0       0.0
 2 C  s               2.0       0.2       0.7       0.8       1.3       2.9
 2 C  pz              4.1       1.3       1.1      18.1       4.1       8.4
 2 C  px              1.7      11.6       4.2       3.5       5.5       3.0
 2 C  py             17.6       0.5       4.6       1.9       0.5       9.0
 2 C  dz2             0.0       0.6       0.0       0.0       0.1       0.3
 2 C  dxz             0.0       0.2       0.0       0.1       0.7       0.5
 2 C  dyz             0.1       0.0       0.0       0.0       0.0       1.3
 2 C  dx2y2           0.1       0.3       1.5       0.0       0.1       0.4
 2 C  dxy             0.3       0.2       0.1       0.0       0.1       0.1
 3 N  s               0.5       1.1       1.4       1.1       0.8       0.8
 3 N  pz              1.0       5.0       3.3      11.0       6.5       0.7
 3 N  px              2.9       1.3       0.0       8.2      10.5       0.1
 3 N  py              3.2       0.6       1.3       0.7       0.4       7.6
 3 N  dz2             1.0       1.7       0.5       5.7       0.6       2.7
 3 N  dxz             0.1       0.4       0.8      11.3       2.5       1.3
 3 N  dyz             0.0       0.5       0.2       0.4       1.1       4.4
 3 N  dx2y2           2.0       0.1       1.2       2.5       1.3       5.4
 3 N  dxy             2.0       0.1       0.5       2.1       3.6       0.2
 4 H  s               1.5       4.2       4.9       0.3       0.3       4.6
 4 H  pz              0.1       0.0       0.0       0.0       0.3       0.1
 4 H  px              0.5       1.2       0.0       0.0       0.3       0.6
 4 H  py              0.1       0.1       0.1       0.0       0.3       0.7
 5 H  s               0.7       0.5       0.2       0.4       0.2       0.4
 5 H  pz              0.6       0.2       0.0       0.1       0.0       0.2
 5 H  px              0.0       0.1       0.4       0.2       0.9       0.5
 5 H  py              0.2       0.3       0.5       0.1       0.0       0.4
 6 H  s               2.0       6.1       1.3       0.4       0.4       0.3
 6 H  pz              0.2       0.0       0.0       0.2       0.3       0.4
 6 H  px              0.0       0.8       0.3       0.0       0.2       0.1
 6 H  py              0.6       1.7       0.3       0.0       0.2       0.4
 7 H  s               1.0       0.4       0.8       5.5       4.0       1.0
 7 H  pz              0.1       0.4       0.6       0.8       0.0       0.0
 7 H  px              0.5       0.0       0.0       0.9       0.0       0.0
 7 H  py              0.0       0.0       0.2       0.1       0.2       0.0
 8 H  s               0.1       4.1       4.6       1.5       1.2       1.2
 8 H  pz              0.2       0.0       0.0       0.4       0.7       0.1
 8 H  px              0.6       0.1       0.1       0.0       0.0       0.1
 8 H  py              0.0       1.8       0.6       0.5       0.0       0.0
 9 H  s               0.3       0.1       0.8       0.8       5.3      13.6
 9 H  pz              0.0       0.0       0.1       0.0       1.5       1.7
 9 H  px              0.0       0.7       0.0       0.0       0.0       0.3
 9 H  py              0.4       0.0       1.2       0.0       0.1       0.1
10 H  s               1.3       0.0       9.0       0.4       0.6       1.4
10 H  pz              0.3       0.1       0.0       0.1       0.1       2.1
10 H  px              0.1       0.4       0.0       0.0       0.0       0.1
10 H  py              0.4       0.0       1.5       0.0       0.4       0.1
11 H  s               3.8       2.6       0.1       0.8       0.1       2.8
11 H  pz              0.1       0.0       0.1       0.7       0.1       0.1
11 H  px              0.5       0.0       0.0       0.8       0.1       0.0
11 H  py              0.6       0.9       0.0       0.0       0.0       0.0
12 H  s               6.1       2.7       0.5       1.1       1.5       0.2
12 H  pz              0.0       0.0       0.0       0.7       0.2       0.0
12 H  px              2.0       0.6       0.2       0.3       0.0       0.0
12 H  py              0.3       0.2       0.0       0.2       0.1       0.4

                     36        37        38        39        40        41   
                   0.39263   0.40838   0.41389   0.44764   0.46637   0.49152
                   0.00000   0.00000   0.00000   0.00000   0.00000   0.00000
                  --------  --------  --------  --------  --------  --------
 0 C  s               6.5       0.6       2.6       2.9       2.1      29.7
 0 C  pz              1.2       0.2       8.8       2.3       0.6       7.2
 0 C  px              3.6       1.7       1.7       1.1       3.0       2.6
 0 C  py              0.5       0.0       2.1       2.3       1.1       1.9
 0 C  dz2             0.2       0.0       0.0       0.1       0.1       0.0
 0 C  dxz             0.2       0.0       1.0       0.2       0.0       0.4
 0 C  dyz             0.0       0.0       0.1       0.1       0.0       0.4
 0 C  dx2y2           0.0       0.2       0.0       0.0       0.1       0.0
 0 C  dxy             0.1       0.2       0.8       0.3       0.2       0.0
 1 C  s               5.5       0.7       4.7       0.6      11.0       1.9
 1 C  pz              6.0       0.2       5.3      10.5       0.6       0.0
 1 C  px              2.3       1.4       0.1      38.7       2.4       2.8
 1 C  py              0.9       1.7       4.8       0.0       7.6       0.6
 1 C  dz2             0.3       0.4       0.1       0.2       0.3       0.1
 1 C  dxz             0.2       0.0       0.2       0.5       0.3       0.0
 1 C  dyz             0.0       0.1       0.3       0.1       0.1       0.1
 1 C  dx2y2           0.1       0.1       0.3       0.0       0.0       0.0
 1 C  dxy             0.0       0.0       0.0       1.1       0.3       0.2
 2 C  s               5.0       2.7       4.5       1.8       0.7       1.8
 2 C  pz              1.4       8.8       4.1       0.2       2.2       0.4
 2 C  px              6.1       0.7       0.6       4.5      15.9       1.6
 2 C  py              1.1       2.0       4.8       4.4       1.1       0.3
 2 C  dz2             0.4       0.3       0.0       0.4       0.1       0.1
 2 C  dxz             0.2       0.0       0.4       0.2       0.4       0.0
 2 C  dyz             0.0       0.1       0.3       0.0       0.1       0.1
 2 C  dx2y2           0.0       0.2       0.5       0.0       0.1       0.1
 2 C  dxy             0.0       0.0       0.0       0.8       0.9       0.0
 3 N  s               0.9       1.0       2.9       0.2       0.5       0.5
 3 N  pz              5.7       1.0      26.3       1.9      13.4       0.8
 3 N  px              0.6       9.4       0.6       0.5       2.4       2.4
 3 N  py              7.9      13.0       2.2       0.3       1.9       0.3
 3 N  dz2             0.0       0.6       4.3       0.4       8.5       1.1
 3 N  dxz             0.3       5.9       1.9       0.5       0.7       5.8
 3 N  dyz             9.3       2.2       2.9       0.4       5.8       3.5
 3 N  dx2y2           0.2      20.4       1.5       0.6       0.2       0.5
 3 N  dxy             7.1       8.4       0.8       2.3       5.7       0.1
 4 H  s               3.2       1.4       0.0       2.5       0.6       2.6
 4 H  pz              0.1       0.0       0.1       0.4       0.2       0.0
 4 H  px              0.4       0.1       0.0       1.1       0.3       0.7
 4 H  py              0.4       0.6       0.0       0.0       0.0       0.5
 5 H  s               1.5       0.1       0.0       3.1       1.4       6.4
 5 H  pz              0.7       0.0       0.0       0.8       0.8       2.0
 5 H  px              0.0       0.0       0.1       0.1       0.0       0.5
 5 H  py              0.1       0.2       0.0       0.1       0.0       0.1
 6 H  s               0.9       0.2       1.3       3.1       0.1       5.2
 6 H  pz              0.1       0.0       0.1       0.0       0.1       0.4
 6 H  px              0.1       0.1       0.5       0.4       0.3       0.3
 6 H  py              0.7       0.3       0.2       0.4       0.0       1.5
 7 H  s               6.5       0.4       0.8       0.4       0.4       2.5
 7 H  pz              1.2       0.1       0.1       0.0       0.0       0.8
 7 H  px              0.1       0.0       0.0       0.0       0.2       0.0
 7 H  py              0.0       0.2       0.0       0.0       0.1       0.0
 8 H  s               0.7       0.1       2.2       0.1       0.2       2.5
 8 H  pz              0.3       0.0       0.0       0.0       0.1       0.0
 8 H  px              0.1       0.0       0.0       0.1       0.0       0.2
 8 H  py              0.2       0.0       0.6       0.1       0.0       0.6
 9 H  s               0.6       2.1       0.2       2.5       0.4       2.2
 9 H  pz              0.0       0.0       0.1       0.3       0.2       0.6
[...]
 3 N  pz              0.2       0.2       0.7       0.1       1.5       0.2
 3 N  px              0.0       0.0       0.1       0.1       0.6       0.0
 3 N  py              0.1       0.0       0.3       0.1       0.1       0.2
 3 N  dz2             0.0       0.0       0.5       0.1       2.1       0.1
 3 N  dxz             0.7       0.3       1.5       0.3       5.1       0.1
 3 N  dyz             0.7       0.0       0.4       0.3       2.2       0.1
 3 N  dx2y2           0.1       0.0       0.0       0.1       0.6       0.1
 3 N  dxy             0.1       0.1       0.2       0.1       2.3       0.3
 4 H  s               5.5       0.8       1.3       3.2       0.3       0.6
 4 H  pz              0.0       0.5       0.1       0.4       0.0       0.0
 4 H  px             11.3       0.3       2.5       5.4       0.4       1.1
 4 H  py              5.5       1.8       0.4       1.6       0.3       0.3
 5 H  s               0.6       5.1       0.2       4.0       0.6       1.7
 5 H  pz              1.3       9.5       0.2       7.8       0.8       4.0
 5 H  px              1.5       3.4       0.0       2.5       0.7       0.3
 5 H  py              0.0       0.0       0.4       0.0       0.0       0.1
 6 H  s               0.4       2.2       6.8       0.2       0.4       0.2
 6 H  pz              0.1       0.1       1.4       0.1       0.0       0.0
 6 H  px              0.3       0.0       1.4       0.3       0.5       0.0
 6 H  py              0.2       5.5      14.9       0.4       0.7       0.6
 7 H  s               0.2       5.3       0.1       1.6       1.5       2.7
 7 H  pz              0.2      10.0       0.4       4.3       3.2       4.0
 7 H  px              0.6       2.8       0.2       0.5       1.0       1.8
 7 H  py              1.0       0.1       0.0       0.1       0.1       0.0
 8 H  s               1.8       1.2       1.4       0.9       0.9       3.8
 8 H  pz              1.7       0.2       0.1       0.3       0.0       0.0
 8 H  px              0.0       0.2       0.0       0.1       0.2       0.3
 8 H  py              4.1       2.8       3.5       3.1       1.9       8.8
 9 H  s               0.6       0.0       0.1       0.0       4.3       3.0
 9 H  pz              1.0       0.0       0.2       0.0       7.2       3.7
 9 H  px              0.2       0.0       0.0       0.1       2.9       2.6
 9 H  py              0.1       0.5       0.1       0.4       1.4       0.4
10 H  s               0.3       0.7       2.7       2.3       0.2       4.2
10 H  pz              0.1       0.0       0.1       0.0       0.5       1.1
10 H  px              0.1       0.1       0.1       0.5       0.0       0.0
10 H  py              0.3       1.8       6.8       6.1       0.1       9.2
11 H  s               0.0       0.0       0.6       0.1       1.4       0.0
11 H  px              0.0       0.2       0.0       0.0       0.7       0.0
11 H  py              0.6       0.1       1.4       0.2       4.0       0.0
12 H  s               0.1       0.0       0.2       0.0       1.2       0.0
12 H  px              0.2       0.0       0.9       0.0       4.3       0.1
12 H  py              0.0       0.2       0.6       0.0       0.5       0.0

                    120       121       122       123       124       125   
                   4.08643   4.32027  21.89392  21.98325  22.01286  31.82172
                   0.00000   0.00000   0.00000   0.00000   0.00000   0.00000
                  --------  --------  --------  --------  --------  --------
 0 C  s               0.1       0.0      48.4      50.0       1.2       0.0
 1 C  s               0.1       0.0      15.2      25.5      59.0       0.0
 1 C  pz              0.1       0.0       0.0       0.0       0.0       0.0
 1 C  px              0.1       0.0       0.0       0.0       0.0       0.0
 1 C  dz2             0.1       0.0       0.0       0.0       0.0       0.0
 1 C  dxz             0.1       0.0       0.0       0.0       0.0       0.0
 2 C  s               1.4       0.0      35.9      24.2      39.6       0.0
 2 C  pz              5.1       0.0       0.0       0.0       0.0       0.0
 2 C  px              1.9       0.0       0.0       0.0       0.0       0.0
 2 C  py              0.1       0.0       0.0       0.0       0.0       0.0
 2 C  dz2             3.1       0.0       0.0       0.0       0.0       0.0
 2 C  dxz             6.7       0.0       0.0       0.0       0.0       0.0
 2 C  dyz             0.2       0.0       0.0       0.0       0.0       0.0
 2 C  dx2y2           0.8       0.2       0.0       0.0       0.0       0.0
 2 C  dxy             0.1       0.1       0.0       0.0       0.0       0.0
 3 N  s               1.4       0.0       0.0       0.0       0.0      99.8
 3 N  pz              7.5       0.4       0.0       0.0       0.0       0.0
 3 N  px             11.1       2.4       0.0       0.0       0.0       0.0
 3 N  py              0.9      12.9       0.0       0.0       0.0       0.0
 3 N  dz2            26.4       0.0       0.0       0.0       0.0       0.0
 3 N  dxz             7.4       0.4       0.0       0.0       0.0       0.0
 3 N  dyz             0.2       0.4       0.0       0.0       0.0       0.0
 3 N  dx2y2           1.6      25.2       0.0       0.0       0.0       0.0
 3 N  dxy             1.7      19.1       0.0       0.0       0.0       0.0
 7 H  s               0.1       0.0       0.0       0.0       0.0       0.0
 7 H  pz              0.2       0.0       0.0       0.0       0.0       0.0
 7 H  px              0.1       0.0       0.0       0.0       0.0       0.0
 9 H  s               0.2       0.0       0.0       0.0       0.0       0.0
 9 H  px              0.3       0.0       0.0       0.0       0.0       0.0
 9 H  py              0.1       0.0       0.0       0.0       0.0       0.0
10 H  s               0.3       0.1       0.0       0.0       0.0       0.0
10 H  pz              0.1       0.0       0.0       0.0       0.0       0.0
10 H  py              0.5       0.1       0.0       0.0       0.0       0.0
11 H  s               2.8       8.1       0.0       0.0       0.0       0.0
11 H  pz              0.0       0.6       0.0       0.0       0.0       0.0
11 H  px              0.0       0.7       0.0       0.0       0.0       0.0
11 H  py              5.9      10.3       0.0       0.0       0.0       0.0
12 H  s               3.6       7.8       0.0       0.0       0.0       0.0
12 H  pz              0.1       0.0       0.0       0.0       0.0       0.0
12 H  px              3.8       8.7       0.0       0.0       0.0       0.0
12 H  py              3.0       2.2       0.0       0.0       0.0       0.0



                      *****************************
                      * MAYER POPULATION ANALYSIS *
                      *****************************

  NA   - Mulliken gross atomic population
  ZA   - Total nuclear charge
  QA   - Mulliken gross atomic charge
  VA   - Mayer's total valence
  BVA  - Mayer's bonded valence
  FA   - Mayer's free valence

  ATOM       NA         ZA         QA         VA         BVA        FA
  0 C      6.4895     6.0000    -0.4895     3.8256     3.8256    -0.0000
  1 C      6.2111     6.0000    -0.2111     3.6571     3.6571    -0.0000
  2 C      6.1752     6.0000    -0.1752     3.7230     3.7230    -0.0000
  3 N      7.5721     7.0000    -0.5721     2.6871     2.6871    -0.0000
  4 H      0.8593     1.0000     0.1407     0.9629     0.9629     0.0000
  5 H      0.8254     1.0000     0.1746     0.9580     0.9580     0.0000
  6 H      0.8640     1.0000     0.1360     0.9680     0.9680    -0.0000
  7 H      0.8646     1.0000     0.1354     0.9652     0.9652    -0.0000
  8 H      0.8744     1.0000     0.1256     0.9691     0.9691    -0.0000
  9 H      0.8774     1.0000     0.1226     0.9541     0.9541    -0.0000
 10 H      0.8619     1.0000     0.1381     0.9602     0.9602    -0.0000
 11 H      0.7620     1.0000     0.2380     0.9352     0.9352    -0.0000
 12 H      0.7630     1.0000     0.2370     0.9331     0.9331     0.0000

  Mayer bond orders larger than 0.100000
B(  0-C ,  1-C ) :   0.9111 B(  0-C ,  4-H ) :   0.9746 B(  0-C ,  5-H ) :   0.9771 
B(  0-C ,  6-H ) :   0.9773 B(  1-C ,  2-C ) :   0.9534 B(  1-C ,  7-H ) :   0.9655 
B(  1-C ,  8-H ) :   0.9730 B(  2-C ,  3-N ) :   0.8937 B(  2-C ,  9-H ) :   0.9546 
B(  2-C , 10-H ) :   0.9875 B(  3-N , 11-H ) :   0.9210 B(  3-N , 12-H ) :   0.9181 


-------
TIMINGS
-------

Total SCF time: 0 days 0 hours 0 min 9 sec 

Total time                  ....       9.072 sec
Sum of individual times     ....       8.831 sec  ( 97.3%)

SCF preparation             ....       0.897 sec  (  9.9%)
Fock matrix formation       ....       5.618 sec  ( 61.9%)
  Startup                   ....       0.007 sec  (  0.1% of F)
  Split-RI-J                ....       0.753 sec  ( 13.4% of F)
  XC integration            ....       4.767 sec  ( 84.9% of F)
    XC Preparation          ....       0.000 sec  (  0.0% of XC)
    Basis function eval.    ....       0.940 sec  ( 19.7% of XC)
    Density eval.           ....       1.362 sec  ( 28.6% of XC)
    XC-Functional eval.     ....       0.798 sec  ( 16.7% of XC)
    XC-Potential eval.      ....       1.456 sec  ( 30.5% of XC)
Diagonalization             ....       0.000 sec  (  0.0%)
Density matrix formation    ....       0.033 sec  (  0.4%)
Total Energy calculation    ....       0.002 sec  (  0.0%)
Population analysis         ....       2.183 sec  ( 24.1%)
Orbital Transformation      ....       0.011 sec  (  0.1%)
Orbital Orthonormalization  ....       0.000 sec  (  0.0%)
DIIS solution               ....       0.078 sec  (  0.9%)
  MO trafo                  ....       0.000 sec  (  0.0 % of DIIS)
  Orb grad                  ....       0.000 sec  (  0.0 % of DIIS)
  Energy W gradient         ....       0.000 sec  (  0.0 % of DIIS)
  DIIS error                ....       0.003 sec  (  3.4 % of DIIS)
  DIIS work                 ....       0.069 sec  ( 88.3 % of DIIS)
  Form Q                    ....       0.000 sec  (  0.0 % of DIIS)
  Form QpQm                 ....       0.000 sec  (  0.0 % of DIIS)
  Exp/Cayley                ....       0.000 sec  (  0.0 % of DIIS)
  Orb update                ....       0.000 sec  (  0.0 % of DIIS)
  Wake-sleep                ....       0.001 sec  (  1.4 % of DIIS)
SOSCF solution              ....       0.010 sec  (  0.1%)
  MO trafo                  ....       0.007 sec  ( 77.2 % of SOSCF)
  Orb grad                  ....       0.000 sec  (  0.7 % of SOSCF)
  Rot update                ....       0.000 sec  (  0.2 % of SOSCF)
  Step                      ....       0.002 sec  ( 21.5 % of SOSCF)
Finished LeanSCF after  10.8 sec

Maximum memory used throughout the entire LEANSCF-calculation: 13.5 MB


-------------------------------------------------------------------------------
                          DFT DISPERSION CORRECTION                            
                                                                               
                                DFTD4 V3.4.0                                   
-------------------------------------------------------------------------------
The R2SCAN3C composite method is recognized
Using three-body term ABC
Active option DFTDOPT                   ...         5   

-------------------------   ----------------
Dispersion correction           -0.002460980
-------------------------   ----------------

------------------   -----------------
gCP correction             0.009237746
------------------   -----------------

-------------------------   --------------------
FINAL SINGLE POINT ENERGY      -174.423902383815
-------------------------   --------------------


------------------------------------------------------------------------------
                              ORCA PROPERTY CALCULATIONS
------------------------------------------------------------------------------

GBWName                                 ... sp.gbw
Number of atoms                         ...     13
Number of basis functions               ...    126
Max core memory                         ...   1024 MB

Electric properties:
Dipole moment                           ... YES
Quadrupole moment                       ...  NO
Static polarizability (Dipole/Dipole)   ...  NO
Static polarizability (Dipole/Quad.)    ...  NO
Static polarizability (Quad./Quad.)     ...  NO
Static polarizability (Velocity)        ...  NO

Atomic electric properties:
Dipole moment                           ...  NO
Quadrupole moment                       ...  NO
Static polarizability                   ...  NO

Choice of electric origin               ... Center of mass
Position of electric origin             ...     0.000009     0.000000     0.000004

General magnetic properties:
Magnetizability                         ...  NO

EPR properties:
g-Tensor (aka g-matrix)                 ...  NO
Zero-Field splitting spin-orbit         ...  NO
Zero-field splitting spin-spin          ...  NO
Hyperfine couplings                     ...  NO (   0 nuclei)
Quadrupole couplings                    ...  NO (   0 nuclei)
Contact density                         ...  NO (   0 nuclei)

NMR properties:
Chemical shifts                         ...  NO (   0 nuclei)
Spin-rotation constants                 ...  NO (   0 nuclei)
Spin-spin couplings                     ...  NO (   0 nuclei,    0 pairs)

Choice of magnetic origin               ... GIAO
Position of magnetic origin             ...     0.000000     0.000000     0.000000

Properties with geometric perturbations:
SCF Hessian                             ...  NO
IR spectrum                             ...  NO
VCD spectrum                            ...  NO
X-ray spectroscopy properties:
SCF XES/XAS/RIXS spectra                ...  NO


-------------
DIPOLE MOMENT
-------------

Method             : SCF
Type of density    : Electron Density
Multiplicity       :   1
Irrep              :   0
Energy             :  -174.4306791499010956 Eh
Relativity type    : 
Basis              : AO
                                X                 Y                 Z
Electronic contribution:      1.532615776       0.023116149       0.088642652
Nuclear contribution   :     -1.213888402      -0.202120391      -0.401685733
                        -----------------------------------------
Total Dipole Moment    :      0.318727374      -0.179004242      -0.313043081
                        -----------------------------------------
Magnitude (a.u.)       :      0.481275003
Magnitude (Debye)      :      1.223303840



--------------------
Rotational spectrum 
--------------------
 
Rotational constants in cm-1:             0.462322             0.169046             0.144404 
Rotational constants in MHz :         13860.060537          5067.877099          4329.120406 

Dipole components along the rotational axes: 
x,y,z [a.u.] :     0.306818     0.342599    -0.141825 
x,y,z [Debye]:     0.779869     0.870818    -0.360490 

 

Dipole moment calculation done in   0.5 sec 

Maximum memory used throughout the entire PROP-calculation: 7.5 MB

--------------------------------
SUGGESTED CITATIONS FOR THIS RUN
--------------------------------

Below you find a list of papers that are relevant to this ORCA run
We neither can nor want to force you to cite these papers, but we appreciate if you do
You receive ORCA, which is the product of decades of hard work by many enthusiastic individuals, for free
The only thing we kindly ask in return is that you cite our papers,
We deeply appreciate it, if you show your appreciation for ORCA by not just citing the generic ORCA reference.

Please note that relegating all ORCA citations to the supporting information does *not* help us.
SI sections are not indexed - citations you put there will not count into any citation statistics
But we need these citations in order to attract the funding resources that allow us to do what we are doing

Therefore, if you are a happy ORCA user, please consider citing a few of the papers listed below in the main body of your paper

In addition to the list printed below, the program has created the file sp.bibtex that contains the list in bibtex format
You can import this file easily into all common literature databanks and citation aid programs


List of essential papers. We consider these as the minimum necessary citations

  1. Neese,F.
     Software update: the ORCA program system, version 5.0
     WIRES Comput. Molec. Sci., 2022 12(1)e1606
     doi.org/10.1002/wcms.1606
  2. Grimme,S.; Hansen,A.; Ehlert,S.; Mewes,J.
     r2SCAN-3c: A 'Swiss army knife' composite electronic-structure method
     J. Chem. Phys., 2021 154 064103
     doi.org/10.1063/5.0040021

List of papers to cite with high priority. The work reported in these papers was absolutely
necessary for this run to complete.
Our perspective: the developers of density functionals and basis sets usually get cited in chemistry papers
Good! But without the algorithms to do something with them, the functionals or basis sets would not do anything.
Hence, in our opinion, the algorithm design and method developments papers are equally worthy of getting cited

  1. Neese,F.
     An improvement of the resolution of the identity approximation for the formation of the Coulomb matrix
     J. Comp. Chem., 2003 24(14)1740-1747
     doi.org/10.1002/jcc.10318
  2. Neese,F.
     The SHARK Integral Generation and Digestion System
     J. Comp. Chem., 2022  1-16
     doi.org/10.1002/jcc.26942
  3. Lehtola,S.; Steigemann,C.; Oliveira,M.; Marques,M.
     Recent developments in Libxc - A comprehensive library of functionals for density functional theory
     Software X, 2018 7 
     doi.org/10.1016/j.softx.2017.11.002
  4. Caldeweyher,E.; Bannwarth,C.; Grimme,S.
     Extension of the D3 dispersion coefficient model
     J. Chem. Phys., 2017 147 034112
     doi.org/10.1063/1.4993215
  5. Caldeweyher,E.; Ehlert,S.; Hansen,A.; Neugebauer,H.; Spicher,S.; Bannwarth,C.; Grimme,S.
     A generally applicable atomic-charge dependent London dispersion correction
     J. Chem. Phys., 2019 150 154122
     doi.org/10.1063/1.5090222
  6. Caldeweyher,E.; Mewes,J.; Ehlert,S.; Grimme,S.
     Extension and evaluation of the D4 London-dispersion model for periodic systems
     Phys. Chem. Chem. Phys., 2020 22(16)8499-8512
     doi.org/10.1039/D0CP00502A
  7. Wittmann,L.; Gordiy,I.; Friede,M.; Helmich-Paris,B.; Grimme,S.; Hansen,A.; Bursch,M.
     Extension of the D3 and D4 London Dispersion Corrections to the full Actinides Series
     Phys. Chem. Chem. Phys., 2024 26(32)21379-21394
     doi.org/https://doi.org/10.1039/D4CP01514B 

List of suggested additional citations. These are papers that are important in the 'surrounding' of 
of this run, or papers that preceded the highly important papers. If you like your results we are grateful for a citation.

  1. Neese,F.
     The ORCA program system
     WIRES Comput. Molec. Sci., 2012 2(1)73-78
     doi.org/10.1002/wcms.81
  2. Neese,F.
     Software update: the ORCA program system, version 4.0
     WIRES Comput. Molec. Sci., 2018 8(1)1-6
     doi.org/10.1002/wcms.1327
  3. Neese,F.; Wennmohs,F.; Becker,U.; Riplinger,C.
     The ORCA quantum chemistry program package
     J. Chem. Phys., 2020 152 Art. No. L224108
     doi.org/10.1063/5.0004608

List of optional additional citations

  1. Neese,F.
     Approximate second-order SCF convergence for spin unrestricted wavefunctions
     Chem. Phys. Lett., 2000 325(1-3)93-98
     doi.org/10.1016/s0009-2614(00)00662-x

Timings for individual modules:

Sum of individual times          ...       11.852 sec (=   0.198 min)
Startup calculation              ...        0.440 sec (=   0.007 min)   3.7 %
SCF iterations                   ...       10.890 sec (=   0.182 min)  91.9 %
Property calculations            ...        0.521 sec (=   0.009 min)   4.4 %
                             ****ORCA TERMINATED NORMALLY****
TOTAL RUN TIME: 0 days 0 hours 0 minutes 14 seconds 146 msec
