12
 energy: -15.011930683992 gnorm: 0.039237896684 xtb: 6.7.1 (edcfbbe)
C            2.17706325838027        0.58348343404720        0.25545699159363
C            1.09270209347506       -0.14729228768209       -0.53052849240820
C           -0.04179490072581       -0.68178241104699        0.39152416859604
C           -1.34279941122034       -0.12020772770643        0.07058359412193
N           -2.36398593312775        0.34530945171120       -0.20595548981305
H            2.96269300747897        0.94897757047205       -0.41160424554426
H            1.76134705728695        1.44447639537697        0.78869683417303
H            2.64400759790926       -0.07791030948807        0.99280385270905
H            0.66277955776976        0.52166892628614       -1.28088672287587
H            1.52884338159884       -0.98815507996584       -1.07745341848149
H            0.17616107434112       -0.44475111839929        1.43944769012010
H           -0.12235470707019       -1.77210475707772        0.33185988237830
12
 energy: -15.012808283148 gnorm: 0.012276667522 xtb: 6.7.1 (edcfbbe)
C            2.16509210765810        0.58052315738712        0.25655689300653
C            1.08401948228270       -0.14876406977252       -0.52764122644234
C           -0.03487032675151       -0.68278039014957        0.39790563616411
C           -1.31986005183789       -0.11611441107990        0.06855505329856
N           -2.32466437749228        0.34436013616976       -0.21242448229880
H            2.94162843237457        0.94173136830984       -0.41609095271702
H            1.74879056656273        1.43791377105064        0.78494406143371
H            2.63050096327502       -0.08276876360431        0.98596353932901
H            0.65328734697334        0.52855433939030       -1.26897160994251
H            1.52864974117319       -0.98520106467704       -1.07114915165765
H            0.18204541616178       -0.43490231099199        1.44184497980492
H           -0.11995722428360       -1.77083967550522        0.32445190459068
12
 energy: -15.012859686625 gnorm: 0.001629033584 xtb: 6.7.1 (edcfbbe)
C            2.16321156811457        0.58145930050198        0.25635043107440
C            1.08202800132203       -0.15120951093669       -0.52535995897376
C           -0.03322615955188       -0.68653438255928        0.39989291900954
C           -1.31268951403130       -0.11692596963634        0.06469308127354
N           -2.31679569248881        0.35256813982438       -0.21500826031591
H            2.93654034684033        0.94302830001128       -0.41784431036603
H            1.74473682362438        1.43671809355945        0.78342017248479
H            2.62859099204270       -0.08125409184932        0.98400313946826
H            0.64919889064097        0.52757758609450       -1.26369462379695
H            1.52992224243847       -0.98391426521792       -1.07052877289999
H            0.18319555444677       -0.43613410333733        1.44235252511747
H           -0.12005097730211       -1.77366700992758        0.32566830249385
12
 energy: -15.012836271809 gnorm: 0.004292034913 xtb: 6.7.1 (edcfbbe)
C            2.16288522635239        0.58195100567009        0.25638141866419
C            1.08055171401094       -0.15312185986136       -0.52446068618176
C           -0.03276767903610       -0.68855790589744        0.40198562768106
C           -1.30680762537537       -0.10647474633718        0.07243461322025
N           -2.31265643053683        0.35026973693287       -0.22541100022418
H            2.93340740662353        0.94458745532321       -0.41944899582103
H            1.74249336296618        1.43575026604164        0.78301911759884
H            2.62940308977819       -0.07996678808200        0.98300565278059
H            0.64596846030467        0.52715392648020       -1.26028951651530
H            1.52936087054237       -0.98278009186751       -1.07270104494195
H            0.18775465084489       -0.44241701820862        1.44389599627201
H           -0.12493097037872       -1.77468189366678        0.32553346203650
12
 energy: -15.012862625584 gnorm: 0.001582013662 xtb: 6.7.1 (edcfbbe)
C            2.16253347258027        0.58270814521280        0.25659809579748
C            1.08109064460415       -0.15383181631572       -0.52458950853932
C           -0.03308097434571       -0.68939836933144        0.40119225572504
C           -1.30787766150260       -0.11089212809138        0.06761027561936
N           -2.31131025139903        0.35604747678772       -0.22012442041666
H            2.93320305391808        0.94537255081836       -0.41918750176188
H            1.74127420092895        1.43675601294764        0.78243835554227
H            2.62932178584793       -0.07829228897369        0.98408461715115
H            0.64668200627527        0.52521117954846       -1.26167576056120
H            1.53078736554366       -0.98379918181298       -1.07169464507567
H            0.18569253365108       -0.44245835702009        1.44339127308502
H           -0.12365410000592       -1.77571113724255        0.32590160800360
12
 energy: -15.012866930238 gnorm: 0.000598343873 xtb: 6.7.1 (edcfbbe)
C            2.16171005627492        0.58365880362666        0.25663637705770
C            1.08232196091300       -0.15446025160552       -0.52500433774938
C           -0.03328575810137       -0.68971703898391        0.40004406545109
C           -1.30948479069393       -0.11303716867917        0.06569104925947
N           -2.31131803144207        0.36103430895102       -0.21462120455731
H            2.93321524084246        0.94631989229825       -0.41871291560769
H            1.73920623659009        1.43823976298426        0.78142268290790
H            2.62875998696520       -0.07616656137682        0.98560942801305
H            0.64883226192608        0.52243120608011       -1.26472522855102
H            1.53294559984000       -0.98634657859038       -1.06879282712684
H            0.18505004448265       -0.44395478130824        1.44308242028686
H           -0.12329073150090       -1.77628950686914        0.32331513518536
12
 energy: -15.012869676027 gnorm: 0.000344377364 xtb: 6.7.1 (edcfbbe)
C            2.16079549807762        0.58457455841430        0.25659646076553
C            1.08262919393649       -0.15577866983134       -0.52486357368905
C           -0.03316836217627       -0.69089849643582        0.39980125798278
C           -1.30806995719112       -0.11110894276419        0.06686810416010
N           -2.30922794586676        0.36409718547249       -0.21390587589066
H            2.93202803867776        0.94766795954705       -0.41864616160671
H            1.73690952200592        1.43891508476161        0.78036939592675
H            2.62823088829713       -0.07398351876941        0.98625897093880
H            0.64898830084674        0.51990576742390       -1.26553008615380
H            1.53468817928798       -0.98754848050412       -1.06751394720042
H            0.18606808693618       -0.44702156152442        1.44295459994186
H           -0.12520936673553       -1.77710879926293        0.32155549939403
12
 energy: -15.012942508655 gnorm: 0.004839567635 xtb: 6.7.1 (edcfbbe)
C            2.14002061213297        0.60496822110817        0.25628209371375
C            1.09181625040360       -0.18391538680554       -0.52375808598589
C           -0.03050234897881       -0.71479083414021        0.39275732815873
C           -1.28206825147015       -0.07245097427426        0.09062118659472
N           -2.26851285091392        0.43466515900479       -0.18932098601703
H            2.90797341888664        0.97624459775337       -0.41610272118694
H            1.68488853251452        1.45633378229090        0.75633535886244
H            2.61555411221327       -0.02519029480613        1.00404239427943
H            0.65717296821686        0.46220377792431       -1.29002207389538
H            1.57495371902922       -1.01781454501877       -1.03588779058231
H            0.20761462266209       -0.51456162005891        1.44050769660568
H           -0.16424870860020       -1.79397979645061        0.27849024402199
12
 energy: -15.013082162365 gnorm: 0.009378904386 xtb: 6.7.1 (edcfbbe)
C            2.11983684494426        0.62440780723401        0.25566131447228
C            1.10163214866888       -0.20996312382005       -0.52298682214300
C           -0.02808355129884       -0.73618630310754        0.38491395867620
C           -1.25862877891953       -0.03854331640267        0.11169389965710
N           -2.23058805469174        0.50246212912445       -0.16015668919155
H            2.88632522583844        1.00229730323369       -0.41336746540790
H            1.63446386264827        1.47339105137328        0.73180448980717
H            2.60122279811405        0.02179585657791        1.02232781219428
H            0.66825397824880        0.40649098514404       -1.31567129373042
H            1.61404452949050       -1.04743462575642       -1.00298261458382
H            0.22642891999208       -0.57907396774557        1.43734786435479
H           -0.20024584693909       -1.80793170932802        0.23536019046406
12
 energy: -15.013288196758 gnorm: 0.011184566621 xtb: 6.7.1 (edcfbbe)
C            2.10290230922924        0.63895302834841        0.25472493389294
C            1.11074346228262       -0.22894291604405       -0.52311960250800
C           -0.02596445081571       -0.74993302299398        0.37728991201318
C           -1.24091682112394       -0.01426456528752        0.12842606750285
N           -2.20176627037379        0.55315523389597       -0.13064013415419
H            2.87051738350197        1.02047405417703       -0.41063263107681
H            1.59392783365350        1.48617379675739        0.71062370569050
H            2.58577915838156        0.05830677103743        1.03797843483473
H            0.68190021029821        0.36204352682684       -1.33886228531470
H            1.64504074860049       -1.07090872864063       -0.97355228883293
H            0.23930223506958       -0.62949883331791        1.43316208188991
H           -0.22680372260769       -1.81384625823187        0.19854645063173
12
 energy: -15.013510646431 gnorm: 0.009804187232 xtb: 6.7.1 (edcfbbe)
C            2.09206118857630        0.64703560930116        0.25363111321753
C            1.11751431958551       -0.23897669805210       -0.52339425247059
C           -0.02478089852398       -0.75591208891217        0.37128735928747
C           -1.23114331803512       -0.00276595086734        0.13754733155543
N           -2.18541176259168        0.58135531143530       -0.10689671432079
H            2.86252077093419        1.02937643938742       -0.40850107173551
H            1.56963519947414        1.49330837527488        0.69612028586542
H            2.57297649914058        0.07974864849683        1.04812760913108
H            0.69428315663377        0.33499076500365       -1.35409059326964
H            1.66316952533587       -1.08461605832959       -0.95283938487596
H            0.24461686774620       -0.65867545435552        1.42842491471577
H           -0.24077947217974       -1.81315681185543        0.17452804746900
12
 energy: -15.014292088730 gnorm: 0.027091522972 xtb: 6.7.1 (edcfbbe)
C            2.03506438434405        0.69149421922725        0.24754078502007
C            1.15420916957208       -0.29328718735229       -0.52230674475582
C           -0.02028740643597       -0.79154659041981        0.33958625979707
C           -1.18010558422362        0.05974014069850        0.18500898221500
N           -2.09848882891198        0.73283163980227        0.01823953566726
H            2.82131354643533        1.07716399500146       -0.39780180924816
H            1.44438403546285        1.53487690039593        0.61655374275014
H            2.50805505595470        0.19739847450549        1.10177801432220
H            0.75796172611881        0.18855024903620       -1.42961815787339
H            1.75873501434737       -1.15650480289025       -0.84050411793594
H            0.27236813624755       -0.81672552259825        1.40218865095068
H           -0.31854717281519       -1.81227942887939        0.04327950366008
12
 energy: -15.011459173999 gnorm: 0.053591959696 xtb: 6.7.1 (edcfbbe)
C            2.01460744247821        0.69566950079296        0.23408955428568
C            1.19101551981196       -0.28073581791839       -0.51143298220708
C           -0.03108875067893       -0.77299578903742        0.31244415211168
C           -1.19567416765034        0.02552619687568        0.17235367231311
N           -2.10207401896660        0.72289634289489        0.14390575556949
H            2.84743871022534        1.05363848789506       -0.39347437629088
H            1.44414927112138        1.55205204636813        0.55824723567655
H            2.45425967180019        0.22960975869861        1.12024329716792
H            0.83738412872361        0.13701371443903       -1.44157921882952
H            1.76319401218192       -1.15923857181609       -0.74302535749228
H            0.23249083553325       -0.84856042512594        1.35793006670445
H           -0.32104057848403       -1.74316335753942       -0.04575715443993
12
 energy: -15.014586354750 gnorm: 0.036188028361 xtb: 6.7.1 (edcfbbe)
C            2.01256938585558        0.70795742638813        0.23999604575482
C            1.18088370898982       -0.30173146451854       -0.51793555342416
C           -0.02509632860332       -0.78682428904265        0.31647443827445
C           -1.17728775380051        0.07803607121568        0.21110937986457
N           -2.08608365254544        0.75115107728713        0.11188718794257
H            2.82671072181805        1.07437735914233       -0.39128793959675
H            1.41341487332129        1.56019966437917        0.56317895651135
H            2.46014193151936        0.24463833603715        1.12572660645964
H            0.82201285706659        0.12339926040391       -1.46379394453858
H            1.79097184362686       -1.18158391498147       -0.75576261903664
H            0.26455712759132       -0.88427656982704        1.37554416549642
H           -0.34813263874366       -1.77363086995668       -0.05119207913849
12
 energy: -15.012405531896 gnorm: 0.099541101461 xtb: 6.7.1 (edcfbbe)
C            2.00635956588553        0.71789598070833        0.24635689442479
C            1.17099052029647       -0.33178182014251       -0.51961929188720
C           -0.02069149234699       -0.82681752074263        0.31013159654427
C           -1.15030214971375        0.07446510915279        0.18959889646499
N           -2.04177527240121        0.83618185803433        0.11484141665309
H            2.79645246995247        1.10005587172216       -0.38887464832903
H            1.37598339441284        1.55963378528100        0.56391751268579
H            2.46340650309960        0.26443484202655        1.12886408901286
H            0.80166260277798        0.10997881749878       -1.45486116159120
H            1.81632053265289       -1.18603802614614       -0.78336676710882
H            0.25710375276721       -0.88301516326288        1.36351581420349
H           -0.34084835128711       -1.82328164760268       -0.00655970650383
12
 energy: -15.015174876593 gnorm: 0.007896556507 xtb: 6.7.1 (edcfbbe)
C            2.00919295524685        0.70923573780646        0.24182349195862
C            1.17451290725839       -0.31541406485712       -0.51806983152212
C           -0.02054802508805       -0.80339486757061        0.31895569260957
C           -1.15820940856101        0.08215613744098        0.20246504187693
N           -2.05789412159919        0.78261328120846        0.09903875293023
H            2.80719516616423        1.08984625272385       -0.39322554412997
H            1.39473959128405        1.55114537151936        0.56726897954863
H            2.46426589127654        0.24939743895487        1.12110814712246
H            0.80927015974696        0.12053670188947       -1.45172077167811
H            1.79550295821872       -1.17826117453745       -0.77418381914631
H            0.26281351548273       -0.88301808454058        1.37497271605030
H           -0.34617951333426       -1.79313064351059       -0.02448821105103
12
 energy: -15.015113569947 gnorm: 0.020531465630 xtb: 6.7.1 (edcfbbe)
C            1.97772488499510        0.72931204380516        0.23406834805345
C            1.19853445823076       -0.33385254919067       -0.51379242173436
C           -0.02137176834328       -0.81217430943197        0.30059590942730
C           -1.13570612423191        0.10913208204980        0.22919584318738
N           -2.01586884763954        0.83916157023501        0.17920657733992
H            2.79372904252105        1.10559382075563       -0.38921146690308
H            1.33996004985437        1.57034687968719        0.51714395363457
H            2.42052071219651        0.30938383326107        1.14669256586452
H            0.85665431353385        0.04224571143504       -1.48999413447058
H            1.83980071830995       -1.20938705418929       -0.69433399311304
H            0.26773173170559       -0.96675072224264        1.35572525244247
H           -0.38704709503653       -1.77129921964724       -0.11135178915935
12
 energy: -15.015513262774 gnorm: 0.009843620502 xtb: 6.7.1 (edcfbbe)
C            1.98523893342082        0.72276962242316        0.23548478807262
C            1.18872523430015       -0.33089591688923       -0.51354402285705
C           -0.02134749411961       -0.81426679330450        0.30638766799954
C           -1.13503577158084        0.10182275166635        0.22066818346439
N           -2.01477596749442        0.82782723210659        0.15177867486233
H            2.79043308552045        1.10587331077001       -0.39196500200763
H            1.35177615694764        1.55759855477877        0.53312981888173
H            2.43295810016672        0.29146191985756        1.13308921663439
H            0.84050427339520        0.06504525738149       -1.47304368491700
H            1.82838817069817       -1.19599929054169       -0.71875904428120
H            0.26152423069170       -0.93974083943888        1.35843408441503
H           -0.37372687585006       -1.77978372228253       -0.07771603569795
12
 energy: -15.015769318712 gnorm: 0.005084583338 xtb: 6.7.1 (edcfbbe)
C            1.97511468220855        0.72799742435644        0.23395500386466
C            1.19123334785283       -0.34434255798488       -0.51082601095749
C           -0.02025626701221       -0.82629427280134        0.30242231308737
C           -1.11521433454930        0.11268212074304        0.22820934733487
N           -1.98094494940289        0.85686326257818        0.16393156366892
H            2.77543019473700        1.11556747074538       -0.39296492311923
H            1.32530181880303        1.55704528624030        0.51660866197104
H            2.42124510031424        0.31226391773746        1.13847439868001
H            0.84831039596641        0.04494734733682       -1.47087048482893
H            1.83940113186535       -1.19954492282019       -0.70936594201427
H            0.25865797086147       -0.96292051988416        1.35176592366934
H           -0.38361701554856       -1.78255246971996       -0.08739520678707
12
 energy: -15.016074654295 gnorm: 0.009127718822 xtb: 6.7.1 (edcfbbe)
C            1.94514723419380        0.74430180313686        0.22797141077101
C            1.20108520797213       -0.37015885707350       -0.50571943476248
C           -0.01980646604476       -0.84976803059007        0.28843168805550
C           -1.07287683305390        0.13854624120919        0.25251038634225
N           -1.90644862726525        0.92315850055893        0.21240331193061
H            2.74478377631322        1.13817933527945       -0.39162001257374
H            1.26773293000885        1.55891885086727        0.47654401149251
H            2.38125313104893        0.36445911045556        1.14930840198871
H            0.87579637993501       -0.01510348081436       -1.48583460401987
H            1.87804184653432       -1.21502516455467       -0.66082886885024
H            0.25225808106756       -1.02653412757799        1.33105784753353
H           -0.41230458461402       -1.77926209436958       -0.13027949333858
12
 energy: -15.016212368813 gnorm: 0.008383167984 xtb: 6.7.1 (edcfbbe)
C            1.92446947043286        0.75486895134776        0.22265795193386
C            1.21289367054863       -0.38725303021034       -0.50059193327879
C           -0.02003674282393       -0.86225691817659        0.27792219151824
C           -1.04385084106808        0.15618147441406        0.27392253956157
N           -1.85496604138397        0.96419754000748        0.25465081641636
H            2.73095246093418        1.14579729663326       -0.39018602354577
H            1.22458339106812        1.56661506961129        0.43237716738557
H            2.34651222550666        0.40871872271741        1.16818669503782
H            0.90307812966690       -0.05820300564576       -1.49394776660769
H            1.90030433178196       -1.22578056382643       -0.62387345994744
H            0.24800996583696       -1.08191461081456        1.31739050367208
H           -0.43728794440443       -1.76925883953050       -0.17456403757659
12
 energy: -15.016261025111 gnorm: 0.003788758566 xtb: 6.7.1 (edcfbbe)
C            1.92139767215313        0.75624747713591        0.22112787330989
C            1.21340004153304       -0.38576722892228       -0.49987774798242
C           -0.02057928960978       -0.86321486129829        0.27685038874531
C           -1.05172917969793        0.14439198585445        0.27709505390499
N           -1.83945006295370        0.97253779070095        0.26282523800761
H            2.73557585000074        1.14176114442701       -0.38656410551785
H            1.22474294122114        1.56920609550598        0.42045744356439
H            2.33251839003147        0.41467107169744        1.17010330517083
H            0.90565680503249       -0.05684560490547       -1.49462207394208
H            1.90030665878383       -1.22597362813045       -0.62042016237758
H            0.24677811775986       -1.08631346030541        1.31424245777121
H           -0.43395586815841       -1.76898869523275       -0.17727302608508
12
 energy: -15.016299954888 gnorm: 0.007955045197 xtb: 6.7.1 (edcfbbe)
C            1.92126635066674        0.75620637352508        0.21954959345392
C            1.21613430850356       -0.38516492814615       -0.49957646819919
C           -0.02063978751358       -0.86035286942516        0.27550154433394
C           -1.04195949926785        0.15380248407024        0.28397971886872
N           -1.85118807889763        0.95797207215696        0.27342207747496
H            2.74606216840666        1.13270835623939       -0.38141347056305
H            1.22906262983698        1.57306269977104        0.40362553476924
H            2.31768432409787        0.42060452159817        1.17444134967707
H            0.91077168360009       -0.05632722511401       -1.49579768718729
H            1.89963311596441       -1.22934789415970       -0.61695056746375
H            0.24625150718703       -1.09133343458125        1.31000773007789
H           -0.43841664648842       -1.76011806940753       -0.18284471067326
12
 energy: -15.016336449394 gnorm: 0.001331814217 xtb: 6.7.1 (edcfbbe)
C            1.92035144130669        0.75712310778156        0.21967353305791
C            1.21633903850093       -0.38549457260061       -0.49997468360844
C           -0.02063406296523       -0.86173479096102        0.27442300995630
C           -1.04248998324536        0.15280013241366        0.28635788320659
N           -1.84990617929846        0.96186405798454        0.27896639490485
H            2.74980010204979        1.12827513407418       -0.37821846725964
H            1.22880188191874        1.57795611969321        0.39506250722964
H            2.31120196561533        0.42484406345333        1.17915984542281
H            0.91104689270528       -0.05915853213631       -1.49688360025414
H            1.90076383076750       -1.22883524852777       -0.61629895831981
H            0.24800177399540       -1.09528341360898        1.30846531564723
H           -0.43861462525474       -1.76064397103871       -0.18678813541409
12
 energy: -15.016365662672 gnorm: 0.004091132477 xtb: 6.7.1 (edcfbbe)
C            1.91703382791801        0.76023944415525        0.21813142126343
C            1.21712222370786       -0.38609260222885       -0.50056500205529
C           -0.02070879188474       -0.86514942061701        0.27171886279809
C           -1.04207232415790        0.15052181098807        0.29436910770900
N           -1.84220055380216        0.96849320150646        0.29617199043141
H            2.76220285637844        1.11503834024132       -0.36843369749335
H            1.22897021488722        1.59126317824097        0.36793782508297
H            2.28687316356635        0.43751151634876        1.19085619058485
H            0.91339561513728       -0.06459690047391       -1.49933767807898
H            1.90418131330125       -1.22760565132094       -0.61296019709108
H            0.25049946349175       -1.10806486711959        1.30370692377633
H           -0.44063493244749       -1.75984596319345       -0.19765110235817
12
 energy: -15.016378944952 gnorm: 0.002810889084 xtb: 6.7.1 (edcfbbe)
C            1.91557628338234        0.76143618265172        0.21699428614285
C            1.21767796406530       -0.38658850489609       -0.50076920283880
C           -0.02038664226570       -0.86613498124568        0.27073874869425
C           -1.03971384045144        0.15146155407562        0.29789528592691
N           -1.83982747383161        0.96891546291269        0.30314950168627
H            2.76686809511909        1.10988123172534       -0.36416598805177
H            1.22957447031925        1.59552469086157        0.35707569243361
H            2.27587531760731        0.44283581198561        1.19447762806711
H            0.91472584780129       -0.06637189391929       -1.50015928566511
H            1.90593250220939       -1.22740185002081       -0.61121412801170
H            0.25077261833366       -1.11362933835687        1.30161606953182
H           -0.44241306619301       -1.75821627924673       -0.20169396334626
12
 energy: -15.016391940500 gnorm: 0.000487393720 xtb: 6.7.1 (edcfbbe)
C            1.91304437026514        0.76324382713083        0.21549366217402
C            1.21844378938467       -0.38762907478145       -0.50097008664369
C           -0.01970300681739       -0.86789518062695        0.26919002913246
C           -1.03584585946067        0.15272314876585        0.30255782308616
N           -1.83424982048442        0.97087819957190        0.31289008517025
H            2.77169984319606        1.10374688607764       -0.35831136911748
H            1.22935230253796        1.60032913728020        0.34258536323192
H            2.26051615336594        0.45050346747419        1.19882884198595
H            0.91675165031710       -0.06925256587465       -1.50129039047085
H            1.90882776106687       -1.22711022061249       -0.60837763746110
H            0.25089803600394       -1.12165663880758        1.29847109167827
H           -0.44507314327932       -1.75616889907041       -0.20712276819671
12
 energy: -15.016398001818 gnorm: 0.000650139823 xtb: 6.7.1 (edcfbbe)
C            1.90987667619268        0.76535449252306        0.21404145245282
C            1.21967067503921       -0.38913610083579       -0.50114868112204
C           -0.01906688331110       -0.86991739176221        0.26696023284524
C           -1.03126172346288        0.15442105680750        0.30815619173408
N           -1.82770954700306        0.97403749701455        0.32535723051441
H            2.77683069795599        1.09723754649062       -0.35183819369503
H            1.22786974732325        1.60564296362809        0.32543113373252
H            2.24307225522978        0.45962619193567        1.20418157444725
H            0.92021938004040       -0.07348051500609       -1.50302546386042
H            1.91227917257844       -1.22735887288869       -0.60443780801319
H            0.25110836017906       -1.13105168844724        1.29436505550841
H           -0.44822673466587       -1.75366309293239       -0.21409807997486
12
 energy: -15.016399486099 gnorm: 0.000200608811 xtb: 6.7.1 (edcfbbe)
C            1.90879169399940        0.76616487177676        0.21353970615985
C            1.22039856065507       -0.38988838131956       -0.50101757759078
C           -0.01929633712706       -0.87053503790716        0.26576131528978
C           -1.03037837386004        0.15472828568407        0.31027647347094
N           -1.82546274427021        0.97579634653492        0.33092267074837
H            2.77822381675913        1.09583841904322       -0.34980717700851
H            1.22707811059694        1.60739117634367        0.31946508281062
H            2.23793638680306        0.46343452599896        1.20583211866170
H            0.92256609273734       -0.07611315692968       -1.50397633733307
H            1.91352060828377       -1.22796850650208       -0.60196069260690
H            0.25083043389426       -1.13462090072131        1.29249885421329
H           -0.44954617237579       -1.75251555547473       -0.21758979224611
12
 energy: -15.016400203119 gnorm: 0.000155462044 xtb: 6.7.1 (edcfbbe)
C            1.90815617553515        0.76674758421767        0.21314611483097
C            1.22112161335334       -0.39045309231444       -0.50078573737608
C           -0.01956899964096       -0.87066721686477        0.26482965261517
C           -1.02979187229789        0.15529412939318        0.31163942615476
N           -1.82449878086873        0.97672185548079        0.33502912240326
H            2.77859909479476        1.09548740022982       -0.34929919806791
H            1.22615438463348        1.60817974815954        0.31620004560312
H            2.23555599854485        0.46572014664681        1.20655834604275