
                                 *****************
                                 * O   R   C   A *
                                 *****************

                                            #,                                       
                                            ###                                      
                                            ####                                     
                                            #####                                    
                                            ######                                   
                                           ########,                                 
                                     ,,################,,,,,                         
                               ,,#################################,,                 
                          ,,##########################################,,             
                       ,#########################################, ''#####,          
                    ,#############################################,,   '####,        
                  ,##################################################,,,,####,       
                ,###########''''           ''''###############################       
              ,#####''   ,,,,##########,,,,          '''####'''          '####       
            ,##' ,,,,###########################,,,                        '##       
           ' ,,###''''                  '''############,,,                           
         ,,##''                                '''############,,,,        ,,,,,,###''
      ,#''                                            '''#######################'''  
     '                                                          ''''####''''         
             ,#######,   #######,   ,#######,      ##                                
            ,#'     '#,  ##    ##  ,#'     '#,    #''#        ,####,   ,####,        
            ##       ##  ##   ,#'  ##            #'  '#       #'       #'  '#        
            ##       ##  #######   ##           ,######,      #####,   #    #        
            '#,     ,#'  ##    ##  '#,     ,#' ,#      #,     #,   #   #,  ,#        
             '#######'   ##     ##  '#######'  #'      '#     '####' # '####'        



                #########################################################
                #                        -***-                          #
                #          Department of theory and spectroscopy        #
                #                                                       #
                #                      Frank Neese                      #
                #                                                       #
                #     Directorship, Architecture, Infrastructure        #
                #                    SHARK, DRIVERS                     #
                #        Core code/Algorithms in most modules           #
                #                                                       #
                #        Max Planck Institute fuer Kohlenforschung      #
                #                Kaiser Wilhelm Platz 1                 #
                #                 D-45470 Muelheim/Ruhr                 #
                #                      Germany                          #
                #                                                       #
                #                  All rights reserved                  #
                #                        -***-                          #
                #########################################################


                         Program Version 6.0.0  -   RELEASE  -


 With contributions from (in alphabetic order):
   Daniel Aravena         : Magnetic Suceptibility
   Michael Atanasov       : Ab Initio Ligand Field Theory (pilot matlab implementation)
   Alexander A. Auer      : GIAO ZORA, VPT2 properties, NMR spectrum
   Ute Becker             : All parallelization in ORCA, NUMFREQ, NUMCALC
   Giovanni Bistoni       : ED, misc. LED, open-shell LED, HFLD
   Martin Brehm           : Molecular dynamics
   Dmytro Bykov           : pre 5.0 version of the SCF Hessian
   Marcos Casanova-Páez   : Triplet and SCS-CIS(D). UHF-(DLPNO)-IP/EA/STEOM-CCSD. UHF-CVS-IP/STEOM-CCSD
   Vijay G. Chilkuri      : MRCI spin determinant printing, contributions to CSF-ICE
   Pauline Colinet        : FMM embedding
   Dipayan Datta          : RHF DLPNO-CCSD density
   Achintya Kumar Dutta   : EOM-CC, STEOM-CC
   Nicolas Foglia         : Exact transition moments, OPA infrastructure, MCD improvements
   Dmitry Ganyushin       : Spin-Orbit,Spin-Spin,Magnetic field MRCI
   Miquel Garcia          : C-PCM and meta-GGA Hessian, CCSD/C-PCM, Gaussian charge scheme
   Tiago L. C. Gouveia    : GS-ROHF, GS-ROCIS
   Yang Guo               : DLPNO-NEVPT2, F12-NEVPT2, CIM, IAO-localization
   Andreas Hansen         : Spin unrestricted coupled pair/coupled cluster methods
   Ingolf Harden          : AUTO-CI MPn and infrastructure 
   Benjamin Helmich-Paris : MC-RPA, TRAH-(SCF,CASSCF), AVAS, COSX integrals, SCF dyn. polar.
   Lee Huntington         : MR-EOM, pCC
   Robert Izsak           : Overlap fitted RIJCOSX, COSX-SCS-MP3, EOM
   Riya Kayal             : Wick's Theorem for AUTO-CI, AUTO-CI UHF-CCSDT
   Emily Kempfer          : AUTO-CI, RHF CISDT and CCSDT
   Christian Kollmar      : KDIIS, OOCD, Brueckner-CCSD(T), CCSD density, CASPT2, CASPT2-K, improved NEVPT2
   Axel Koslowski         : Symmetry handling
   Simone Kossmann        : Meta GGA functionals, TD-DFT gradient, OOMP2, (MP2 Hessian; deprecated post 5.0)
   Lucas Lang             : DCDCAS
   Marvin Lechner         : AUTO-CI (C++ implementation), FIC-MRCC
   Spencer Leger          : CASSCF response
   Dagmar Lenk            : GEPOL surface, SMD, ORCA-2-JSON
   Dimitrios Liakos       : Extrapolation schemes; Compound Job, initial MDCI parallelization
   Dimitrios Manganas     : Further ROCIS development; embedding schemes. LFT, Crystal Embedding
   Dimitrios Pantazis     : SARC Basis sets
   Anastasios Papadopoulos: AUTO-CI, single reference methods and gradients
   Taras Petrenko         : pre 6.0 DFT Hessian and TD-DFT gradient, (ASA, deprecated), ECA, 1-Electron XAS/XES, NRVS
   Peter Pinski           : DLPNO-MP2, DLPNO-MP2 Gradient
   Christoph Reimann      : Effective Core Potentials
   Marius Retegan         : Local ZFS, SOC
   Christoph Riplinger    : Optimizer, TS searches, QM/MM, DLPNO-CCSD(T), (RO)-DLPNO pert. Triples
   Michael Roemelt        : Original ROCIS implementation
   Masaaki Saitow         : Open-shell DLPNO-CCSD energy and density
   Barbara Sandhoefer     : DKH picture change effects
   Kantharuban Sivalingam : CASSCF convergence/infrastructure, NEVPT2 and variants, FIC-MRCI
   Bernardo de Souza      : ESD, SOC TD-DFT
   Georgi Stoychev        : AutoAux, RI-MP2 NMR, DLPNO-MP2 response, X2C
   Van Anh Tran           : RI-MP2 g-tensors
   Willem Van den Heuvel  : Paramagnetic NMR
   Zikuan Wang            : NOTCH, Electric field optimization 
   Frank Wennmohs         : Technical directorship and infrastructure
   Hang Xu                : AUTO-CI-Response properties 


 We gratefully acknowledge several colleagues who have allowed us to
 interface, adapt or use parts of their codes:
   Stefan Grimme, W. Hujo, H. Kruse, P. Pracht,  : VdW corrections, initial TS optimization,
                  C. Bannwarth, S. Ehlert,         DFT functionals, gCP, sTDA/sTD-DF
                  L. Wittmann, M. Mueller
   Ed Valeev, F. Pavosevic, A. Kumar             : LibInt (2-el integral package), F12 methods
   Garnet Chan, S. Sharma, J. Yang, R. Olivares  : DMRG
   Ulf Ekstrom                                   : XCFun DFT Library
   Mihaly Kallay                                 : mrcc  (arbitrary order and MRCC methods)
   Frank Weinhold                                : gennbo (NPA and NBO analysis)
   Simon Mueller                                 : openCOSMO-RS
   Christopher J. Cramer and Donald G. Truhlar   : smd solvation model
   Lars Goerigk                                  : TD-DFT with DH, B97 family of functionals
   V. Asgeirsson, H. Jonsson                     : NEB implementation
   FAccTs GmbH                                   : IRC, NEB, NEB-TS, DLPNO-Multilevel, CI-OPT
                                                   MM, QMMM, 2- and 3-layer-ONIOM, Crystal-QMMM,
                                                   LR-CPCM, SF, NACMEs, symmetry and pop. for TD-DFT,
                                                   nearIR, NL-DFT gradient (VV10), updates on ESD,
                                                   ML-optimized integration grids, MBIS, APM,
                                                   GOAT, DOCKER, SOLVATOR, interface openCOSMO-RS
   S Lehtola, MJT Oliveira, MAL Marques          : LibXC Library
   Liviu Ungur et al                             : ANISO software


 Your calculation uses the libint2 library for the computation of 2-el integrals
 For citations please refer to: http://libint.valeyev.net

 Your ORCA version has been built with support for libXC version: 6.2.2
 For citations please refer to: https://libxc.gitlab.io

 This ORCA versions uses:
   CBLAS   interface :  Fast vector & matrix operations
   LAPACKE interface :  Fast linear algebra routines
   SCALAPACK package :  Parallel linear algebra routines
   Shared memory     :  Shared parallel matrices
   BLAS/LAPACK       :  OpenBLAS 0.3.27  USE64BITINT DYNAMIC_ARCH NO_AFFINITY SkylakeX SINGLE_THREADED
        Core in use  :  SkylakeX
   Copyright (c) 2011-2014, The OpenBLAS Project




***************************************
The coordinates will be read from file: vacuum_censo.xyz
***************************************


Your calculation utilizes the geometrical counterpoise correction gCP
Please cite in your paper:
H.Kruse, S. Grimme J.Chem.Phys., 136, (2012), 154101 
   

Your calculation utilizes the atom-pairwise dispersion correction
based on EEQ partial charges (D4)


================================================================================

----- Orbital basis set information -----
Your calculation utilizes the basis: def2-TZVP
   F. Weigend and R. Ahlrichs, Phys. Chem. Chem. Phys. 7, 3297 (2005).

----- AuxJ basis set information -----
Your calculation utilizes the basis: def2-mTZVPP/J
   Stefan Grimme, Andreas Hansen, Sebastian Ehlert, and Jan-Michael Mewes 
   J. Chem. Phys. 154, 000000 (2021). DOI: 10.1063/5.0040021

================================================================================
                                        WARNINGS
                       Please study these warnings very carefully!
================================================================================

Using LibXC functional ID 497 : Re-regularized SCAN exchange by Furness et al
[ 1]  J. W. Furness, A. D. Kaplan, J. Ning, J. P. Perdew, and J. Sun.,  J. Phys. Chem. Lett. 11, 8208-8215 (2020)
[ 2]  J. W. Furness, A. D. Kaplan, J. Ning, J. P. Perdew, and J. Sun.,  J. Phys. Chem. Lett. 11, 9248-9248 (2020)
Using LibXC functional ID 498 : Re-regularized SCAN correlation by Furness et al
[ 1]  J. W. Furness, A. D. Kaplan, J. Ning, J. P. Perdew, and J. Sun.,  J. Phys. Chem. Lett. 11, 8208-8215 (2020)
[ 2]  J. W. Furness, A. D. Kaplan, J. Ning, J. P. Perdew, and J. Sun.,  J. Phys. Chem. Lett. 11, 9248-9248 (2020)
Using LibXC functional ID 497 : Re-regularized SCAN exchange by Furness et al
[ 1]  J. W. Furness, A. D. Kaplan, J. Ning, J. P. Perdew, and J. Sun.,  J. Phys. Chem. Lett. 11, 8208-8215 (2020)
[ 2]  J. W. Furness, A. D. Kaplan, J. Ning, J. P. Perdew, and J. Sun.,  J. Phys. Chem. Lett. 11, 9248-9248 (2020)
Using LibXC functional ID 498 : Re-regularized SCAN correlation by Furness et al
[ 1]  J. W. Furness, A. D. Kaplan, J. Ning, J. P. Perdew, and J. Sun.,  J. Phys. Chem. Lett. 11, 8208-8215 (2020)
[ 2]  J. W. Furness, A. D. Kaplan, J. Ning, J. P. Perdew, and J. Sun.,  J. Phys. Chem. Lett. 11, 9248-9248 (2020)

================================================================================
                                       INPUT FILE
================================================================================
NAME = vacuum_censo.inp
|  1> ! r2SCAN-3c DEF2-TZVP FREQ
|  2> * xyzfile 0 1 vacuum_censo.xyz
|  3> 
|  4>                          ****END OF INPUT****
================================================================================

                       ****************************
                       * Single Point Calculation *
                       ****************************

---------------------------------
CARTESIAN COORDINATES (ANGSTROEM)
---------------------------------
  C     -1.675938    1.176215    0.000071
  C     -2.311168   -0.062942    0.000131
  C     -1.522802   -1.205373    0.000119
  N     -0.182799   -1.174294    0.000005
  C      0.388643    0.010347   -0.000075
  C     -0.289729    1.227971   -0.000026
  Cl     2.151242    0.040088   -0.000195
  H     -2.251994    2.095794    0.000091
  H     -3.392275   -0.141995    0.000200
  H     -1.974073   -2.195244    0.000129
  H      0.250997    2.166030   -0.000078

----------------------------
CARTESIAN COORDINATES (A.U.)
----------------------------
  NO LB      ZA    FRAG     MASS         X           Y           Z
   0 C     6.0000    0    12.011   -3.167065    2.222724    0.000134
   1 C     6.0000    0    12.011   -4.367475   -0.118943    0.000248
   2 C     6.0000    0    12.011   -2.877678   -2.277826    0.000224
   3 N     7.0000    0    14.007   -0.345441   -2.219093    0.000009
   4 C     6.0000    0    12.011    0.734429    0.019553   -0.000142
   5 C     6.0000    0    12.011   -0.547508    2.320529   -0.000049
   6 Cl   17.0000    0    35.453    4.065258    0.075756   -0.000368
   7 H     1.0000    0     1.008   -4.255653    3.960477    0.000172
   8 H     1.0000    0     1.008   -6.410470   -0.268332    0.000378
   9 H     1.0000    0     1.008   -3.730457   -4.148410    0.000244
  10 H     1.0000    0     1.008    0.474315    4.093204   -0.000148

--------------------------------
INTERNAL COORDINATES (ANGSTROEM)
--------------------------------
 C      0   0   0     0.000000000000     0.00000000     0.00000000
 C      1   0   0     1.392489720895     0.00000000     0.00000000
 C      2   1   0     1.388045795473   118.25023981     0.00000000
 N      3   2   1     1.340362894484   123.28002390     0.00000000
 C      4   3   2     1.315264021286   117.08021794     0.00000000
 C      1   2   3     1.387175360595   119.27929211     0.00000000
 Cl     5   4   3     1.762849926415   116.71824252   179.99891797
 H      1   2   3     1.085111250840   120.79448913   180.00076876
 H      2   1   3     1.083992799374   121.32323119   179.99919949
 H      3   2   1     1.087882888180   120.88359063   180.00214526
 H      6   1   2     1.082745764634   122.09867530   179.99984425

---------------------------
INTERNAL COORDINATES (A.U.)
---------------------------
 C      0   0   0     0.000000000000     0.00000000     0.00000000
 C      1   0   0     2.631424216791     0.00000000     0.00000000
 C      2   1   0     2.623026414785   118.25023981     0.00000000
 N      3   2   1     2.532918790645   123.28002390     0.00000000
 C      4   3   2     2.485488794030   117.08021794     0.00000000
 C      1   2   3     2.621381531248   119.27929211     0.00000000
 Cl     5   4   3     3.331303576128   116.71824252   179.99891797
 H      1   2   3     2.050563088924   120.79448913   180.00076876
 H      2   1   3     2.048449521960   121.32323119   179.99919949
 H      3   2   1     2.055800724440   120.88359063   180.00214526
 H      6   1   2     2.046092967822   122.09867530   179.99984425

---------------------
BASIS SET INFORMATION
---------------------
There are 4 groups of distinct atoms

 Group   1 Type C   : 11s6p2d1f contracted to 5s3p2d1f pattern {62111/411/11/1}
 Group   2 Type N   : 11s6p2d1f contracted to 5s3p2d1f pattern {62111/411/11/1}
 Group   3 Type Cl  : 14s9p3d1f contracted to 5s5p2d1f pattern {73211/51111/21/1}
 Group   4 Type H   : 5s1p contracted to 3s1p pattern {311/1}

Atom   0C    basis set group =>   1
Atom   1C    basis set group =>   1
Atom   2C    basis set group =>   1
Atom   3N    basis set group =>   2
Atom   4C    basis set group =>   1
Atom   5C    basis set group =>   1
Atom   6Cl   basis set group =>   3
Atom   7H    basis set group =>   4
Atom   8H    basis set group =>   4
Atom   9H    basis set group =>   4
Atom  10H    basis set group =>   4
---------------------------------
AUXILIARY/J BASIS SET INFORMATION
---------------------------------
There are 4 groups of distinct atoms

 Group   1 Type C   : 8s3p3d contracted to 6s3p3d pattern {311111/111/111}
 Group   2 Type N   : 8s3p3d contracted to 6s3p3d pattern {311111/111/111}
 Group   3 Type Cl  : 14s5p5d2f contracted to 8s4p3d1f pattern {71111111/2111/311/2}
 Group   4 Type H   : 5s2p1d contracted to 3s1p1d pattern {311/2/1}

Atom   0C    basis set group =>   1
Atom   1C    basis set group =>   1
Atom   2C    basis set group =>   1
Atom   3N    basis set group =>   2
Atom   4C    basis set group =>   1
Atom   5C    basis set group =>   1
Atom   6Cl   basis set group =>   3
Atom   7H    basis set group =>   4
Atom   8H    basis set group =>   4
Atom   9H    basis set group =>   4
Atom  10H    basis set group =>   4
------------------------------------------------------------------------------
                             ORCA STARTUP CALCULATIONS
                           -- RI-GTO INTEGRALS CHOSEN --
------------------------------------------------------------------------------
------------------------------------------------------------------------------
                   ___                                                        
                  /   \      - P O W E R E D   B Y -                         
                 /     \                                                     
                 |  |  |   _    _      __       _____    __    __             
                 |  |  |  | |  | |    /  \     |  _  \  |  |  /  |          
                  \  \/   | |  | |   /    \    | | | |  |  | /  /          
                 / \  \   | |__| |  /  /\  \   | |_| |  |  |/  /          
                |  |  |   |  __  | /  /__\  \  |    /   |      \           
                |  |  |   | |  | | |   __   |  |    \   |  |\   \          
                \     /   | |  | | |  |  |  |  | |\  \  |  | \   \       
                 \___/    |_|  |_| |__|  |__|  |_| \__\ |__|  \__/        
                                                                              
                      - O R C A' S   B I G   F R I E N D -                    
                                      &                                       
                       - I N T E G R A L  F E E D E R -                       
                                                                              
 v1 FN, 2020, v2 2021, v3 2022-2024                                           
------------------------------------------------------------------------------


----------------------
SHARK INTEGRAL PACKAGE
----------------------

Number of atoms                             ...     11
Number of basis functions                   ...    247
Number of shells                            ...     95
Maximum angular momentum                    ...      3
Integral batch strategy                     ... SHARK/LIBINT Hybrid
RI-J (if used) integral strategy            ... SPLIT-RIJ (Revised 2003 algorithm where possible)
Printlevel                                  ...      1
Contraction scheme used                     ... SEGMENTED contraction
Prescreening option                         ... SCHWARTZ
   Thresh                                   ... 1.000e-10
   Tcut                                     ... 1.000e-11
   Tpresel                                  ... 1.000e-11 
Coulomb Range Separation                    ... NOT USED
Exchange Range Separation                   ... NOT USED
Multipole approximations                    ... NOT USED
Finite Nucleus Model                        ... NOT USED
CABS basis                                  ... NOT available
Auxiliary Coulomb fitting basis             ... AVAILABLE
   # of basis functions in Aux-J            ...    266
   # of shells in Aux-J                     ...    108
   Maximum angular momentum in Aux-J        ...      3
Auxiliary J/K fitting basis                 ... NOT available
Auxiliary Correlation fitting basis         ... NOT available
Auxiliary 'external' fitting basis          ... NOT available

Checking pre-screening integrals            ... done (  0.0 sec) Dimension = 95
Check shell pair data                       ... done (  0.0 sec)
Shell pair information
Shell pair cut-off parameter TPreSel        ...   1.0e-11
Total number of shell pairs                 ...      4560
Shell pairs after pre-screening             ...      4245
Total number of primitive shell pairs       ...     14886
Primitive shell pairs kept                  ...     10455
          la=0 lb=0:    993 shell pairs
          la=1 lb=0:   1174 shell pairs
          la=1 lb=1:    361 shell pairs
          la=2 lb=0:    628 shell pairs
          la=2 lb=1:    366 shell pairs
          la=2 lb=2:    104 shell pairs
          la=3 lb=0:    311 shell pairs
          la=3 lb=1:    182 shell pairs
          la=3 lb=2:     98 shell pairs
          la=3 lb=3:     28 shell pairs

Calculating one electron integrals          ... done (  0.0 sec)
Calculating RI/J V-Matrix + Cholesky decomp.... done (  0.0 sec)
Calculating Nuclear repulsion               ... done (  0.0 sec) ENN=    319.805671190774 Eh

Diagonalization of the overlap matrix:
Smallest eigenvalue                        ... 4.566e-05
Time for diagonalization                   ...    0.006 sec
Threshold for overlap eigenvalues          ... 1.000e-07
Number of eigenvalues below threshold      ... 0
Time for construction of square roots      ...    0.017 sec
Total time needed                          ...    0.032 sec

-------------------
DFT GRID GENERATION
-------------------

General Integration Accuracy     IntAcc      ... 4.388
Radial Grid Type                 RadialGrid  ... OptM3 with GC (2021)
Angular Grid (max. ang.)         AngularGrid ... 4 (Lebedev-302)
Angular grid pruning method      GridPruning ... 4 (adaptive)
Weight generation scheme         WeightScheme... mBecke (2022)
Basis function cutoff            BFCut       ... 1.0000e-10
Integration weight cutoff        WCut        ... 1.0000e-14
Partially contracted basis set               ... off
Rotationally invariant grid construction     ... off
Angular grids for H and He will be reduced by one unit

Total number of grid points                  ...    56408
Total number of batches                      ...      888
Average number of points per batch           ...       63
Average number of grid points per atom       ...     5128
Initializing property integral containers    ... done (  0.0 sec)

SHARK setup successfully completed in   0.9 seconds

Maximum memory used throughout the entire STARTUP-calculation: 32.7 MB
-------------------------------------------------------------------------------
                                 ORCA GUESS
                   Start orbitals & Density for SCF / CASSCF
-------------------------------------------------------------------------------

------------
SCF SETTINGS
------------
Hamiltonian:
 Density Functional     Method          .... DFT(GTOs)
  Functional kind                       .... Exchange
  Functional name                       .... Re-regularized SCAN exchange by Furness et al
  Functional family                     .... MGGA
  Functional refs                              
    [ 0] J. W. Furness, A. D. Kaplan, J. Ning, J. P. Perdew, and J. Sun.,  J. Phys. Chem. Lett. 11, 8208-8215 (2020), doi: 10.1021/acs.jpclett.0c02405
    [ 1] J. W. Furness, A. D. Kaplan, J. Ning, J. P. Perdew, and J. Sun.,  J. Phys. Chem. Lett. 11, 9248-9248 (2020), doi: 10.1021/acs.jpclett.0c03077
  Functional external parameters        .... 6
    Parameter  0 _c1        =  6.670000e-01 : c1 parameter        
    Parameter  1 _c2        =  8.000000e-01 : c2 parameter        
    Parameter  2 _d         =  1.240000e+00 : d parameter         
    Parameter  3 _k1        =  6.500000e-02 : k1 parameter        
    Parameter  4 _eta       =  1.000000e-03 : eta parameter       
    Parameter  5 _dp2       =  3.610000e-01 : dp2 parameter       
  Functional kind                       .... Correlation
  Functional name                       .... Re-regularized SCAN correlation by Furness et al
  Functional family                     .... MGGA
  Functional refs                              
    [ 0] J. W. Furness, A. D. Kaplan, J. Ning, J. P. Perdew, and J. Sun.,  J. Phys. Chem. Lett. 11, 8208-8215 (2020), doi: 10.1021/acs.jpclett.0c02405
    [ 1] J. W. Furness, A. D. Kaplan, J. Ning, J. P. Perdew, and J. Sun.,  J. Phys. Chem. Lett. 11, 9248-9248 (2020), doi: 10.1021/acs.jpclett.0c03077
  Functional external parameters        .... 1
    Parameter  0 _eta       =  1.000000e-03 : Regularization parameter
 Gradients option       PostSCFGGA      .... off
 RI-approximation to the Coulomb term is turned on
   Number of AuxJ basis functions       .... 266


General Settings:
 Integral files         IntName         .... vacuum_censo
 Hartree-Fock type      HFTyp           .... RHF
 Total Charge           Charge          ....    0
 Multiplicity           Mult            ....    1
 Number of Electrons    NEL             ....   58
 Basis Dimension        Dim             ....  247
 Nuclear Repulsion      ENuc            ....    319.8056711908 Eh

Convergence Acceleration:
 AO-DIIS                CNVDIIS         .... on
   Start iteration      DIISMaxIt       ....    12
   Startup error        DIISStart       ....  0.200000
   # of expansion vecs  DIISMaxEq       ....     5
   Bias factor          DIISBfac        ....   1.050
   Max. coefficient     DIISMaxC        ....  10.000
 MO-DIIS                CNVKDIIS        .... off
 Trust-Rad. Augm. Hess. CNVTRAH         .... auto
   Auto Start mean grad. ratio tolernc. ....  1.125000
   Auto Start start iteration           ....    50
   Auto Start num. interpolation iter.  ....    10
   Max. Number of Micro iterations      ....    24
   Max. Number of Macro iterations      .... Maxiter - #DIIS iter
   Number of Davidson start vectors     ....     2
   Converg. threshold    (grad. norm)   ....   5.000e-05
   Grad. Scal. Fac. for Micro threshold ....   0.100
   Minimum threshold for Micro iter.    ....   1.000e-02
   NR start threshold (gradient norm)   ....   1.000e-04
   Initial trust radius                 ....   0.400
   Minimum AH scaling param. (alpha)    ....   1.000
   Maximum AH scaling param. (alpha)    .... 1000.000
   Quad. conv. algorithm                .... NR
   White noise on init. David. guess    .... on
   Maximum white noise                  ....   0.010
   Pseudo random numbers                .... off
   Inactive MOs                         .... canonical
   Orbital update algorithm             .... Taylor
   Preconditioner                       .... Diag
   Full preconditioner red. dimension   ....   250
   COSX micro iterations for RIJONX calc.... off
 SOSCF                  CNVSOSCF        .... on
   Start iteration      SOSCFMaxIt      ....   150
   Startup grad/error   SOSCFStart      ....  0.003300
   Hessian update       SOSCFHessUp     .... L-BFGS
 Level Shifting         CNVShift        .... on
   Level shift para.    LevelShift      ....    0.2500
   Turn off err/grad.   ShiftErr        ....    0.0010
 Zerner damping         CNVZerner       .... off
 Static damping         CNVDamp         .... on
   Fraction old density DampFac         ....    0.7000
   Max. Damping (<1)    DampMax         ....    0.9800
   Min. Damping (>=0)   DampMin         ....    0.0000
   Turn off err/grad.   DampErr         ....    0.1000

SCF Procedure:
 Maximum # iterations   MaxIter         ....   125
 SCF integral mode      SCFMode         .... Direct
   Integral package                     .... SHARK and LIBINT hybrid scheme
 Reset frequency        DirectResetFreq ....    20
 Integral Threshold     Thresh          ....  1.000e-10 Eh
 Primitive CutOff       TCut            ....  1.000e-11 Eh

Convergence Tolerance:
 Convergence Check Mode ConvCheckMode   .... Total+1el-Energy
 Convergence forced     ConvForced      .... 0
 Energy Change          TolE            ....  1.000e-06 Eh
 1-El. energy change                    ....  1.000e-03 Eh
 Orbital Gradient       TolG            ....  5.000e-05
 Orbital Rotation angle TolX            ....  5.000e-05
 DIIS Error             TolErr          ....  1.000e-06

------------------------------
INITIAL GUESS: MODEL POTENTIAL
------------------------------
Loading Hartree-Fock densities                     ... done
Calculating cut-offs                               ... done
Initializing the effective Hamiltonian             ... done
Setting up the integral package (SHARK)            ... done
Starting the Coulomb interaction                   ... done (   0.2 sec)
Making the grid                                    ... done (   0.1 sec)
Mapping shells                                     ... done
Starting the XC term evaluation                    ... done (   0.3 sec)
  promolecular density results
     # of electrons  =     57.997206961
     EX              =    -60.660509447
     EC              =     -2.029539885
     EX+EC           =    -62.690049332
Transforming the Hamiltonian                       ... done (   0.0 sec)
Diagonalizing the Hamiltonian                      ... done (   0.0 sec)
Back transforming the eigenvectors                 ... done (   0.0 sec)
Now organizing SCF variables                       ... done
                      ------------------
                      INITIAL GUESS DONE (   0.7 sec)
                      ------------------
             **** ENERGY FILE WAS UPDATED (vacuum_censo.en.tmp) ****
Finished Guess after   0.9 sec
Maximum memory used throughout the entire GUESS-calculation: 21.4 MB

-------------------------------------------------------------------------------------------
                                      ORCA LEAN-SCF
                              memory conserving SCF solver
-------------------------------------------------------------------------------------------

----------------------------------------D-I-I-S--------------------------------------------
Iteration    Energy (Eh)           Delta-E    RMSDP     MaxDP     DIISErr   Damp  Time(sec)
-------------------------------------------------------------------------------------------
               ***  Starting incremental Fock matrix formation  ***
    1    -707.6882455959248546     0.00e+00  1.35e-03  3.79e-02  1.92e-01  0.700   2.6
    2    -707.7540558175735441    -6.58e-02  1.06e-03  2.85e-02  8.46e-02  0.700   2.5
                               ***Turning on AO-DIIS***
    3    -707.7783731892714059    -2.43e-02  5.40e-04  1.88e-02  2.85e-02  0.700   2.4
    4    -707.7929103871615553    -1.45e-02  1.09e-03  3.47e-02  1.71e-02  0.000   2.3
    5    -707.8255927685154347    -3.27e-02  2.87e-04  8.89e-03  5.71e-03  0.000   2.4
                              *** Initializing SOSCF ***
---------------------------------------S-O-S-C-F--------------------------------------
Iteration    Energy (Eh)           Delta-E    RMSDP     MaxDP     MaxGrad    Time(sec)
--------------------------------------------------------------------------------------
    6    -707.8258580612975948    -2.65e-04  1.08e-04  3.37e-03  1.37e-03     2.3
               *** Restarting incremental Fock matrix formation ***
    7    -707.8258812530045816    -2.32e-05  8.05e-05  2.51e-03  5.19e-04     2.6
    8    -707.8258770612092121     4.19e-06  2.50e-05  8.16e-04  9.60e-04     2.1
    9    -707.8258858150356900    -8.75e-06  2.01e-05  5.46e-04  1.91e-04     2.2
   10    -707.8258854767439061     3.38e-07  5.97e-06  1.89e-04  1.80e-04     2.1
                 **** Energy Check signals convergence ****

               *****************************************************
               *                     SUCCESS                       *
               *           SCF CONVERGED AFTER  10 CYCLES          *
               *****************************************************

             **** ENERGY FILE WAS UPDATED (vacuum_censo.en.tmp) ****

----------------
TOTAL SCF ENERGY
----------------

Total Energy       :       -707.82588547674391 Eh          -19260.92155 eV

Components:
Nuclear Repulsion  :        319.80567119077426 Eh            8702.35473 eV
Electronic Energy  :      -1027.63155666751845 Eh          -27963.27628 eV
One Electron Energy:      -1603.54469115956294 Eh          -43634.66939 eV
Two Electron Energy:        575.91313449204461 Eh           15671.39311 eV

Virial components:
Potential Energy   :      -1413.84378520034807 Eh          -38472.64531 eV
Kinetic Energy     :        706.01789972360405 Eh           19211.72376 eV
Virial Ratio       :          2.00256082140955

DFT components:
N(Alpha)           :       29.000022251886 electrons
N(Beta)            :       29.000022251886 electrons
N(Total)           :       58.000044503772 electrons
E(X)               :      -61.652844464378 Eh       
E(C)               :       -1.993802920495 Eh       
E(XC)              :      -63.646647384873 Eh       

---------------
SCF CONVERGENCE
---------------

  Last Energy change         ...   -3.3829e-07  Tolerance :   1.0000e-06
  Last MAX-Density change    ...    1.8918e-04  Tolerance :   1.0000e-05
  Last RMS-Density change    ...    5.9650e-06  Tolerance :   1.0000e-06
  Last DIIS Error            ...    1.3679e-03  Tolerance :   1.0000e-06
  Last Orbital Gradient      ...    1.8049e-04  Tolerance :   5.0000e-05
  Last Orbital Rotation      ...    3.0611e-04  Tolerance :   5.0000e-05


----------------
ORBITAL ENERGIES
----------------

  NO   OCC          E(Eh)            E(eV) 
   0   2.0000    -101.190858     -2753.5432 
   1   2.0000     -14.176945      -385.7743 
   2   2.0000     -10.136179      -275.8195 
   3   2.0000     -10.087286      -274.4890 
   4   2.0000     -10.072916      -274.0980 
   5   2.0000     -10.065548      -273.8975 
   6   2.0000     -10.059373      -273.7295 
   7   2.0000      -9.366923      -254.8869 
   8   2.0000      -7.111717      -193.5197 
   9   2.0000      -7.102142      -193.2591 
  10   2.0000      -7.101288      -193.2359 
  11   2.0000      -0.940208       -25.5844 
  12   2.0000      -0.819103       -22.2889 
  13   2.0000      -0.791937       -21.5497 
  14   2.0000      -0.725271       -19.7356 
  15   2.0000      -0.622022       -16.9261 
  16   2.0000      -0.599735       -16.3196 
  17   2.0000      -0.505646       -13.7593 
  18   2.0000      -0.475046       -12.9267 
  19   2.0000      -0.451906       -12.2970 
  20   2.0000      -0.414247       -11.2722 
  21   2.0000      -0.406380       -11.0581 
  22   2.0000      -0.390635       -10.6297 
  23   2.0000      -0.357413        -9.7257 
  24   2.0000      -0.319869        -8.7041 
  25   2.0000      -0.288703        -7.8560 
  26   2.0000      -0.287391        -7.8203 
  27   2.0000      -0.250676        -6.8212 
  28   2.0000      -0.246597        -6.7102 
  29   0.0000      -0.072398        -1.9701 
  30   0.0000      -0.057697        -1.5700 
  31   0.0000       0.002891         0.0787 
  32   0.0000       0.059245         1.6121 
  33   0.0000       0.089367         2.4318 
  34   0.0000       0.090057         2.4506 
  35   0.0000       0.103089         2.8052 
  36   0.0000       0.114259         3.1091 
  37   0.0000       0.124044         3.3754 
  38   0.0000       0.174637         4.7521 
  39   0.0000       0.178553         4.8587 
*Only the first 10 virtual orbitals were printed.

                    ********************************
                    * MULLIKEN POPULATION ANALYSIS *
                    ********************************

-----------------------
MULLIKEN ATOMIC CHARGES
-----------------------
   0 C :   -0.078978
   1 C :   -0.107700
   2 C :   -0.001465
   3 N :   -0.222122
   4 C :    0.203539
   5 C :   -0.191309
   6 Cl:   -0.106667
   7 H :    0.126697
   8 H :    0.122822
   9 H :    0.123579
  10 H :    0.131604
Sum of atomic charges:   -0.0000000

--------------------------------
MULLIKEN REDUCED ORBITAL CHARGES
--------------------------------
  0 C s       :     3.208134  s :     3.208134
      pz      :     0.914346  p :     2.784421
      px      :     0.919271
      py      :     0.950804
      dz2     :     0.003892  d :     0.077633
      dxz     :     0.018831
      dyz     :     0.010223
      dx2y2   :     0.022821
      dxy     :     0.021866
      f0      :     0.001815  f :     0.008791
      f+1     :     0.000621
      f-1     :     0.000648
      f+2     :     0.001093
      f-2     :     0.000358
      f+3     :     0.001732
      f-3     :     0.002523

  1 C s       :     3.198106  s :     3.198106
      pz      :     0.980243  p :     2.827000
      px      :     0.938576
      py      :     0.908181
      dz2     :     0.004924  d :     0.073989
      dxz     :     0.005270
      dyz     :     0.018255
      dx2y2   :     0.026835
      dxy     :     0.018705
      f0      :     0.001795  f :     0.008605
      f+1     :     0.000700
      f-1     :     0.000629
      f+2     :     0.000174
      f-2     :     0.001058
      f+3     :     0.001764
      f-3     :     0.002485

  2 C s       :     3.207010  s :     3.207010
      pz      :     0.911603  p :     2.681824
      px      :     0.809427
      py      :     0.960794
      dz2     :     0.001928  d :     0.101061
      dxz     :     0.026787
      dyz     :     0.009204
      dx2y2   :     0.027421
      dxy     :     0.035720
      f0      :     0.002051  f :     0.011570
      f+1     :     0.000918
      f-1     :     0.000658
      f+2     :     0.001326
      f-2     :     0.000577
      f+3     :     0.002378
      f-3     :     0.003662

  3 N s       :     3.605977  s :     3.605977
      pz      :     1.110170  p :     3.541955
      px      :     1.114610
      py      :     1.317175
      dz2     :     0.006148  d :     0.069638
      dxz     :     0.012502
      dyz     :     0.011135
      dx2y2   :     0.020363
      dxy     :     0.019489
      f0      :     0.000761  f :     0.004552
      f+1     :     0.000382
      f-1     :     0.000313
      f+2     :     0.000609
      f-2     :     0.000351
      f+3     :     0.000936
      f-3     :     0.001202

  4 C s       :     3.113317  s :     3.113317
      pz      :     0.940172  p :     2.483375
      px      :     0.736346
      py      :     0.806857
      dz2     :     0.003712  d :     0.184130
      dxz     :     0.030866
      dyz     :     0.032735
      dx2y2   :     0.064272
      dxy     :     0.052545
      f0      :     0.002452  f :     0.015639
      f+1     :     0.001103
      f-1     :     0.000945
      f+2     :     0.001413
      f-2     :     0.001515
      f+3     :     0.002864
      f-3     :     0.005347

  5 C s       :     3.251992  s :     3.251992
      pz      :     0.980701  p :     2.851377
      px      :     0.948403
      py      :     0.922273
      dz2     :     0.005229  d :     0.079225
      dxz     :     0.016025
      dyz     :     0.008066
      dx2y2   :     0.016439
      dxy     :     0.033466
      f0      :     0.001807  f :     0.008715
      f+1     :     0.000694
      f-1     :     0.000691
      f+2     :     0.000856
      f-2     :     0.000420
      f+3     :     0.001763
      f-3     :     0.002483

  6 Cls       :     5.918559  s :     5.918559
      pz      :     3.902704  p :    11.129026
      px      :     3.264074
      py      :     3.962248
      dz2     :     0.007065  d :     0.053965
      dxz     :     0.016976
      dyz     :     0.000331
      dx2y2   :     0.020636
      dxy     :     0.008957
      f0      :     0.000501  f :     0.005117
      f+1     :     0.001010
      f-1     :     0.000066
      f+2     :     0.000760
      f-2     :     0.000026
      f+3     :     0.001830
      f-3     :     0.000924

  7 H s       :     0.849950  s :     0.849950
      pz      :     0.005076  p :     0.023353
      px      :     0.007101
      py      :     0.011176

  8 H s       :     0.853480  s :     0.853480
      pz      :     0.005628  p :     0.023698
      px      :     0.013594
      py      :     0.004476

  9 H s       :     0.853589  s :     0.853589
      pz      :     0.004974  p :     0.022832
      px      :     0.005349
      py      :     0.012509

 10 H s       :     0.844647  s :     0.844647
      pz      :     0.005459  p :     0.023749
      px      :     0.006820
      py      :     0.011470



                     *******************************
                     * LOEWDIN POPULATION ANALYSIS *
                     *******************************

----------------------
LOEWDIN ATOMIC CHARGES
----------------------
   0 C :   -0.113723
   1 C :   -0.149278
   2 C :   -0.189031
   3 N :    0.141146
   4 C :   -0.498321
   5 C :   -0.149337
   6 Cl:    0.371809
   7 H :    0.149557
   8 H :    0.147457
   9 H :    0.139985
  10 H :    0.149736

-------------------------------
LOEWDIN REDUCED ORBITAL CHARGES
-------------------------------
  0 C s       :     2.773549  s :     2.773549
      pz      :     0.841710  p :     2.899491
      px      :     1.044244
      py      :     1.013537
      dz2     :     0.026121  d :     0.395824
      dxz     :     0.063071
      dyz     :     0.032212
      dx2y2   :     0.117944
      dxy     :     0.156476
      f0      :     0.003301  f :     0.044858
      f+1     :     0.004090
      f-1     :     0.003583
      f+2     :     0.007119
      f-2     :     0.002460
      f+3     :     0.008316
      f-3     :     0.015989

  1 C s       :     2.775691  s :     2.775691
      pz      :     0.894877  p :     2.954917
      px      :     0.993382
      py      :     1.066658
      dz2     :     0.026651  d :     0.374768
      dxz     :     0.013492
      dyz     :     0.066914
      dx2y2   :     0.160928
      dxy     :     0.106783
      f0      :     0.003439  f :     0.043902
      f+1     :     0.003397
      f-1     :     0.004495
      f+2     :     0.001279
      f-2     :     0.007255
      f+3     :     0.008654
      f-3     :     0.015384

  2 C s       :     2.784190  s :     2.784190
      pz      :     0.849888  p :     2.849780
      px      :     0.977114
      py      :     1.022778
      dz2     :     0.032131  d :     0.493135
      dxz     :     0.083086
      dyz     :     0.024946
      dx2y2   :     0.158129
      dxy     :     0.194843
      f0      :     0.004346  f :     0.061926
      f+1     :     0.006425
      f-1     :     0.003501
      f+2     :     0.008467
      f-2     :     0.003731
      f+3     :     0.011730
      f-3     :     0.023726

  3 N s       :     3.046449  s :     3.046449
      pz      :     1.019845  p :     3.574190
      px      :     1.218405
      py      :     1.335940
      dz2     :     0.018741  d :     0.219108
      dxz     :     0.037138
      dyz     :     0.023195
      dx2y2   :     0.071563
      dxy     :     0.068470
      f0      :     0.001311  f :     0.019107
      f+1     :     0.001787
      f-1     :     0.001253
      f+2     :     0.003149
      f-2     :     0.001103
      f+3     :     0.004097
      f-3     :     0.006407

  4 C s       :     2.796764  s :     2.796764
      pz      :     0.887677  p :     2.893874
      px      :     0.938598
      py      :     1.067599
      dz2     :     0.048881  d :     0.723787
      dxz     :     0.089221
      dyz     :     0.098663
      dx2y2   :     0.294567
      dxy     :     0.192455
      f0      :     0.005405  f :     0.083896
      f+1     :     0.005496
      f-1     :     0.006626
      f+2     :     0.008052
      f-2     :     0.009858
      f+3     :     0.014634
      f-3     :     0.033824

  5 C s       :     2.777716  s :     2.777716
      pz      :     0.895985  p :     2.952418
      px      :     1.052513
      py      :     1.003920
      dz2     :     0.027452  d :     0.375088
      dxz     :     0.054852
      dyz     :     0.026492
      dx2y2   :     0.113118
      dxy     :     0.153175
      f0      :     0.003576  f :     0.044115
      f+1     :     0.004234
      f-1     :     0.003828
      f+2     :     0.005813
      f-2     :     0.003153
      f+3     :     0.008753
      f-3     :     0.014757

  6 Cls       :     5.571811  s :     5.571811
      pz      :     3.831302  p :    10.956166
      px      :     3.260184
      py      :     3.864680
      dz2     :     0.012459  d :     0.089568
      dxz     :     0.025227
      dyz     :     0.000276
      dx2y2   :     0.035743
      dxy     :     0.015864
      f0      :     0.001058  f :     0.010646
      f+1     :     0.001967
      f-1     :     0.000159
      f+2     :     0.001634
      f-2     :     0.000018
      f+3     :     0.003603
      f-3     :     0.002207

  7 H s       :     0.790388  s :     0.790388
      pz      :     0.012825  p :     0.060055
      px      :     0.018183
      py      :     0.029048

  8 H s       :     0.791155  s :     0.791155
      pz      :     0.014418  p :     0.061388
      px      :     0.035515
      py      :     0.011455

  9 H s       :     0.800740  s :     0.800740
      pz      :     0.012785  p :     0.059275
      px      :     0.013413
      py      :     0.033078

 10 H s       :     0.788016  s :     0.788016
      pz      :     0.014375  p :     0.062248
      px      :     0.017454
      py      :     0.030419



                      *****************************
                      * MAYER POPULATION ANALYSIS *
                      *****************************

  NA   - Mulliken gross atomic population
  ZA   - Total nuclear charge
  QA   - Mulliken gross atomic charge
  VA   - Mayer's total valence
  BVA  - Mayer's bonded valence
  FA   - Mayer's free valence

  ATOM       NA         ZA         QA         VA         BVA        FA
  0 C      6.0790     6.0000    -0.0790     3.9099     3.9099    -0.0000
  1 C      6.1077     6.0000    -0.1077     3.8439     3.8439    -0.0000
  2 C      6.0015     6.0000    -0.0015     3.9731     3.9731     0.0000
  3 N      7.2221     7.0000    -0.2221     2.9901     2.9901     0.0000
  4 C      5.7965     6.0000     0.2035     4.0753     4.0753     0.0000
  5 C      6.1913     6.0000    -0.1913     3.9125     3.9125    -0.0000
  6 Cl    17.1067    17.0000    -0.1067     1.2121     1.2121     0.0000
  7 H      0.8733     1.0000     0.1267     0.9749     0.9749    -0.0000
  8 H      0.8772     1.0000     0.1228     0.9758     0.9758     0.0000
  9 H      0.8764     1.0000     0.1236     0.9784     0.9784     0.0000
 10 H      0.8684     1.0000     0.1316     0.9825     0.9825    -0.0000

  Mayer bond orders larger than 0.100000
B(  0-C ,  1-C ) :   1.3865 B(  0-C ,  5-C ) :   1.4106 B(  0-C ,  7-H ) :   0.9612 
B(  1-C ,  2-C ) :   1.3996 B(  1-C ,  8-H ) :   0.9613 B(  2-C ,  3-N ) :   1.4069 
B(  2-C ,  9-H ) :   0.9773 B(  3-N ,  4-C ) :   1.4734 B(  4-C ,  5-C ) :   1.3754 
B(  4-C ,  6-Cl) :   1.0623 B(  5-C , 10-H ) :   0.9594 

-------
TIMINGS
-------

Total SCF time: 0 days 0 hours 0 min 23 sec 

Total time                  ....      23.926 sec
Sum of individual times     ....      23.440 sec  ( 98.0%)

SCF preparation             ....       0.221 sec  (  0.9%)
Fock matrix formation       ....      22.252 sec  ( 93.0%)
  Startup                   ....       0.061 sec  (  0.3% of F)
  Split-RI-J                ....       2.413 sec  ( 10.8% of F)
  XC integration            ....      19.219 sec  ( 86.4% of F)
    XC Preparation          ....       0.000 sec  (  0.0% of XC)
    Basis function eval.    ....       2.913 sec  ( 15.2% of XC)
    Density eval.           ....       5.775 sec  ( 30.0% of XC)
    XC-Functional eval.     ....       1.646 sec  (  8.6% of XC)
    XC-Potential eval.      ....       8.038 sec  ( 41.8% of XC)
Diagonalization             ....       0.000 sec  (  0.0%)
Density matrix formation    ....       0.218 sec  (  0.9%)
Total Energy calculation    ....       0.033 sec  (  0.1%)
Population analysis         ....       0.032 sec  (  0.1%)
Orbital Transformation      ....       0.066 sec  (  0.3%)
Orbital Orthonormalization  ....       0.000 sec  (  0.0%)
DIIS solution               ....       0.406 sec  (  1.7%)
SOSCF solution              ....       0.211 sec  (  0.9%)
Finished LeanSCF after  24.0 sec

Maximum memory used throughout the entire LEANSCF-calculation: 25.3 MB

------------------------------------------------------------------------------
                         ORCA PROPERTY INTEGRAL CALCULATIONS
------------------------------------------------------------------------------

GBWName                                   ... vacuum_censo.gbw
Number of atoms                           ...     11
Number of basis functions                 ...    247
Max core memory                           ...   1024 MB

Dipole integrals                          ... YES
Quadrupole integrals                      ...  NO
Linear momentum integrals                 ...  NO
Angular momentum integrals                ...  NO
Higher moments length integrals           ...  NO
Higher moments velocity integrals         ...  NO
Kinetic energy integrals                  ...  NO
GIAO right hand sides                     ...  NO
GIAO dipole derivative integrals          ...  NO
SOC integrals                             ...  NO
EPR diamagnetic integrals (GIAO)          ...  NO
EPR gauge integrals                       ...  NO
Field gradient integrals                  ...  NO (   0 nuclei)
Spin-dipole/Fermi contact integrals       ...  NO (   0 nuclei)
Contact density integrals                 ...  NO (   0 nuclei)
Nucleus-orbit integrals                   ...  NO (   0 nuclei)
Geometric perturbations                   ... YES (  11 nuclei)

Choice of electric origin   ... Center of mass
Position of electric origin ... (  0.0215,  0.0113, -0.0001) 
Choice of magnetic origin   ... GIAO
Position of magnetic origin ... (  0.0000,  0.0000,  0.0000) 

Calculating integrals                     ... Electric Dipole (Length)     done (  0.0 sec)
Calculating integrals                     ... Geometrical perturbation right hand sides

-----------------------
GEOMETRIC PERTURBATIONS (11 nuclei)
-----------------------

MaxCore                            ...   1024 MB
Number of batches                  ...      1

BATCH   0: Atoms    0 -   10 ( 33 perturbations)
   => H(core) and overlap derivative integrals     ... done (     0.3 sec)
   => Making and storing internal U-coefficients   ... done (     0.3 sec)
   => RI-J derivative integrals                    ... done (     2.8 sec)
   => RI-J response operators                      ... done (     0.7 sec)
   => XC derivative integrals                      ... done (   155.2 sec)
   => XC response operators                        ... done (    39.5 sec)
   => Completing and storing right hand sides      ... done (     0.2 sec)
   => Total time for right hand sides = 200.8 sec

  geometrical perturbations done (200.8 sec)

Property integrals calculated in 200.8 sec

Maximum memory used throughout the entire PROPINT-calculation: 94.7 MB


-------------------------------------------------------------------------------
                          DFT DISPERSION CORRECTION                            
                                                                               
                                DFTD4 V3.4.0                                   
-------------------------------------------------------------------------------
The R2SCAN3C composite method is recognized
Using three-body term ABC
Active option DFTDOPT                   ...         5   

-------------------------   ----------------
Dispersion correction           -0.003630925
-------------------------   ----------------

------------------   -----------------
gCP correction             0.005817367
------------------   -----------------

-------------------------   --------------------
FINAL SINGLE POINT ENERGY      -707.823699035223
-------------------------   --------------------

------------------------------------------------------------------------------
                            ORCA SCF RESPONSE CALCULATION
------------------------------------------------------------------------------

GBWName                                 ... vacuum_censo.gbw
Number of atoms                         ...     11
Number of basis functions               ...    247
Max core memory                         ...   1024 MB

Electric field perturbation             ...  NO
Quadrupolar field perturbation          ...  NO
Magnetic field perturbation (no GIAO)   ...  NO
Magnetic field perturbation (with GIAO) ...  NO
Linear momentum (velocity) perturbation ...  NO
Spin-orbit coupling perturbation        ...  NO
Choice of electric origin               ... Center of mass
Position of electric origin             ...     0.021465     0.011319    -0.000064
Choice of magnetic origin               ... GIAO
Position of magnetic origin             ...     0.000000     0.000000     0.000000
Nuclear geometric perturbations         ... YES (  33 perturbations)
Nucleus-orbit perturbations             ...  NO (   0 perturbations)
Spin-dipole/Fermi contact perturbations ...  NO (   0 perturbations)

Total number of real perturbations      ...     33
Total number of imaginary perturbations ...      0
Total number of triplet perturbations   ...      0
Total number of SOC perturbations       ...      0


                                **********************
                                * REAL PERTURBATIONS *
                                **********************



-------------------
SHARK CP-SCF DRIVER
-------------------

Dimension of the orbital basis          ...    247
Dimension of the CPSCF-problem          ...   6322
Number of operators                     ...      1
Max. number of iterations               ...    128
Convergence Tolerance                   ... 1.0e-03
Number of perturbations                 ...     33
Perturbation type                       ... REAL

----------------------------
POPLE LINEAR EQUATION SOLVER
----------------------------

  ITERATION   0:   ||err||_max =   5.7140e-01 (  12.1 sec   0/ 33 done)
  ITERATION   1:   ||err||_max =   5.9752e-02 (  11.8 sec   0/ 33 done)
  ITERATION   2:   ||err||_max =   1.9211e-02 (  12.4 sec   9/ 33 done)
  ITERATION   3:   ||err||_max =   4.8886e-03 (  10.0 sec  12/ 33 done)
  ITERATION   4:   ||err||_max =   2.1100e-03 (   8.8 sec  21/ 33 done)
  ITERATION   5:   ||err||_max =   6.6499e-04 (   5.5 sec  33/ 33 done)

CP-SCF equations solved in  62.2 sec
Response densities calculated in   0.1 sec

Maximum memory used throughout the entire SCFRESP-calculation: 57.8 MB

------------------------------------------------------------------------------
                              ORCA PROPERTY CALCULATIONS
------------------------------------------------------------------------------

GBWName                                 ... vacuum_censo.gbw
Number of atoms                         ...     11
Number of basis functions               ...    247
Max core memory                         ...   1024 MB

Electric properties:
Dipole moment                           ... YES
Quadrupole moment                       ...  NO
Static polarizability (Dipole/Dipole)   ...  NO
Static polarizability (Dipole/Quad.)    ...  NO
Static polarizability (Quad./Quad.)     ...  NO
Static polarizability (Velocity)        ...  NO

Atomic electric properties:
Dipole moment                           ...  NO
Quadrupole moment                       ...  NO
Static polarizability                   ...  NO

Choice of electric origin               ... Center of mass
Position of electric origin             ...     0.021465     0.011319    -0.000064

General magnetic properties:
Magnetizability                         ...  NO

EPR properties:
g-Tensor (aka g-matrix)                 ...  NO
Zero-Field splitting spin-orbit         ...  NO
Zero-field splitting spin-spin          ...  NO
Hyperfine couplings                     ...  NO (   0 nuclei)
Quadrupole couplings                    ...  NO (   0 nuclei)
Contact density                         ...  NO (   0 nuclei)

NMR properties:
Chemical shifts                         ...  NO (   0 nuclei)
Spin-rotation constants                 ...  NO (   0 nuclei)
Spin-spin couplings                     ...  NO (   0 nuclei,    0 pairs)

Choice of magnetic origin               ... GIAO
Position of magnetic origin             ...     0.000000     0.000000     0.000000

Properties with geometric perturbations:
SCF Hessian                             ... YES
IR spectrum                             ... YES
VCD spectrum                            ...  NO
X-ray spectroscopy properties:
SCF XES/XAS/RIXS spectra                ...  NO


-------------
DIPOLE MOMENT
-------------

Method             : SCF
Type of density    : Electron Density
Multiplicity       :   1
Irrep              :   0
Energy             :  -707.8258854767439061 Eh
Relativity type    : 
Basis              : AO
                                X                 Y                 Z
Electronic contribution:      8.691835799      -1.046609156      -0.000602898
Nuclear contribution   :     -9.827732378       1.730855709       0.000663397
                        -----------------------------------------
Total Dipole Moment    :     -1.135896579       0.684246553       0.000060499
                        -----------------------------------------
Magnitude (a.u.)       :      1.326067263
Magnitude (Debye)      :      3.370595117



--------------------
Rotational spectrum 
--------------------
 
Rotational constants in cm-1:             0.196931             0.053717             0.042205 
Rotational constants in MHz :          5903.841910          1610.386664          1265.262054 

Dipole components along the rotational axes: 
x,y,z [a.u.] :    -1.128049    -0.697109    -0.000011 
x,y,z [Debye]:    -2.867272    -1.771909    -0.000029 

 

Dipole moment calculation done in   0.0 sec 

-----------
SCF HESSIAN
-----------

Occupied/Occupied contributions to the Hessian:
   => Occupied/Occupied contributions              ... done (  0.0 sec)
Perturbed density contributions to the Hessian:
   => Perturbed density contributions              ... done (  0.0 sec)
Explicit contributions to the Hessian:
   => Nuclear repulsion Hessian                    ... done (  0.0 sec)
   => HCore and overlap Hessian                    ... done (  5.7 sec)
   => RI-J Hessian                                 ... done (  7.6 sec)
   => XC-Hessian                                   ... done ( 48.5 sec)
   => Van der Waals-Hessian                        ... done (  2.0 sec)
   => GCP-Hessian                                  ... done (  0.0 sec)
   => Explicit contributions done
Dipole derivatives                                 ... done (  0.1 sec)
Mass weighting the Hessian           ... done
Calculating normal modes             ... done
Scaling frequencies                  ... done

-----------------------
VIBRATIONAL FREQUENCIES
-----------------------

Scaling factor for frequencies =  1.000000000  (already applied!)

     0:       0.00 cm**-1
     1:       0.00 cm**-1
     2:       0.00 cm**-1
     3:       0.00 cm**-1
     4:       0.00 cm**-1
     5:       0.00 cm**-1
     6:     174.97 cm**-1
     7:     314.87 cm**-1
     8:     411.99 cm**-1
     9:     413.40 cm**-1
    10:     489.27 cm**-1
    11:     627.65 cm**-1
    12:     732.42 cm**-1
    13:     749.96 cm**-1
    14:     773.11 cm**-1
    15:     888.92 cm**-1
    16:     971.49 cm**-1
    17:     995.41 cm**-1
    18:    1004.75 cm**-1
    19:    1064.41 cm**-1
    20:    1100.75 cm**-1
    21:    1131.27 cm**-1
    22:    1172.31 cm**-1
    23:    1304.07 cm**-1
    24:    1316.32 cm**-1
    25:    1442.53 cm**-1
    26:    1478.81 cm**-1
    27:    1599.75 cm**-1
    28:    1606.42 cm**-1
    29:    3145.20 cm**-1
    30:    3172.43 cm**-1
    31:    3191.34 cm**-1
    32:    3204.64 cm**-1


------------
NORMAL MODES
------------

These modes are the Cartesian displacements weighted by the diagonal matrix
M(i,i)=1/sqrt(m[i]) where m[i] is the mass of the displaced atom
Thus, these vectors are normalized but *not* orthogonal

                  0          1          2          3          4          5    
      0       0.000000   0.000000   0.000000   0.000000   0.000000   0.000000
      1       0.000000   0.000000   0.000000   0.000000   0.000000   0.000000
      2       0.000000   0.000000   0.000000   0.000000   0.000000   0.000000
      3       0.000000   0.000000   0.000000   0.000000   0.000000   0.000000
      4       0.000000   0.000000   0.000000   0.000000   0.000000   0.000000
      5       0.000000   0.000000   0.000000   0.000000   0.000000   0.000000
      6       0.000000   0.000000   0.000000   0.000000   0.000000   0.000000
      7       0.000000   0.000000   0.000000   0.000000   0.000000   0.000000
      8       0.000000   0.000000   0.000000   0.000000   0.000000   0.000000
      9       0.000000   0.000000   0.000000   0.000000   0.000000   0.000000
     10       0.000000   0.000000   0.000000   0.000000   0.000000   0.000000
     11       0.000000   0.000000   0.000000   0.000000   0.000000   0.000000
     12       0.000000   0.000000   0.000000   0.000000   0.000000   0.000000
     13       0.000000   0.000000   0.000000   0.000000   0.000000   0.000000
     14       0.000000   0.000000   0.000000   0.000000   0.000000   0.000000
     15       0.000000   0.000000   0.000000   0.000000   0.000000   0.000000
     16       0.000000   0.000000   0.000000   0.000000   0.000000   0.000000
     17       0.000000   0.000000   0.000000   0.000000   0.000000   0.000000
     18       0.000000   0.000000   0.000000   0.000000   0.000000   0.000000
     19       0.000000   0.000000   0.000000   0.000000   0.000000   0.000000
     20       0.000000   0.000000   0.000000   0.000000   0.000000   0.000000
     21       0.000000   0.000000   0.000000   0.000000   0.000000   0.000000
     22       0.000000   0.000000   0.000000   0.000000   0.000000   0.000000
     23       0.000000   0.000000   0.000000   0.000000   0.000000   0.000000
     24       0.000000   0.000000   0.000000   0.000000   0.000000   0.000000
     25       0.000000   0.000000   0.000000   0.000000   0.000000   0.000000
     26       0.000000   0.000000   0.000000   0.000000   0.000000   0.000000
     27       0.000000   0.000000   0.000000   0.000000   0.000000   0.000000
     28       0.000000   0.000000   0.000000   0.000000   0.000000   0.000000
     29       0.000000   0.000000   0.000000   0.000000   0.000000   0.000000
     30       0.000000   0.000000   0.000000   0.000000   0.000000   0.000000
     31       0.000000   0.000000   0.000000   0.000000   0.000000   0.000000
     32       0.000000   0.000000   0.000000   0.000000   0.000000   0.000000
                  6          7          8          9         10         11    
      0       0.000002  -0.190336   0.228993  -0.000113  -0.000009   0.309381
      1       0.000003  -0.039543   0.089721  -0.000044  -0.000001  -0.285862
      2       0.054131   0.000014  -0.000430  -0.232282  -0.133417  -0.000019
      3       0.000019  -0.019570   0.388921  -0.000162   0.000018  -0.019647
      4       0.000005  -0.127803   0.001742   0.000000   0.000003  -0.165926
      5       0.305642  -0.000002   0.000046   0.046822   0.211981   0.000006
      6       0.000005   0.164207   0.309373  -0.000116  -0.000008  -0.209610
      7      -0.000001   0.005818  -0.051291   0.000028  -0.000009  -0.217788
      8      -0.006399  -0.000007   0.000355   0.207101  -0.147414   0.000017
      9      -0.000018   0.121145   0.254868  -0.000132   0.000001  -0.249344
     10      -0.000003   0.267281  -0.084687   0.000027  -0.000001   0.275149
     11      -0.257647  -0.000014  -0.000479  -0.258198  -0.032421   0.000018
     12      -0.000018   0.016806   0.010832  -0.000007   0.000024   0.007728
     13      -0.000004   0.307903   0.054310  -0.000023   0.000010   0.119344
     14      -0.240768  -0.000015  -0.000042  -0.015937   0.306893  -0.000012
     15      -0.000021  -0.165249   0.171759  -0.000056  -0.000001   0.267763
     16      -0.000004   0.231315   0.115760  -0.000047   0.000009   0.167631
     17      -0.293224   0.000014   0.000385   0.223114  -0.001250  -0.000020
     18       0.000011   0.028234  -0.506100   0.000217  -0.000006  -0.030128
     19       0.000002  -0.229034  -0.037749   0.000018  -0.000003   0.024614
     20       0.152578   0.000002   0.000055   0.008450  -0.032513   0.000002
     21       0.000008  -0.348095   0.106225  -0.000080  -0.000041   0.200088
     22       0.000006  -0.137387   0.010828  -0.000017  -0.000014  -0.355522
     23       0.162684   0.000031  -0.000936  -0.528134  -0.532025  -0.000014
     24       0.000040  -0.008054   0.393461  -0.000161   0.000021  -0.054136
     25       0.000013  -0.286618  -0.033764   0.000016   0.000004   0.297360
     26       0.662166  -0.000004   0.000137   0.097297   0.246855   0.000010
     27      -0.000000   0.353196   0.231104  -0.000071  -0.000036   0.035800
     28       0.000002  -0.081296  -0.015523   0.000014  -0.000004  -0.333531
     29      -0.006076  -0.000005   0.000933   0.517523  -0.596172   0.000002
     30      -0.000032  -0.360153   0.303008  -0.000092  -0.000028   0.105365
     31      -0.000006   0.346263   0.037784  -0.000010   0.000005   0.261490
     32      -0.452806   0.000042   0.000850   0.477460  -0.346167  -0.000005
                 12         13         14         15         16         17    
      0       0.034321  -0.000016  -0.000001   0.000002  -0.000006  -0.000005
      1      -0.227651   0.000017   0.000002   0.000000   0.000002  -0.000005
      2      -0.000034  -0.174020  -0.024697   0.027416  -0.076776  -0.112347
      3      -0.323749   0.000025  -0.000004  -0.000004  -0.000002  -0.000001
      4       0.027930   0.000002  -0.000004  -0.000001  -0.000001  -0.000001
      5       0.000038   0.095423  -0.104780  -0.080460  -0.063512   0.089981
      6       0.080175  -0.000014  -0.000000  -0.000001   0.000007  -0.000004
      7       0.296891  -0.000025  -0.000004  -0.000000  -0.000003   0.000005
      8      -0.000050  -0.161568   0.002515  -0.060807   0.145659  -0.052445
      9       0.080982   0.000011  -0.000007   0.000000  -0.000000   0.000002
     10       0.175486  -0.000009  -0.000004  -0.000001   0.000006  -0.000009
     11       0.000020   0.168919  -0.064333   0.014912  -0.012520  -0.008492
     12       0.345783  -0.000038   0.000011  -0.000007   0.000003  -0.000000
     13       0.001018  -0.000004   0.000004  -0.000000  -0.000002   0.000000
     14      -0.000040  -0.157485   0.186974  -0.029431  -0.027250   0.014913
     15       0.055165   0.000001  -0.000009   0.000009   0.000001   0.000008
     16      -0.308831   0.000018   0.000006   0.000003  -0.000006   0.000011
     17       0.000012   0.076827  -0.113707   0.119808   0.062612   0.057573
     18      -0.101842   0.000007   0.000001   0.000001  -0.000001   0.000000
     19       0.001504   0.000000  -0.000000  -0.000000  -0.000000   0.000000
     20       0.000006   0.000684  -0.009413   0.001823   0.001306   0.000127
     21       0.432217  -0.000017   0.000030  -0.000015   0.000038   0.000043
     22       0.019307   0.000009   0.000009  -0.000006   0.000018   0.000009
     23       0.000025   0.209378   0.580957  -0.184565   0.449625   0.678633
     24      -0.315488   0.000057   0.000038   0.000033   0.000017  -0.000036
     25      -0.058168   0.000020   0.000018   0.000017   0.000012  -0.000022
     26       0.000191   0.644807   0.600182   0.538556   0.261434  -0.496519
     27       0.274877  -0.000021   0.000021   0.000022  -0.000039   0.000013
     28       0.210066  -0.000021  -0.000006  -0.000003   0.000001   0.000005
     29       0.000010  -0.045764   0.391025   0.370232  -0.781993   0.343576
     30      -0.219136   0.000068   0.000026  -0.000054  -0.000028  -0.000030
     31      -0.152678   0.000012   0.000008  -0.000008  -0.000009   0.000009
     32       0.000145   0.643086   0.292673  -0.715859  -0.286375  -0.384452
                 18         19         20         21         22         23    
      0      -0.043668   0.066310  -0.022061  -0.099479   0.064998   0.080658
      1       0.066212  -0.224094   0.041284   0.060165   0.036780   0.024747
      2      -0.000009  -0.000001  -0.000000   0.000007  -0.000004  -0.000005
      3       0.379896   0.147836   0.068904   0.049663   0.008254   0.016784
      4       0.000561   0.042618   0.079212  -0.067714  -0.048094  -0.128401
      5      -0.000012  -0.000012  -0.000002  -0.000004  -0.000000   0.000002
      6       0.067678   0.001118  -0.092227  -0.058371  -0.027061  -0.209507
      7      -0.007799   0.200929  -0.153896   0.044268  -0.000757   0.024370
      8      -0.000021  -0.000002   0.000006   0.000002   0.000001   0.000013
      9      -0.228654  -0.025773   0.020323  -0.097525  -0.005669   0.221840
     10       0.357347  -0.074035  -0.020484  -0.018917  -0.004719   0.099037
     11       0.000008   0.000005  -0.000000   0.000009   0.000001  -0.000020
     12      -0.046390  -0.065591   0.222806   0.231109  -0.008599   0.014101
     13      -0.054807   0.007846   0.031001  -0.064105  -0.010916  -0.023458
     14       0.000014   0.000002  -0.000019  -0.000020   0.000000  -0.000000
     15      -0.147558  -0.073883  -0.099083   0.094985  -0.039893  -0.128544
     16      -0.367751   0.029945  -0.037098   0.080789   0.018659   0.007492
     17       0.000018   0.000003   0.000008  -0.000006   0.000002   0.000010
     18       0.003965   0.010714  -0.014512  -0.016866   0.001340  -0.004930
     19       0.001600  -0.000747  -0.001166   0.006080  -0.000334  -0.005121
     20      -0.000001  -0.000000   0.000001   0.000001  -0.000000   0.000001
     21      -0.017455  -0.209793  -0.016918  -0.511946   0.577880  -0.021019
     22       0.065117  -0.414975   0.042146  -0.188367   0.357946  -0.044237
     23       0.000054   0.000026   0.000004   0.000033  -0.000052  -0.000007
     24       0.412315   0.159609   0.024141   0.092614   0.042403   0.000044
     25      -0.240267   0.141305   0.651237  -0.664376  -0.516200   0.087853
     26      -0.000080   0.000009  -0.000029   0.000028   0.000016   0.000003
     27       0.076127  -0.384076  -0.109901  -0.315129  -0.135995  -0.664748
     28      -0.004262   0.388239  -0.153823   0.157899   0.048054   0.240596
     29       0.000079  -0.000014   0.000051   0.000012   0.000012   0.000060
     30       0.065118  -0.487541  -0.602787   0.086359  -0.425230   0.475479
     31      -0.510146   0.258378   0.256727   0.107540   0.239090  -0.345328
     32      -0.000026   0.000046   0.000036  -0.000006   0.000032  -0.000035
                 24         25         26         27         28         29    
      0       0.095934  -0.087842  -0.053426   0.363643   0.003525   0.001986
      1       0.083539  -0.037543   0.061156   0.174064  -0.204469  -0.003932
      2      -0.000007   0.000007   0.000003  -0.000027   0.000003   0.000000
      3      -0.010977   0.042865  -0.063659  -0.170186  -0.058195  -0.015009
      4      -0.070181  -0.152863  -0.060071  -0.082370   0.374478  -0.003904
      5       0.000003   0.000000   0.000004   0.000011  -0.000005   0.000001
      6      -0.048558   0.092646   0.138446   0.249417   0.135165   0.031905
      7       0.091194   0.075350  -0.057661  -0.051532  -0.200358   0.078113
      8       0.000001  -0.000009  -0.000008  -0.000016  -0.000004  -0.000001
      9       0.037804  -0.107083   0.030955  -0.178349   0.026597   0.001036
     10       0.071169  -0.022695   0.102812  -0.072221   0.136853   0.000170
     11      -0.000006   0.000010  -0.000005   0.000017  -0.000005  -0.000000
     12      -0.020155   0.084228  -0.083271   0.081675   0.057349  -0.001285
     13      -0.256236  -0.082065  -0.114846   0.096717  -0.285868  -0.001380
     14       0.000006  -0.000007   0.000010  -0.000009  -0.000000   0.000000
     15      -0.055601  -0.076039   0.139119  -0.255235  -0.175527   0.001151
     16       0.068198   0.132808  -0.032549  -0.015272   0.210668   0.001681
     17       0.000005   0.000005  -0.000010   0.000019   0.000011  -0.000000
     18      -0.002701  -0.001204  -0.001356   0.006640  -0.005126   0.000054
     19       0.001858   0.002637   0.001812  -0.000905   0.002308   0.000011
     20       0.000000  -0.000000  -0.000000  -0.000001   0.000000   0.000000
     21      -0.327312   0.516650  -0.137281  -0.478368   0.204171  -0.028727
     22      -0.177453   0.347705   0.029076  -0.357752  -0.103187   0.046850
     23       0.000017  -0.000042   0.000007   0.000035  -0.000009   0.000001
     24      -0.024238  -0.002445  -0.106863  -0.199391   0.001781   0.198584
     25       0.126857   0.604025   0.331504  -0.027229  -0.505154   0.019237
     26      -0.000001  -0.000012  -0.000009   0.000006   0.000008  -0.000013
     27       0.718402  -0.001761  -0.675512  -0.356693  -0.332021  -0.397165
     28      -0.237523   0.129643   0.305891   0.196022  -0.019261  -0.889654
     29      -0.000042  -0.000009   0.000039   0.000010   0.000030   0.000016
     30      -0.328188   0.352336  -0.382788   0.070159   0.385788  -0.012400
     31       0.228601  -0.092417   0.271595  -0.224687  -0.097569  -0.020177
     32       0.000028  -0.000021   0.000027  -0.000005  -0.000026   0.000001
                 30         31         32    
      0      -0.041137  -0.014245   0.015825
      1       0.064623   0.028621  -0.020650
      2       0.000001   0.000000  -0.000001
      3       0.031508  -0.079060   0.011131
      4      -0.000305  -0.005908   0.002157
      5      -0.000002   0.000005  -0.000001
      6       0.004403  -0.003517   0.000725
      7       0.011409  -0.015458   0.003213
      8      -0.000000   0.000000  -0.000000
      9       0.000018   0.000497   0.000582
     10      -0.000144   0.000333   0.000269
     11      -0.000000   0.000000  -0.000000
     12      -0.000700  -0.000062  -0.002994
     13      -0.000372   0.000499   0.002549
     14       0.000000  -0.000000   0.000000
     15      -0.006487  -0.007752  -0.042294
     16      -0.015293  -0.016667  -0.072695
     17       0.000001   0.000001   0.000004
     18       0.000015   0.000018   0.000156
     19       0.000017   0.000002  -0.000028
     20       0.000000   0.000000  -0.000000
     21       0.473223   0.181554  -0.147583
     22      -0.753180  -0.297228   0.230582
     23      -0.000015  -0.000006   0.000005
     24      -0.375223   0.891437  -0.117545
     25      -0.023903   0.064735  -0.010030
     26       0.000023  -0.000056   0.000008
     27      -0.052322   0.058792  -0.011934
     28      -0.118814   0.142937  -0.028938
     29       0.000002  -0.000002   0.000000
     30       0.101466   0.107506   0.473266
     31       0.181604   0.191051   0.823570
     32      -0.000010  -0.000010  -0.000046


-----------
IR SPECTRUM
-----------

 Mode   freq       eps      Int      T**2         TX        TY        TZ
       cm**-1   L/(mol*cm) km/mol    a.u.
----------------------------------------------------------------------------
  6:    174.97   0.000118    0.60  0.000211  (-0.000013  0.000027  0.014538)
  7:    314.87   0.000173    0.87  0.000172  (-0.007875 -0.010465  0.000001)
  8:    411.99   0.002475   12.51  0.001875  ( 0.042883  0.005989  0.000019)
  9:    413.40   0.000792    4.00  0.000598  (-0.000029 -0.000007  0.024454)
 10:    489.27   0.000848    4.29  0.000541  ( 0.000007 -0.000001 -0.023262)
 11:    627.65   0.000535    2.70  0.000266  ( 0.004908 -0.015557 -0.000000)
 12:    732.42   0.008306   41.98  0.003539  ( 0.059491 -0.000018 -0.000000)
 13:    749.96   0.001673    8.46  0.000696  (-0.000020 -0.000003  0.026388)
 14:    773.11   0.009256   46.78  0.003736  (-0.000003 -0.000000  0.061125)
 15:    888.92   0.000031    0.16  0.000011  (-0.000006  0.000004 -0.003308)
 16:    971.49   0.000052    0.26  0.000017  ( 0.000005  0.000000 -0.004081)
 17:    995.41   0.000000    0.00  0.000000  ( 0.000002  0.000003  0.000143)
 18:   1004.75   0.001402    7.08  0.000435  (-0.002094 -0.020758  0.000001)
 19:   1064.41   0.002379   12.02  0.000697  (-0.020590  0.016538  0.000002)
 20:   1100.75   0.010041   50.74  0.002847  ( 0.052717  0.008222 -0.000004)
 21:   1131.27   0.013775   69.61  0.003800  ( 0.061630 -0.001268 -0.000004)
 22:   1172.31   0.000489    2.47  0.000130  ( 0.007401  0.008679 -0.000001)
 23:   1304.07   0.000732    3.70  0.000175  (-0.013178  0.001252  0.000000)
 24:   1316.32   0.000258    1.30  0.000061  (-0.002450 -0.007423 -0.000000)
 25:   1442.53   0.013790   69.69  0.002983  ( 0.052573  0.014805 -0.000004)
 26:   1478.81   0.009197   46.48  0.001941  (-0.043908 -0.003586  0.000003)
 27:   1599.75   0.012287   62.09  0.002397  ( 0.048691  0.005102 -0.000004)
 28:   1606.42   0.007404   37.42  0.001438  ( 0.011896 -0.036011 -0.000000)
 29:   3145.20   0.002728   13.78  0.000271  ( 0.010375  0.012767 -0.000001)
 30:   3172.43   0.001100    5.56  0.000108  (-0.000695  0.010377 -0.000000)
 31:   3191.34   0.001955    9.88  0.000191  (-0.013725 -0.001676  0.000001)
 32:   3204.64   0.000218    1.10  0.000021  ( 0.000572 -0.004569 -0.000000)

* The epsilon (eps) is given for a Dirac delta lineshape.
** The dipole moment derivative (T) already includes vibrational overlap.

The first frequency considered to be a vibration is 6
The total number of vibrations considered is 27


--------------------------
THERMOCHEMISTRY AT 298.15K
--------------------------

Temperature         ...   298.15 K
Pressure            ...     1.00 atm
Total Mass          ...   113.55 AMU
Quasi RRHO          ...     True
Cut-Off Frequency   ...     1.00 cm^-1

Throughout the following assumptions are being made:
  (1) The electronic state is orbitally nondegenerate
  (2) There are no thermally accessible electronically excited states
  (3) Hindered rotations indicated by low frequency modes are not
      treated as such but are treated as vibrations and this may
      cause some error
  (4) All equations used are the standard statistical mechanics
      equations for an ideal gas
  (5) All vibrations are strictly harmonic

freq.     174.97  E(vib)   ...       0.38 
freq.     314.87  E(vib)   ...       0.25 
freq.     411.99  E(vib)   ...       0.19 
freq.     413.40  E(vib)   ...       0.19 
freq.     489.27  E(vib)   ...       0.15 
freq.     627.65  E(vib)   ...       0.09 
freq.     732.42  E(vib)   ...       0.06 
freq.     749.96  E(vib)   ...       0.06 
freq.     773.11  E(vib)   ...       0.05 
freq.     888.92  E(vib)   ...       0.04 
freq.     971.49  E(vib)   ...       0.03 
freq.     995.41  E(vib)   ...       0.02 
freq.    1004.75  E(vib)   ...       0.02 
freq.    1064.41  E(vib)   ...       0.02 
freq.    1100.75  E(vib)   ...       0.02 
freq.    1131.27  E(vib)   ...       0.01 
freq.    1172.31  E(vib)   ...       0.01 
freq.    1304.07  E(vib)   ...       0.01 
freq.    1316.32  E(vib)   ...       0.01 
freq.    1442.53  E(vib)   ...       0.00 
freq.    1478.81  E(vib)   ...       0.00 
freq.    1599.75  E(vib)   ...       0.00 
freq.    1606.42  E(vib)   ...       0.00 
freq.    3145.20  E(vib)   ...       0.00 
freq.    3172.43  E(vib)   ...       0.00 
freq.    3191.34  E(vib)   ...       0.00 
freq.    3204.64  E(vib)   ...       0.00 

------------
INNER ENERGY
------------

The inner energy is: U= E(el) + E(ZPE) + E(vib) + E(rot) + E(trans)
    E(el)   - is the total energy from the electronic structure calculation
              = E(kin-el) + E(nuc-el) + E(el-el) + E(nuc-nuc)
    E(ZPE)  - the the zero temperature vibrational energy from the frequency calculation
    E(vib)  - the the finite temperature correction to E(ZPE) due to population
              of excited vibrational states
    E(rot)  - is the rotational thermal energy
    E(trans)- is the translational thermal energy

Summary of contributions to the inner energy U:
Electronic energy                ...   -707.82369904 Eh
Zero point energy                ...      0.07854773 Eh      49.29 kcal/mol
Thermal vibrational correction   ...      0.00256084 Eh       1.61 kcal/mol
Thermal rotational correction    ...      0.00141627 Eh       0.89 kcal/mol
Thermal translational correction ...      0.00141627 Eh       0.89 kcal/mol
-----------------------------------------------------------------------
Total thermal energy                   -707.73975792 Eh


Summary of corrections to the electronic energy:
(perhaps to be used in another calculation)
Total thermal correction                  0.00539338 Eh       3.38 kcal/mol
Non-thermal (ZPE) correction              0.07854773 Eh      49.29 kcal/mol
-----------------------------------------------------------------------
Total correction                          0.08394111 Eh      52.67 kcal/mol


--------
ENTHALPY
--------

The enthalpy is H = U + kB*T
                kB is Boltzmann's constant
Total thermal energy              ...   -707.73975792 Eh 
Thermal Enthalpy correction       ...      0.00094421 Eh       0.59 kcal/mol
-----------------------------------------------------------------------
Total Enthalpy                    ...   -707.73881371 Eh


Note: Rotational entropy computed according to Herzberg 
Infrared and Raman Spectra, Chapter V,1, Van Nostrand Reinhold, 1945 
Point Group:  Cs, Symmetry Number:   1  
Rotational constants in cm-1:     0.196931     0.053717     0.042205 

Vibrational entropy computed according to the QRRHO of S. Grimme
Chem.Eur.J. 2012 18 9955 using a reference frequency of 100.0 cm-1


-------
ENTROPY
-------

The entropy contributions are T*S = T*(S(el)+S(vib)+S(rot)+S(trans))
     S(el)   - electronic entropy
     S(vib)  - vibrational entropy
     S(rot)  - rotational entropy
     S(trans)- translational entropy
The entropies will be listed as multiplied by the temperature to get
units of energy

Electronic entropy                ...      0.00000000 Eh      0.00 kcal/mol
Vibrational entropy               ...      0.00387977 Eh      2.43 kcal/mol
Rotational entropy                ...      0.01315259 Eh      8.25 kcal/mol
Translational entropy             ...      0.01905117 Eh     11.95 kcal/mol
-----------------------------------------------------------------------
Final entropy term                ...      0.03608354 Eh     22.64 kcal/mol

In case the symmetry of your molecule has not been determined correctly
or in case you have a reason to use a different symmetry number we print 
out the resulting rotational entropy values for sn=1,12:

 non-linear molecules -----------------------------------
|  sn= 1 | S(rot)=       0.01315259 Eh      8.25 kcal/mol|
|  sn= 2 | S(rot)=       0.01249813 Eh      7.84 kcal/mol|
|  sn= 3 | S(rot)=       0.01211530 Eh      7.60 kcal/mol|
|  sn= 4 | S(rot)=       0.01184368 Eh      7.43 kcal/mol|
|  sn= 5 | S(rot)=       0.01163299 Eh      7.30 kcal/mol|
|  sn= 6 | S(rot)=       0.01146085 Eh      7.19 kcal/mol|
|  sn= 7 | S(rot)=       0.01131530 Eh      7.10 kcal/mol|
|  sn= 8 | S(rot)=       0.01118922 Eh      7.02 kcal/mol|
|  sn= 9 | S(rot)=       0.01107801 Eh      6.95 kcal/mol|
|  sn=10 | S(rot)=       0.01097853 Eh      6.89 kcal/mol|
|  sn=11 | S(rot)=       0.01088854 Eh      6.83 kcal/mol|
|  sn=12 | S(rot)=       0.01080639 Eh      6.78 kcal/mol|
 linear molecules ---------------------------------------
|  Dinfh | S(rot)=       0.00831435 Eh      5.22 kcal/mol|
|  Cinfv | S(rot)=       0.00896881 Eh      5.63 kcal/mol|
 --------------------------------------------------------


-------------------
GIBBS FREE ENERGY
-------------------

The Gibbs free energy is G = H - T*S

Total enthalpy                    ...   -707.73881371 Eh 
Total entropy correction          ...     -0.03608354 Eh    -22.64 kcal/mol
-----------------------------------------------------------------------
Final Gibbs free energy         ...   -707.77489725 Eh

For completeness - the Gibbs free energy minus the electronic energy
G-E(el)                           ...      0.04880178 Eh     30.62 kcal/mol


Maximum memory used throughout the entire PROP-calculation: 49.2 MB

--------------------------------
SUGGESTED CITATIONS FOR THIS RUN
--------------------------------

Below you find a list of papers that are relevant to this ORCA run
We neither can nor want to force you to cite these papers, but we appreciate if you do
You receive ORCA, which is the product of decades of hard work by many enthusiastic individuals, for free
The only thing we kindly ask in return is that you cite our papers,
We deeply appreciate it, if you show your appreciation for ORCA by not just citing the generic ORCA reference.

Please note that relegating all ORCA citations to the supporting information does *not* help us.
SI sections are not indexed - citations you put there will not count into any citation statistics
But we need these citations in order to attract the funding resources that allow us to do what we are doing

Therefore, if you are a happy ORCA user, please consider citing a few of the papers listed below in the main body of your paper

In addition to the list printed below, the program has created the file vacuum_censo.bibtex that contains the list in bibtex format
You can import this file easily into all common literature databanks and citation aid programs


List of essential papers. We consider these as the minimum necessary citations

  1. Neese,F.
     Software update: the ORCA program system, version 5.0
     WIRES Comput. Molec. Sci., 2022 12(1)e1606
     doi.org/10.1002/wcms.1606
  2. Grimme,S.; Hansen,A.; Ehlert,S.; Mewes,J.
     r2SCAN-3c: A 'Swiss army knife' composite electronic-structure method
     J. Chem. Phys., 2021 154 064103
     doi.org/10.1063/5.0040021

List of papers to cite with high priority. The work reported in these papers was absolutely
necessary for this run to complete.
Our perspective: the developers of density functionals and basis sets usually get cited in chemistry papers
Good! But without the algorithms to do something with them, the functionals or basis sets would not do anything.
Hence, in our opinion, the algorithm design and method developments papers are equally worthy of getting cited

  1. Neese,F.
     An improvement of the resolution of the identity approximation for the formation of the Coulomb matrix
     J. Comp. Chem., 2003 24(14)1740-1747
     doi.org/10.1002/jcc.10318
  2. Bykov,D.; Petrenko,T.; Izsak,R.; Kossmann,S.; Becker,U.; Valeev,E.; Neese,F.
     Efficient implementation of the analytic second derivatives of Hartree-Fock and hybrid DFT energies: a detailed analysis of different approximations
     Molec. Phys., 2015 113 1961-1977
     doi.org/10.1080/00268976.2015.1025114
  3. Neese,F.
     The SHARK Integral Generation and Digestion System
     J. Comp. Chem., 2022  1-16
     doi.org/10.1002/jcc.26942
  4. Lehtola,S.; Steigemann,C.; Oliveira,M.; Marques,M.
     Recent developments in Libxc - A comprehensive library of functionals for density functional theory
     Software X, 2018 7 
     doi.org/10.1016/j.softx.2017.11.002
  5. Caldeweyher,E.; Bannwarth,C.; Grimme,S.
     Extension of the D3 dispersion coefficient model
     J. Chem. Phys., 2017 147 034112-XXXX
     doi.org/10.1063/1.4993215
  6. Caldeweyher,E.; Ehlert,S.; Hansen,A.; Neugebauer,H.; Spicher,S.; Bannwarth,C.; Grimme,S.
     A generally applicable atomic-charge dependent London dispersion correction
     J. Chem. Phys., 2019 150 154122-XXXX
     doi.org/10.1063/1.5090222
  7. Caldeweyher,E.; Mewes,J.; Ehlert,S.; Grimme,S.
     Extension and evaluation of the D4 London-dispersion model for periodic systems
     Phys. Chem. Chem. Phys., 2020 22(16)8499-8512
     doi.org/10.1039/D0CP00502A

List of suggested additional citations. These are papers that are important in the 'surrounding' of 
of this run, or papers that preceded the highly important papers. If you like your results we are grateful for a citation.

  1. Neese,F.
     The ORCA program system
     WIRES Comput. Molec. Sci., 2012 2(1)73-78
     doi.org/10.1002/wcms.81
  2. Neese,F.
     Software update: the ORCA program system, version 4.0
     WIRES Comput. Molec. Sci., 2018 8(1)1-6
     doi.org/10.1002/wcms.1327
  3. Neese,F.; Wennmohs,F.; Becker,U.; Riplinger,C.
     The ORCA quantum chemistry program package
     J. Chem. Phys., 2020 152 Art. No. L224108
     doi.org/10.1063/5.0004608

List of optional additional citations

  1. Neese,F.
     Approximate second-order SCF convergence for spin unrestricted wavefunctions
     Chem. Phys. Lett., 2000 325(1-3)93-98
     doi.org/10.1016/s0009-2614(00)00662-x

Timings for individual modules:

Sum of individual times          ...      354.042 sec (=   5.901 min)
Startup calculation              ...        0.905 sec (=   0.015 min)   0.3 %
SCF iterations                   ...       24.992 sec (=   0.417 min)   7.1 %
Property integrals               ...      200.917 sec (=   3.349 min)  56.7 %
SCF Response                     ...       63.127 sec (=   1.052 min)  17.8 %
Property calculations            ...       64.100 sec (=   1.068 min)  18.1 %
                             ****ORCA TERMINATED NORMALLY****
TOTAL RUN TIME: 0 days 0 hours 5 minutes 54 seconds 709 msec
