
                                 *****************
                                 * O   R   C   A *
                                 *****************

                                            #,                                       
                                            ###                                      
                                            ####                                     
                                            #####                                    
                                            ######                                   
                                           ########,                                 
                                     ,,################,,,,,                         
                               ,,#################################,,                 
                          ,,##########################################,,             
                       ,#########################################, ''#####,          
                    ,#############################################,,   '####,        
                  ,##################################################,,,,####,       
                ,###########''''           ''''###############################       
              ,#####''   ,,,,##########,,,,          '''####'''          '####       
            ,##' ,,,,###########################,,,                        '##       
           ' ,,###''''                  '''############,,,                           
         ,,##''                                '''############,,,,        ,,,,,,###''
      ,#''                                            '''#######################'''  
     '                                                          ''''####''''         
             ,#######,   #######,   ,#######,      ##                                
            ,#'     '#,  ##    ##  ,#'     '#,    #''#        ,####,   ,####,        
            ##       ##  ##   ,#'  ##            #'  '#       #'       #'  '#        
            ##       ##  #######   ##           ,######,      #####,   #    #        
            '#,     ,#'  ##    ##  '#,     ,#' ,#      #,     #,   #   #,  ,#        
             '#######'   ##     ##  '#######'  #'      '#     '####' # '####'        



                #########################################################
                #                        -***-                          #
                #          Department of theory and spectroscopy        #
                #                                                       #
                #                      Frank Neese                      #
                #                                                       #
                #     Directorship, Architecture, Infrastructure        #
                #                    SHARK, DRIVERS                     #
                #        Core code/Algorithms in most modules           #
                #                                                       #
                #        Max Planck Institute fuer Kohlenforschung      #
                #                Kaiser Wilhelm Platz 1                 #
                #                 D-45470 Muelheim/Ruhr                 #
                #                      Germany                          #
                #                                                       #
                #                  All rights reserved                  #
                #                        -***-                          #
                #########################################################


                         Program Version 6.0.1  -  RELEASE   -


 With contributions from (in alphabetic order):
[Max-Planck-Institut fuer Kohlenforschung]                               
  Daniel Aravena         : Magnetic Suceptibility                        
  Michael Atanasov       : Ab Initio Ligand Field Theory (pilot matlab implementation)
  Alexander A. Auer      : GIAO ZORA, VPT2 properties, NMR spectrum      
  Ute Becker             : All parallelization in ORCA, NUMFREQ, NUMCALC 
  Giovanni Bistoni       : ED, misc. LED, open-shell LED, HFLD           
  Martin Brehm           : Molecular dynamics                            
  Dmytro Bykov           : pre 5.0 version of the SCF Hessian            
  Marcos Casanova-Páez   : Triplet and SCS-CIS(D). UHF-(DLPNO)-IP/EA/STEOM-CCSD. UHF-CVS-IP/STEOM-CCSD   
  Vijay G. Chilkuri      : MRCI spin determinant printing, contributions to CSF-ICE 
  Pauline Colinet        : FMM embedding                                 
  Dipayan Datta          : RHF DLPNO-CCSD density                        
  Achintya Kumar Dutta   : EOM-CC, STEOM-CC                              
  Nicolas Foglia         : Exact transition moments, OPA infrastructure, MCD improvements    
  Dmitry Ganyushin       : Spin-Orbit,Spin-Spin,Magnetic field MRCI      
  Miquel Garcia-Rates    : C-PCM and meta-GGA Hessian, CCSD/C-PCM, Gaussian charge scheme 
  Tiago L. C. Gouveia    : GS-ROHF, GS-ROCIS                             
  Yang Guo               : DLPNO-NEVPT2, F12-NEVPT2, CIM, IAO-localization        
  Andreas Hansen         : Spin unrestricted coupled pair/coupled cluster methods 
  Ingolf Harden          : AUTO-CI MPn and infrastructure                
  Benjamin Helmich-Paris : MC-RPA, TRAH-(SCF,CASSCF), AVAS, COSX integrals, SCF dyn. polar. 
  Lee Huntington         : MR-EOM, pCC                                   
  Robert Izsak           : Overlap fitted RIJCOSX, COSX-SCS-MP3, EOM     
  Riya Kayal             : Wick's Theorem for AUTO-CI, AUTO-CI UHF-CCSDT 
  Emily Kempfer          : AUTO-CI, RHF CISDT and CCSDT                  
  Christian Kollmar      : KDIIS, OOCD, Brueckner-CCSD(T), CCSD density, CASPT2, CASPT2-K, improved NEVPT2 
  Axel Koslowski         : Symmetry handling                             
  Simone Kossmann        : meta-GGA functionals, TD-DFT gradient, OOMP2, (MP2 Hessian; deprecated post 5.0) 
  Lucas Lang             : DCDCAS                                        
  Marvin Lechner         : AUTO-CI (C++ implementation), FIC-MRCC        
  Spencer Leger          : CASSCF response                               
  Dagmar Lenk            : GEPOL surface, SMD, ORCA-2-JSON               
  Dimitrios Liakos       : Extrapolation schemes; Compound Job, initial MDCI parallelization 
  Dimitrios Manganas     : Further ROCIS development; embedding schemes. LFT, Crystal Embedding 
  Dimitrios Pantazis     : SARC Basis sets                               
  Anastasios Papadopoulos: AUTO-CI, single reference methods and gradients 
  Taras Petrenko         : pre 6.0 DFT Hessian and TD-DFT gradient, (ASA, deprecated), ECA, 1-Electron XAS/XES, NRVS 
  Peter Pinski           : DLPNO-MP2, DLPNO-MP2 Gradient                 
  Christoph Reimann      : Effective Core Potentials                     
  Marius Retegan         : Local ZFS, SOC                                
  Christoph Riplinger    : Optimizer, TS searches, QM/MM, DLPNO-CCSD(T), (RO)-DLPNO pert. Triples 
  Michael Roemelt        : Original ROCIS implementation                 
  Masaaki Saitow         : Open-shell DLPNO-CCSD energy and density      
  Barbara Sandhoefer     : DKH picture change effects                    
  Kantharuban Sivalingam : CASSCF convergence/infrastructure, NEVPT2 and variants, FIC-MRCI 
  Bernardo de Souza      : ESD, SOC TD-DFT                               
  Georgi L. Stoychev     : AutoAux, RI-MP2 NMR, DLPNO-MP2 response, X2C  
  Van Anh Tran           : RI-MP2 g-tensors                              
  Willem Van den Heuvel  : Paramagnetic NMR                              
  Zikuan Wang            : NOTCH, Electric field optimization            
  Frank Wennmohs         : Technical directorship and infrastructure     
  Hang Xu                : AUTO-CI-Response properties                   
                                                                         
[FACCTs GmbH]                                                            
  Markus Bursch, Miquel Garcia-Rates, Christoph Riplinger, Bernardo de Souza, Georgi L. Stoychev 
                                                                 
  APM, Basis sets (HGBS, AHGBS, def-TZVP (Ac-Lr), def2-XVPD (La-Lu)), CI-OPT, improved COSX, DLPNO-Multilevel,           
  DOCKER, DRACO, updates on ESD, GOAT, IRC, LR-CPCM, MBIS, meta-GGA TD-DFT gradient, ML-optimized integration grids, 
  MM, NACMEs, nearIR, NEB, NEB-TS, NL-DFT gradient (VV10), 2- and 3-layer-ONIOM, interface openCOSMO-RS, QMMM,   
  Crystal-QMMM, SF, symmetry and pop. for TD-DFT, r2SCAN hybrids, SOLVATOR                                   
                                                                         
[Other institutions]                                                     
  V. Asgeirsson          : NEB                                           
  Christoph Bannwarth    : sTDA-DFT, sTD-DFT, PBEh-3c, B97-3c, D3        
  Sebastian Ehlert       : rSCAN, r2SCAN, r2SCAN-3c, D4, dhf basis sets  
  Marvin Friede          : D4 for Fr, Ra, Ac-Lr                          
  Lars Goerigk           : TD-DFT with DH, B97 family of functionals     
  Stefan Grimme          : VdW corrections, initial TS optimization, DFT functionals, gCP, sTDA/sTD-DF 
  Waldemar Hujo          : DFT-NL                                        
  H. Jonsson             : NEB                                           
  Holger Kruse           : gCP                                           
  Marcel Mueller         : wB97X-3c, vDZP basis set                      
  Hagen Neugebauer       : wr2SCAN                                       
  Tobias Risthaus        : range-separated hybrid DFT                    
  Lukas Wittmann         : regularized MP2, r2SCAN double-hybrids, wr2SCAN        
                                                                         
We gratefully acknowledge several colleagues who have allowed us to      
interface, adapt or use parts of their codes:                            
  Ed Valeev, F. Pavosevic, A. Kumar             : LibInt (2-el integral package), F12 methods 
  Garnet Chan, S. Sharma, J. Yang, R. Olivares  : DMRG                   
  Ulf Ekstrom                                   : XCFun DFT Library      
  Mihaly Kallay                                 : mrcc  (arbitrary order and MRCC methods)
  Frank Weinhold                                : gennbo (NPA and NBO analysis)           
  Simon Mueller                                 : openCOSMO-RS                            
  Christopher J. Cramer and Donald G. Truhlar   : smd solvation model                     
  S Lehtola, MJT Oliveira, MAL Marques          : LibXC Library                           
  Liviu Ungur et al                             : ANISO software                          


 Your calculation uses the libint2 library for the computation of 2-el integrals
 For citations please refer to: http://libint.valeyev.net

 Your ORCA version has been built with support for libXC version: 6.2.2
 For citations please refer to: https://libxc.gitlab.io

 This ORCA versions uses:
   CBLAS   interface :  Fast vector & matrix operations
   LAPACKE interface :  Fast linear algebra routines
   SCALAPACK package :  Parallel linear algebra routines
   Shared memory     :  Shared parallel matrices
   BLAS/LAPACK       :  OpenBLAS 0.3.27  USE64BITINT DYNAMIC_ARCH NO_AFFINITY Zen SINGLE_THREADED
        Core in use  :  Zen
   Copyright (c) 2011-2014, The OpenBLAS Project


Your calculation utilizes the geometrical counterpoise correction gCP
Please cite in your paper:
H.Kruse, S. Grimme J.Chem.Phys., 136, (2012), 154101 
   

Your calculation utilizes the atom-pairwise dispersion correction
based on EEQ partial charges (D4)


================================================================================

----- Orbital basis set information -----
Your calculation utilizes the basis: def2-mTZVPP
   Stefan Grimme, Andreas Hansen, Sebastian Ehlert, and Jan-Michael Mewes 
   J. Chem. Phys. 154, 064103 (2021). DOI: 10.1063/5.0040021

----- AuxJ basis set information -----
Your calculation utilizes the auxiliary basis: def2/J
   F. Weigend, Phys. Chem. Chem. Phys. 8, 1057 (2006).

================================================================================
                                        WARNINGS
                       Please study these warnings very carefully!
================================================================================



WARNING: SCAN, rSCAN, or r2SCAN functional requested.
  ===> : libXC variant has now been activated.



================================================================================
                                       INPUT FILE
================================================================================
NAME = sp.inp
|  1> ! r2scan-3c def2/J RI DEFGRID2 scfconv6 printgap
|  2> %output
|  3>     printlevel normal
|  4> end
|  5> * xyz 0 1
|  6> C -2.4637057646 -1.2375542444 -0.1929222109
|  7> C -1.7884711451 0.0945080344 0.0073978821
|  8> O -2.4011998801 1.0630899245 0.3852684717
|  9> C -0.299541818 0.1879546507 -0.2982920121
| 10> C 0.4124121068 -1.1261047695 -0.6095141563
| 11> C 1.8800495967 -0.8607267012 -0.94326514
| 12> C 2.5795849509 -0.1525477229 0.2124570298
| 13> C 1.8688178056 1.156978304 0.53974199
| 14> C 0.4031759708 0.8984439683 0.8679680858
| 15> H -3.5161803518 -1.1531833336 0.0654296179
| 16> H -2.3703781776 -1.5496042897 -1.2304654794
| 17> H -1.9948604608 -1.9928526355 0.4326488234
| 18> H -0.2236196787 0.8419746857 -1.1776004277
| 19> H 0.3611551201 -1.788817687 0.257189497
| 20> H -0.0599094786 -1.6308215799 -1.45406553
| 21> H 2.3829258972 -1.805691091 -1.1598702441
| 22> H 1.9408580428 -0.2380269823 -1.8390616936
| 23> H 2.5704230287 -0.7996870681 1.0926910869
| 24> H 3.6217776774 0.0426947843 -0.0478673914
| 25> H 2.3547513454 1.6436633808 1.3875963883
| 26> H 1.9367284018 1.8311439131 -0.3171694395
| 27> H 0.3337482211 0.269803672 1.7594819687
| 28> H -0.1131102448 1.8361116065 1.0778320513
| 29> *
| 30> 
| 31>                          ****END OF INPUT****
================================================================================

                       ****************************
                       * Single Point Calculation *
                       ****************************

---------------------------------
CARTESIAN COORDINATES (ANGSTROEM)
---------------------------------
  C     -2.463706   -1.237554   -0.192922
  C     -1.788471    0.094508    0.007398
  O     -2.401200    1.063090    0.385268
  C     -0.299542    0.187955   -0.298292
  C      0.412412   -1.126105   -0.609514
  C      1.880050   -0.860727   -0.943265
  C      2.579585   -0.152548    0.212457
  C      1.868818    1.156978    0.539742
  C      0.403176    0.898444    0.867968
  H     -3.516180   -1.153183    0.065430
  H     -2.370378   -1.549604   -1.230465
  H     -1.994860   -1.992853    0.432649
  H     -0.223620    0.841975   -1.177600
  H      0.361155   -1.788818    0.257189
  H     -0.059909   -1.630822   -1.454066
  H      2.382926   -1.805691   -1.159870
  H      1.940858   -0.238027   -1.839062
  H      2.570423   -0.799687    1.092691
  H      3.621778    0.042695   -0.047867
  H      2.354751    1.643663    1.387596
  H      1.936728    1.831144   -0.317169
  H      0.333748    0.269804    1.759482
  H     -0.113110    1.836112    1.077832

----------------------------
CARTESIAN COORDINATES (A.U.)
----------------------------
  NO LB      ZA    FRAG     MASS         X           Y           Z
   0 C     6.0000    0    12.011   -4.655729   -2.338639   -0.364570
   1 C     6.0000    0    12.011   -3.379721    0.178594    0.013980
   2 O     8.0000    0    15.999   -4.537610    2.008949    0.728052
   3 C     6.0000    0    12.011   -0.566052    0.355183   -0.563690
   4 C     6.0000    0    12.011    0.779346   -2.128030   -1.151815
   5 C     6.0000    0    12.011    3.552779   -1.626538   -1.782513
   6 C     6.0000    0    12.011    4.874709   -0.288273    0.401486
   7 C     6.0000    0    12.011    3.531554    2.186372    1.019965
   8 C     6.0000    0    12.011    0.761892    1.697813    1.640222
   9 H     1.0000    0     1.008   -6.644618   -2.179201    0.123644
  10 H     1.0000    0     1.008   -4.479366   -2.928328   -2.325243
  11 H     1.0000    0     1.008   -3.769740   -3.765946    0.817588
  12 H     1.0000    0     1.008   -0.422580    1.591102   -2.225342
  13 H     1.0000    0     1.008    0.682484   -3.380376    0.486018
  14 H     1.0000    0     1.008   -0.113213   -3.081806   -2.747786
  15 H     1.0000    0     1.008    4.503077   -3.412262   -2.191837
  16 H     1.0000    0     1.008    3.667690   -0.449806   -3.475323
  17 H     1.0000    0     1.008    4.857396   -1.511190    2.064887
  18 H     1.0000    0     1.008    6.844168    0.080681   -0.090456
  19 H     1.0000    0     1.008    4.449835    3.106074    2.622177
  20 H     1.0000    0     1.008    3.659886    3.460361   -0.599363
  21 H     1.0000    0     1.008    0.630693    0.509855    3.324939
  22 H     1.0000    0     1.008   -0.213747    3.469748    2.036807

--------------------------------
INTERNAL COORDINATES (ANGSTROEM)
--------------------------------
 C      0   0   0     0.000000000000     0.00000000     0.00000000
 C      1   0   0     1.506804514737     0.00000000     0.00000000
 O      2   1   0     1.206803034057   121.57582124     0.00000000
 C      2   1   3     1.522855581666   117.75556320   180.66374941
 C      4   2   1     1.526594174591   116.36456785   352.37005396
 C      5   4   2     1.528324258793   110.05386121   177.92659640
 C      6   5   4     1.525306825150   110.82796931    58.23864143
 C      7   6   5     1.525504439567   110.33022275   302.33313337
 C      8   7   6     1.524033582509   110.40510001    57.07035314
 H      1   2   3     1.086999022417   109.49207018   359.19161362
 H      1   2   3     1.087465541190   110.00220743   119.44254792
 H      1   2   3     1.087028379321   110.14901850   238.65154071
 H      4   2   1     1.098494272703   105.35450684   112.57344033
 H      5   4   2     1.092241233588   109.79267684   297.76798433
 H      5   4   2     1.091372421107   110.73240660    57.24470677
 H      6   5   4     1.092135542283   109.58705579   179.73314789
 H      6   5   4     1.092659174893   109.35563699   297.63659876
 H      7   6   5     1.092559045637   109.36588503    62.67646514
 H      7   6   5     1.091812309905   109.88550858   180.84573844
 H      8   7   6     1.091719217473   109.99352461   178.22250589
 H      8   7   6     1.092432293361   109.42058169   296.51707473
 H      9   8   7     1.093071744198   109.52984578    62.66121152
 H      9   8   7     1.090786386128   110.53574037   181.42294263

---------------------------
INTERNAL COORDINATES (A.U.)
---------------------------
 C      0   0   0     0.000000000000     0.00000000     0.00000000
 C      1   0   0     2.847447870210     0.00000000     0.00000000
 O      2   1   0     2.280527231953   121.57582124     0.00000000
 C      2   1   3     2.877779990863   117.75556320   180.66374941
 C      4   2   1     2.884844907616   116.36456785   352.37005396
 C      5   4   2     2.888114292947   110.05386121   177.92659640
 C      6   5   4     2.882412169734   110.82796931    58.23864143
 C      7   6   5     2.882785606863   110.33022275   302.33313337
 C      8   7   6     2.880006089841   110.40510001    57.07035314
 H      1   2   3     2.054130460208   109.49207018   359.19161362
 H      1   2   3     2.055012052926   110.00220743   119.44254792
 H      1   2   3     2.054185936717   110.14901850   238.65154071
 H      4   2   1     2.075853335091   105.35450684   112.57344033
 H      5   4   2     2.064036803658   109.79267684   297.76798433
 H      5   4   2     2.062394986007   110.73240660    57.24470677
 H      6   5   4     2.063837076036   109.58705579   179.73314789
 H      6   5   4     2.064826598263   109.35563699   297.63659876
 H      7   6   5     2.064637381392   109.36588503    62.67646514
 H      7   6   5     2.063226255365   109.88550858   180.84573844
 H      8   7   6     2.063050336162   109.99352461   178.22250589
 H      8   7   6     2.064397854303   109.42058169   296.51707473
 H      9   8   7     2.065606241262   109.52984578    62.66121152
 H      9   8   7     2.061287540391   110.53574037   181.42294263

---------------------
BASIS SET INFORMATION
---------------------
There are 3 groups of distinct atoms

 Group   1 Type C   : 11s6p1d contracted to 5s3p1d pattern {62111/411/1}
 Group   2 Type O   : 11s6p2d contracted to 5s3p2d pattern {62111/411/11}
 Group   3 Type H   : 4s1p contracted to 2s1p pattern {31/1}

Atom   0C    basis set group =>   1
Atom   1C    basis set group =>   1
Atom   2O    basis set group =>   2
Atom   3C    basis set group =>   1
Atom   4C    basis set group =>   1
Atom   5C    basis set group =>   1
Atom   6C    basis set group =>   1
Atom   7C    basis set group =>   1
Atom   8C    basis set group =>   1
Atom   9H    basis set group =>   3
Atom  10H    basis set group =>   3
Atom  11H    basis set group =>   3
Atom  12H    basis set group =>   3
Atom  13H    basis set group =>   3
Atom  14H    basis set group =>   3
Atom  15H    basis set group =>   3
Atom  16H    basis set group =>   3
Atom  17H    basis set group =>   3
Atom  18H    basis set group =>   3
Atom  19H    basis set group =>   3
Atom  20H    basis set group =>   3
Atom  21H    basis set group =>   3
Atom  22H    basis set group =>   3
---------------------------------
AUXILIARY/J BASIS SET INFORMATION
---------------------------------
There are 3 groups of distinct atoms

 Group   1 Type C   : 12s5p4d2f1g contracted to 6s4p3d1f1g pattern {711111/2111/211/2/1}
 Group   2 Type O   : 12s5p4d2f1g contracted to 6s4p3d1f1g pattern {711111/2111/211/2/1}
 Group   3 Type H   : 5s2p1d contracted to 3s1p1d pattern {311/2/1}

Atom   0C    basis set group =>   1
Atom   1C    basis set group =>   1
Atom   2O    basis set group =>   2
Atom   3C    basis set group =>   1
Atom   4C    basis set group =>   1
Atom   5C    basis set group =>   1
Atom   6C    basis set group =>   1
Atom   7C    basis set group =>   1
Atom   8C    basis set group =>   1
Atom   9H    basis set group =>   3
Atom  10H    basis set group =>   3
Atom  11H    basis set group =>   3
Atom  12H    basis set group =>   3
Atom  13H    basis set group =>   3
Atom  14H    basis set group =>   3
Atom  15H    basis set group =>   3
Atom  16H    basis set group =>   3
Atom  17H    basis set group =>   3
Atom  18H    basis set group =>   3
Atom  19H    basis set group =>   3
Atom  20H    basis set group =>   3
Atom  21H    basis set group =>   3
Atom  22H    basis set group =>   3

Checking for AutoStart:
The File: sp.gbw exists
Trying to determine its content:
     ... Fine, the file contains calculation information
     ... Fine, the calculation information was read
     ... Fine, the file contains a basis set
     ... Fine, the basis set was read
     ... Fine, the file contains a geometry
     ... Fine, the geometry was read
     ... Fine, the file contains a set of orbitals
     ... Fine, the orbitals can be read
     => possible old guess file was deleted
     => GBW file was renamed to GES file
     => GES file is set as startup file
     => Guess is set to MORead
     ... now leaving AutoStart

------------------------------------------------------------------------------
                             ORCA STARTUP CALCULATIONS
                           -- RI-GTO INTEGRALS CHOSEN --
------------------------------------------------------------------------------
------------------------------------------------------------------------------
                   ___                                                        
                  /   \      - P O W E R E D   B Y -                         
                 /     \                                                     
                 |  |  |   _    _      __       _____    __    __             
                 |  |  |  | |  | |    /  \     |  _  \  |  |  /  |          
                  \  \/   | |  | |   /    \    | | | |  |  | /  /          
                 / \  \   | |__| |  /  /\  \   | |_| |  |  |/  /          
                |  |  |   |  __  | /  /__\  \  |    /   |      \           
                |  |  |   | |  | | |   __   |  |    \   |  |\   \          
                \     /   | |  | | |  |  |  |  | |\  \  |  | \   \       
                 \___/    |_|  |_| |__|  |__|  |_| \__\ |__|  \__/        
                                                                              
                      - O R C A' S   B I G   F R I E N D -                    
                                      &                                       
                       - I N T E G R A L  F E E D E R -                       
                                                                              
 v1 FN, 2020, v2 2021, v3 2022-2024                                           
------------------------------------------------------------------------------


----------------------
SHARK INTEGRAL PACKAGE
----------------------

Number of atoms                             ...     23
Number of basis functions                   ...    246
Number of shells                            ...    124
Maximum angular momentum                    ...      2
Integral batch strategy                     ... SHARK/LIBINT Hybrid
RI-J (if used) integral strategy            ... SPLIT-RIJ (Revised 2003 algorithm where possible)
Printlevel                                  ...      1
Contraction scheme used                     ... SEGMENTED contraction
Prescreening option                         ... SCHWARTZ
   Thresh                                   ... 1.000e-10
   Tcut                                     ... 1.000e-11
   Tpresel                                  ... 1.000e-11 
Coulomb Range Separation                    ... NOT USED
Exchange Range Separation                   ... NOT USED
Multipole approximations                    ... NOT USED
Finite Nucleus Model                        ... NOT USED
CABS basis                                  ... NOT available
Auxiliary Coulomb fitting basis             ... AVAILABLE
   # of basis functions in Aux-J            ...    595
   # of shells in Aux-J                     ...    205
   Maximum angular momentum in Aux-J        ...      4
Auxiliary J/K fitting basis                 ... NOT available
Auxiliary Correlation fitting basis         ... NOT available
Auxiliary 'external' fitting basis          ... NOT available

Checking pre-screening integrals            ... done (  0.0 sec) Dimension = 124
Check shell pair data                       ... done (  0.0 sec)
Shell pair information
Shell pair cut-off parameter TPreSel        ...   1.0e-11
Total number of shell pairs                 ...      7750
Shell pairs after pre-screening             ...      6942
Total number of primitive shell pairs       ...     27501
Primitive shell pairs kept                  ...     17449
          la=0 lb=0:   2389 shell pairs
          la=1 lb=0:   2689 shell pairs
          la=1 lb=1:    784 shell pairs
          la=2 lb=0:    655 shell pairs
          la=2 lb=1:    374 shell pairs
          la=2 lb=2:     51 shell pairs

Calculating one electron integrals          ... done (  0.0 sec)
Calculating RI/J V-Matrix + Cholesky decomp.... done (  0.0 sec)
Calculating Nuclear repulsion               ... done (  0.0 sec) ENN=    473.276711997463 Eh

Diagonalization of the overlap matrix:
Smallest eigenvalue                        ... 7.120e-05
Time for diagonalization                   ...    0.005 sec
Threshold for overlap eigenvalues          ... 1.000e-07
Number of eigenvalues below threshold      ... 0
Time for construction of square roots      ...    0.005 sec
Total time needed                          ...    0.011 sec

-------------------
DFT GRID GENERATION
-------------------

General Integration Accuracy     IntAcc      ... 4.388
Radial Grid Type                 RadialGrid  ... OptM3 with GC (2021)
Angular Grid (max. ang.)         AngularGrid ... 4 (Lebedev-302)
Angular grid pruning method      GridPruning ... 4 (adaptive)
Weight generation scheme         WeightScheme... mBecke (2022)
Basis function cutoff            BFCut       ... 1.0000e-10
Integration weight cutoff        WCut        ... 1.0000e-14
Partially contracted basis set               ... off
Rotationally invariant grid construction     ... off
Angular grids for H and He will be reduced by one unit
Diffuse basis detected: some atoms will have their outermost
                        angular grid increased by 1.

Total number of grid points                  ...    98636
Total number of batches                      ...     1552
Average number of points per batch           ...       63
Average number of grid points per atom       ...     4289
Initializing property integral containers    ... done (  0.0 sec)

SHARK setup successfully completed in   1.0 seconds

Maximum memory used throughout the entire STARTUP-calculation: 46.7 MB
-------------------------------------------------------------------------------
                                 ORCA GUESS
                   Start orbitals & Density for SCF / CASSCF
-------------------------------------------------------------------------------

------------
SCF SETTINGS
------------
Hamiltonian:
 Density Functional     Method          .... DFT(GTOs)
  Functional kind                       .... Exchange
  Functional name                       .... Re-regularized SCAN exchange by Furness et al
  Functional family                     .... MGGA
  Functional refs                              
    [ 0] J. W. Furness, A. D. Kaplan, J. Ning, J. P. Perdew, and J. Sun.,  J. Phys. Chem. Lett. 11, 8208-8215 (2020), doi: 10.1021/acs.jpclett.0c02405
    [ 1] J. W. Furness, A. D. Kaplan, J. Ning, J. P. Perdew, and J. Sun.,  J. Phys. Chem. Lett. 11, 9248-9248 (2020), doi: 10.1021/acs.jpclett.0c03077
  Functional external parameters        .... 6
    Parameter  0 _c1        =  6.670000e-01 : c1 parameter        
    Parameter  1 _c2        =  8.000000e-01 : c2 parameter        
    Parameter  2 _d         =  1.240000e+00 : d parameter         
    Parameter  3 _k1        =  6.500000e-02 : k1 parameter        
    Parameter  4 _eta       =  1.000000e-03 : eta parameter       
    Parameter  5 _dp2       =  3.610000e-01 : dp2 parameter       
  Functional kind                       .... Correlation
  Functional name                       .... Re-regularized SCAN correlation by Furness et al
  Functional family                     .... MGGA
  Functional refs                              
    [ 0] J. W. Furness, A. D. Kaplan, J. Ning, J. P. Perdew, and J. Sun.,  J. Phys. Chem. Lett. 11, 8208-8215 (2020), doi: 10.1021/acs.jpclett.0c02405
    [ 1] J. W. Furness, A. D. Kaplan, J. Ning, J. P. Perdew, and J. Sun.,  J. Phys. Chem. Lett. 11, 9248-9248 (2020), doi: 10.1021/acs.jpclett.0c03077
  Functional external parameters        .... 1
    Parameter  0 _eta       =  1.000000e-03 : Regularization parameter
 Gradients option       PostSCFGGA      .... off
 RI-approximation to the Coulomb term is turned on
   Number of AuxJ basis functions       .... 595


General Settings:
 Integral files         IntName         .... sp
 Hartree-Fock type      HFTyp           .... RHF
 Total Charge           Charge          ....    0
 Multiplicity           Mult            ....    1
 Number of Electrons    NEL             ....   70
 Basis Dimension        Dim             ....  246
 Nuclear Repulsion      ENuc            ....    473.2767119975 Eh

Convergence Acceleration:
 AO-DIIS                CNVDIIS         .... on
   Start iteration      DIISMaxIt       ....    12
   Startup error        DIISStart       ....  0.200000
   # of expansion vecs  DIISMaxEq       ....     5
   Bias factor          DIISBfac        ....   1.050
   Max. coefficient     DIISMaxC        ....  10.000
 MO-DIIS                CNVKDIIS        .... off
 Trust-Rad. Augm. Hess. CNVTRAH         .... auto
   Auto Start mean grad. ratio tolernc. ....  1.125000
   Auto Start start iteration           ....     1
   Auto Start num. interpolation iter.  ....    10
   Max. Number of Micro iterations      ....    24
   Max. Number of Macro iterations      .... Maxiter - #DIIS iter
   Number of Davidson start vectors     ....     2
   Converg. threshold    (grad. norm)   ....   3.330e-04
   Grad. Scal. Fac. for Micro threshold ....   0.100
   Minimum threshold for Micro iter.    ....   1.000e-02
   NR start threshold (gradient norm)   ....   1.000e-04
   Initial trust radius                 ....   0.400
   Minimum AH scaling param. (alpha)    ....   1.000
   Maximum AH scaling param. (alpha)    .... 1000.000
   Quad. conv. algorithm                .... NR
   White noise on init. David. guess    .... on
   Maximum white noise                  ....   0.010
   Pseudo random numbers                .... off
   Inactive MOs                         .... canonical
   Orbital update algorithm             .... Taylor
   Preconditioner                       .... Diag
   Full preconditioner red. dimension   ....   250
   COSX micro iterations for RIJONX calc.... off
 SOSCF                  CNVSOSCF        .... on
   Start iteration      SOSCFMaxIt      ....   150
   Startup grad/error   SOSCFStart      ....  0.003300
   Hessian update       SOSCFHessUp     .... L-BFGS
 Level Shifting         CNVShift        .... on
   Level shift para.    LevelShift      ....    0.2500
   Turn off err/grad.   ShiftErr        ....    0.0010
 Zerner damping         CNVZerner       .... off
 Static damping         CNVDamp         .... on
   Fraction old density DampFac         ....    0.7000
   Max. Damping (<1)    DampMax         ....    0.9800
   Min. Damping (>=0)   DampMin         ....    0.0000
   Turn off err/grad.   DampErr         ....    0.1000

SCF Procedure:
 Maximum # iterations   MaxIter         ....   125
 SCF integral mode      SCFMode         .... Direct
   Integral package                     .... SHARK and LIBINT hybrid scheme
 Reset frequency        DirectResetFreq ....    20
 Integral Threshold     Thresh          ....  1.000e-10 Eh
 Primitive CutOff       TCut            ....  1.000e-11 Eh

Convergence Tolerance:
 Convergence Check Mode ConvCheckMode   .... Total+1el-Energy
 Convergence forced     ConvForced      .... 0
 Energy Change          TolE            ....  1.000e-06 Eh
 1-El. energy change                    ....  1.000e-03 Eh
 Orbital Gradient       TolG            ....  3.330e-04
 Orbital Rotation angle TolX            ....  3.330e-04
 DIIS Error             TolErr          ....  1.000e-06

---------------------
INITIAL GUESS: MOREAD
---------------------
Guess MOs are being read from file: sp.ges
Input Geometry matches current geometry (good)
Atom 0: N(Shells)= 9 and 6 - projection required
Input basis set needs projection
NBasis(read)= 154
NBasis(calc)= 246
Basis set overlap was calculated
Using GuessMode=FMatrix for the initial guess
C*T matrix was formed
Effective Fockian was calculated
Effective Fockian was diagonalized
Initial density was built
                      ------------------
                      INITIAL GUESS DONE (   0.0 sec)
                      ------------------
             **** ENERGY FILE WAS UPDATED (sp.en.tmp) ****
Finished Guess after   0.5 sec
Maximum memory used throughout the entire GUESS-calculation: 19.3 MB

-------------------------------------------------------------------------------------------
                                      ORCA LEAN-SCF
                              memory conserving SCF solver
-------------------------------------------------------------------------------------------

----------------------------------------D-I-I-S--------------------------------------------
Iteration    Energy (Eh)           Delta-E    RMSDP     MaxDP     DIISErr   Damp  Time(sec)
-------------------------------------------------------------------------------------------
               ***  Starting incremental Fock matrix formation  ***
    1    -388.2137731929988718     0.00e+00  7.99e-03  3.44e-01  6.24e-01  0.700   2.3
    2    -388.2716827746250488    -5.79e-02  5.99e-03  2.17e-01  4.39e-01  0.700   2.0
    3    -388.3126122070474935    -4.09e-02  4.28e-03  1.43e-01  3.08e-01  0.700   2.0
    4    -388.3413408666778537    -2.87e-02  3.03e-03  9.84e-02  2.15e-01  0.700   2.0
                               ***Turning on AO-DIIS***
    5    -388.3614882129431294    -2.01e-02  2.15e-03  6.81e-02  1.51e-01  0.700   2.0
    6    -388.3756095734229916    -1.41e-02  1.52e-03  4.76e-02  1.05e-01  0.700   1.9
    7    -388.3855073551002874    -9.90e-03  1.07e-03  3.32e-02  7.38e-02  0.700   1.9
    8    -388.3924414665871723    -6.93e-03  2.49e-03  7.69e-02  5.17e-02  0.000   1.9
                              *** Initializing SOSCF ***
---------------------------------------S-O-S-C-F--------------------------------------
Iteration    Energy (Eh)           Delta-E    RMSDP     MaxDP     MaxGrad    Time(sec)
--------------------------------------------------------------------------------------
    9    -388.4086410001019090    -1.62e-02  9.23e-06  2.55e-04  2.51e-04     2.0
               *** Restarting incremental Fock matrix formation ***
   10    -388.4086410563120921    -5.62e-08  2.34e-05  1.41e-03  9.59e-05     2.4
   11    -388.4086401777745436     8.79e-07  1.51e-05  7.76e-04  2.76e-04     1.6
                 **** Energy Check signals convergence ****

               *****************************************************
               *                     SUCCESS                       *
               *           SCF CONVERGED AFTER  11 CYCLES          *
               *****************************************************

             **** ENERGY FILE WAS UPDATED (sp.en.tmp) ****

----------------
TOTAL SCF ENERGY
----------------

Total Energy       :       -388.40864017777454 Eh          -10569.13642 eV

Components:
Nuclear Repulsion  :        473.27671199746300 Eh           12878.51406 eV
Electronic Energy  :       -861.68535217523754 Eh          -23447.65049 eV
One Electron Energy:      -1463.17652424265816 Eh          -39815.05738 eV
Two Electron Energy:        601.49117206742062 Eh           16367.40689 eV

Virial components:
Potential Energy   :       -775.16013571583517 Eh          -21093.17965 eV
Kinetic Energy     :        386.75149553806068 Eh           10524.04323 eV
Virial Ratio       :          2.00428477887954

DFT components:
N(Alpha)           :       35.000033239584 electrons
N(Beta)            :       35.000033239584 electrons
N(Total)           :       70.000066479169 electrons
E(X)               :      -54.947857220496 Eh       
E(C)               :       -2.223459691555 Eh       
E(XC)              :      -57.171316912051 Eh       

---------------
SCF CONVERGENCE
---------------

  Last Energy change         ...   -8.7854e-07  Tolerance :   1.0000e-06
  Last MAX-Density change    ...    7.7590e-04  Tolerance :   1.0000e-05
  Last RMS-Density change    ...    1.5114e-05  Tolerance :   1.0000e-06
  Last DIIS Error            ...    2.5101e-04  Tolerance :   1.0000e-06
  Last Orbital Gradient      ...    2.7613e-04  Tolerance :   3.3300e-04
  Last Orbital Rotation      ...    2.8304e-04  Tolerance :   3.3300e-04


----------------
ORBITAL ENERGIES
----------------

  NO   OCC          E(Eh)            E(eV) 
   0   2.0000     -18.933959      -515.2192 
   1   2.0000     -10.114931      -275.2413 
   2   2.0000     -10.041309      -273.2379 
   3   2.0000     -10.034250      -273.0458 
   4   2.0000     -10.031856      -272.9807 
   5   2.0000     -10.030216      -272.9361 
   6   2.0000     -10.027479      -272.8616 
   7   2.0000     -10.026542      -272.8361 
   8   2.0000     -10.026094      -272.8239 
   9   2.0000      -1.005851       -27.3706 
  10   2.0000      -0.810623       -22.0582 
  11   2.0000      -0.737447       -20.0670 
  12   2.0000      -0.714804       -19.4508 
  13   2.0000      -0.696755       -18.9597 
  14   2.0000      -0.598325       -16.2812 
  15   2.0000      -0.578942       -15.7538 
  16   2.0000      -0.533488       -14.5169 
  17   2.0000      -0.498791       -13.5728 
  18   2.0000      -0.456717       -12.4279 
  19   2.0000      -0.433898       -11.8070 
  20   2.0000      -0.420093       -11.4313 
  21   2.0000      -0.414347       -11.2750 
  22   2.0000      -0.402810       -10.9610 
  23   2.0000      -0.395901       -10.7730 
  24   2.0000      -0.383817       -10.4442 
  25   2.0000      -0.355860        -9.6834 
  26   2.0000      -0.350812        -9.5461 
  27   2.0000      -0.345600        -9.4042 
  28   2.0000      -0.332818        -9.0564 
  29   2.0000      -0.318093        -8.6557 
  30   2.0000      -0.309799        -8.4301 
  31   2.0000      -0.297318        -8.0904 
  32   2.0000      -0.282492        -7.6870 
  33   2.0000      -0.271695        -7.3932 
  34   2.0000      -0.208939        -5.6855 
  35   0.0000      -0.042634        -1.1601 
  36   0.0000       0.076593         2.0842 
  37   0.0000       0.097302         2.6477 
  38   0.0000       0.103991         2.8297 
  39   0.0000       0.113967         3.1012 
  40   0.0000       0.121198         3.2980 
  41   0.0000       0.124745         3.3945 
  42   0.0000       0.132301         3.6001 
  43   0.0000       0.138208         3.7608 
  44   0.0000       0.149604         4.0709 
  45   0.0000       0.156660         4.2629 
*Only the first 10 virtual orbitals were printed.

                    ********************************
                    * MULLIKEN POPULATION ANALYSIS *
                    ********************************

-----------------------
MULLIKEN ATOMIC CHARGES
-----------------------
   0 C :   -0.481388
   1 C :    0.244676
   2 O :   -0.345311
   3 C :   -0.049234
   4 C :   -0.379592
   5 C :   -0.297270
   6 C :   -0.274282
   7 C :   -0.303565
   8 C :   -0.328775
   9 H :    0.178424
  10 H :    0.169826
  11 H :    0.155253
  12 H :    0.181140
  13 H :    0.167910
  14 H :    0.142567
  15 H :    0.147696
  16 H :    0.148257
  17 H :    0.139564
  18 H :    0.147511
  19 H :    0.149174
  20 H :    0.149217
  21 H :    0.155264
  22 H :    0.182936
Sum of atomic charges:    0.0000000

--------------------------------
MULLIKEN REDUCED ORBITAL CHARGES
--------------------------------
  0 C s       :     3.300498  s :     3.300498
      pz      :     1.072114  p :     3.156311
      px      :     1.087013
      py      :     0.997184
      dz2     :     0.005731  d :     0.024579
      dxz     :     0.002284
      dyz     :     0.004260
      dx2y2   :     0.006449
      dxy     :     0.005855

  1 C s       :     3.235636  s :     3.235636
      pz      :     0.699018  p :     2.426327
      px      :     0.916647
      py      :     0.810662
      dz2     :     0.007594  d :     0.093361
      dxz     :     0.010630
      dyz     :     0.013711
      dx2y2   :     0.036664
      dxy     :     0.024762

  2 O s       :     3.835263  s :     3.835263
      pz      :     1.349484  p :     4.487222
      px      :     1.667524
      py      :     1.470214
      dz2     :     0.005472  d :     0.022825
      dxz     :     0.002744
      dyz     :     0.007885
      dx2y2   :     0.001008
      dxy     :     0.005716

  3 C s       :     3.043992  s :     3.043992
      pz      :     1.033852  p :     2.961308
      px      :     0.943989
      py      :     0.983467
      dz2     :     0.008091  d :     0.043934
      dxz     :     0.005874
      dyz     :     0.010556
      dx2y2   :     0.011666
      dxy     :     0.007747

  4 C s       :     3.276722  s :     3.276722
      pz      :     1.121557  p :     3.066007
      px      :     0.983654
      py      :     0.960796
      dz2     :     0.005068  d :     0.036863
      dxz     :     0.005984
      dyz     :     0.009553
      dx2y2   :     0.008009
      dxy     :     0.008249

  5 C s       :     3.232653  s :     3.232653
      pz      :     0.971344  p :     3.027466
      px      :     0.943115
      py      :     1.113007
      dz2     :     0.007341  d :     0.037151
      dxz     :     0.006526
      dyz     :     0.008231
      dx2y2   :     0.007612
      dxy     :     0.007441

  6 C s       :     3.220055  s :     3.220055
      pz      :     0.985089  p :     3.017154
      px      :     1.079152
      py      :     0.952914
      dz2     :     0.007026  d :     0.037072
      dxz     :     0.004683
      dyz     :     0.010450
      dx2y2   :     0.008815
      dxy     :     0.006098

  7 C s       :     3.243859  s :     3.243859
      pz      :     1.118551  p :     3.022523
      px      :     0.942469
      py      :     0.961502
      dz2     :     0.004992  d :     0.037183
      dxz     :     0.006063
      dyz     :     0.009468
      dx2y2   :     0.008647
      dxy     :     0.008013

  8 C s       :     3.248895  s :     3.248895
      pz      :     0.945146  p :     3.043005
      px      :     0.963900
      py      :     1.133959
      dz2     :     0.006970  d :     0.036875
      dxz     :     0.006681
      dyz     :     0.008246
      dx2y2   :     0.007259
      dxy     :     0.007719

  9 H s       :     0.803648  s :     0.803648
      pz      :     0.003836  p :     0.017927
      px      :     0.010804
      py      :     0.003288

 10 H s       :     0.811486  s :     0.811486
      pz      :     0.010345  p :     0.018688
      px      :     0.003745
      py      :     0.004598

 11 H s       :     0.826015  s :     0.826015
      pz      :     0.006144  p :     0.018732
      px      :     0.004958
      py      :     0.007629

 12 H s       :     0.801185  s :     0.801185
      pz      :     0.008144  p :     0.017675
      px      :     0.003386
      py      :     0.006145

 13 H s       :     0.814290  s :     0.814290
      pz      :     0.008104  p :     0.017800
      px      :     0.003510
      py      :     0.006186

 14 H s       :     0.839421  s :     0.839421
      pz      :     0.007838  p :     0.018013
      px      :     0.004991
      py      :     0.005184

 15 H s       :     0.834484  s :     0.834484
      pz      :     0.003809  p :     0.017820
      px      :     0.005075
      py      :     0.008936

 16 H s       :     0.833995  s :     0.833995
      pz      :     0.008440  p :     0.017748
      px      :     0.003446
      py      :     0.005862

 17 H s       :     0.842664  s :     0.842664
      pz      :     0.008317  p :     0.017772
      px      :     0.003386
      py      :     0.006068

 18 H s       :     0.834626  s :     0.834626
      pz      :     0.003869  p :     0.017862
      px      :     0.010267
      py      :     0.003727

 19 H s       :     0.832967  s :     0.832967
      pz      :     0.007857  p :     0.017859
      px      :     0.004978
      py      :     0.005024

 20 H s       :     0.833046  s :     0.833046
      pz      :     0.007995  p :     0.017737
      px      :     0.003457
      py      :     0.006285

 21 H s       :     0.826991  s :     0.826991
      pz      :     0.008455  p :     0.017745
      px      :     0.003475
      py      :     0.005815

 22 H s       :     0.799055  s :     0.799055
      pz      :     0.003626  p :     0.018009
      px      :     0.005513
      py      :     0.008870


------------------------
MULLIKEN OVERLAP CHARGES
------------------------
B(  0-C ,  1-C ) :   0.5174 B(  0-C ,  2-O ) :  -0.1928 B(  0-C ,  3-C ) :  -0.3191 
B(  0-C ,  4-C ) :  -0.0638 B(  0-C ,  9-H ) :   0.8329 B(  0-C , 10-H ) :   0.8239 
B(  0-C , 11-H ) :   0.7501 B(  1-C ,  2-O ) :   1.1307 B(  1-C ,  3-C ) :  -0.2898 
B(  1-C ,  4-C ) :   0.2682 B(  1-C ,  8-C ) :  -0.0775 B(  1-C ,  9-H ) :  -0.0853 
B(  1-C , 10-H ) :  -0.0936 B(  2-O ,  3-C ) :  -0.2620 B(  3-C ,  4-C ) :  -0.1713 
B(  3-C ,  5-C ) :  -0.0953 B(  3-C ,  6-C ) :   0.1287 B(  3-C ,  7-C ) :  -0.2544 
B(  3-C ,  8-C ) :   0.4946 B(  3-C , 12-H ) :   0.8346 B(  3-C , 13-H ) :  -0.1740 
B(  3-C , 21-H ) :  -0.1380 B(  4-C ,  5-C ) :   0.0713 B(  4-C ,  6-C ) :  -0.2502 
B(  4-C ,  7-C ) :   0.1736 B(  4-C ,  8-C ) :  -0.4015 B(  4-C , 12-H ) :  -0.0620 
B(  4-C , 13-H ) :   0.9423 B(  4-C , 14-H ) :   0.6596 B(  4-C , 16-H ) :  -0.0795 
B(  5-C ,  6-C ) :   0.4308 B(  5-C ,  7-C ) :  -0.3948 B(  5-C ,  8-C ) :   0.1895 
B(  5-C , 13-H ) :  -0.0579 B(  5-C , 15-H ) :   0.6899 B(  5-C , 16-H ) :   0.8924 
B(  5-C , 17-H ) :  -0.0945 B(  6-C ,  7-C ) :   0.4402 B(  6-C ,  8-C ) :  -0.2701 
B(  6-C , 16-H ) :  -0.1149 B(  6-C , 17-H ) :   0.8467 B(  6-C , 18-H ) :   0.7281 
B(  6-C , 20-H ) :  -0.1176 B(  7-C ,  8-C ) :   0.2833 B(  7-C , 17-H ) :  -0.0819 
B(  7-C , 19-H ) :   0.7114 B(  7-C , 20-H ) :   0.9153 B(  7-C , 21-H ) :  -0.0681 
B(  8-C , 12-H ) :  -0.0748 B(  8-C , 20-H ) :  -0.1313 B(  8-C , 21-H ) :   0.8713 
B(  8-C , 22-H ) :   0.7360 


                     *******************************
                     * LOEWDIN POPULATION ANALYSIS *
                     *******************************

----------------------
LOEWDIN ATOMIC CHARGES
----------------------
   0 C :   -0.384058
   1 C :    0.229316
   2 O :   -0.465135
   3 C :   -0.203768
   4 C :   -0.295467
   5 C :   -0.300597
   6 C :   -0.304464
   7 C :   -0.300879
   8 C :   -0.270341
   9 H :    0.173720
  10 H :    0.173516
  11 H :    0.173084
  12 H :    0.186558
  13 H :    0.159136
  14 H :    0.158762
  15 H :    0.155739
  16 H :    0.156243
  17 H :    0.154443
  18 H :    0.155454
  19 H :    0.156816
  20 H :    0.155703
  21 H :    0.159633
  22 H :    0.176584

-------------------------------
LOEWDIN REDUCED ORBITAL CHARGES
-------------------------------
  0 C s       :     2.966624  s :     2.966624
      pz      :     1.138668  p :     3.359617
      px      :     1.143660
      py      :     1.077289
      dz2     :     0.014158  d :     0.057817
      dxz     :     0.005187
      dyz     :     0.010353
      dx2y2   :     0.014949
      dxy     :     0.013170

  1 C s       :     2.825110  s :     2.825110
      pz      :     0.727520  p :     2.745596
      px      :     1.009544
      py      :     1.008532
      dz2     :     0.015425  d :     0.199979
      dxz     :     0.020949
      dyz     :     0.026512
      dx2y2   :     0.081885
      dxy     :     0.055208

  2 O s       :     3.553053  s :     3.553053
      pz      :     1.366989  p :     4.667100
      px      :     1.703615
      py      :     1.596497
      dz2     :     0.028986  d :     0.244981
      dxz     :     0.028498
      dyz     :     0.038083
      dx2y2   :     0.080490
      dxy     :     0.068925

  3 C s       :     2.899394  s :     2.899394
      pz      :     1.098770  p :     3.214250
      px      :     1.030628
      py      :     1.084853
      dz2     :     0.016818  d :     0.090123
      dxz     :     0.011440
      dyz     :     0.022148
      dx2y2   :     0.023592
      dxy     :     0.016125

  4 C s       :     2.926150  s :     2.926150
      pz      :     1.134011  p :     3.288595
      px      :     1.072635
      py      :     1.081949
      dz2     :     0.011474  d :     0.080721
      dxz     :     0.012417
      dyz     :     0.021938
      dx2y2   :     0.017510
      dxy     :     0.017383

  5 C s       :     2.931237  s :     2.931237
      pz      :     1.100154  p :     3.288853
      px      :     1.062823
      py      :     1.125877
      dz2     :     0.015770  d :     0.080507
      dxz     :     0.013320
      dyz     :     0.018872
      dx2y2   :     0.016629
      dxy     :     0.015916

  6 C s       :     2.932243  s :     2.932243
      pz      :     1.101754  p :     3.291603
      px      :     1.105355
      py      :     1.084493
      dz2     :     0.015088  d :     0.080618
      dxz     :     0.009927
      dyz     :     0.023481
      dx2y2   :     0.019108
      dxy     :     0.013014

  7 C s       :     2.930684  s :     2.930684
      pz      :     1.136876  p :     3.289285
      px      :     1.066518
      py      :     1.085891
      dz2     :     0.011255  d :     0.080910
      dxz     :     0.012647
      dyz     :     0.021522
      dx2y2   :     0.018587
      dxy     :     0.016900

  8 C s       :     2.925577  s :     2.925577
      pz      :     1.079937  p :     3.264843
      px      :     1.058583
      py      :     1.126324
      dz2     :     0.015054  d :     0.079921
      dxz     :     0.013730
      dyz     :     0.018898
      dx2y2   :     0.015974
      dxy     :     0.016264

  9 H s       :     0.782934  s :     0.782934
      pz      :     0.008608  p :     0.043346
      px      :     0.027572
      py      :     0.007166

 10 H s       :     0.781428  s :     0.781428
      pz      :     0.025990  p :     0.045056
      px      :     0.008325
      py      :     0.010741

 11 H s       :     0.781712  s :     0.781712
      pz      :     0.014842  p :     0.045204
      px      :     0.011817
      py      :     0.018545

 12 H s       :     0.769241  s :     0.769241
      pz      :     0.020206  p :     0.044202
      px      :     0.008475
      py      :     0.015521

 13 H s       :     0.797351  s :     0.797351
      pz      :     0.020127  p :     0.043513
      px      :     0.008338
      py      :     0.015048

 14 H s       :     0.797462  s :     0.797462
      pz      :     0.019393  p :     0.043776
      px      :     0.012129
      py      :     0.012254

 15 H s       :     0.800861  s :     0.800861
      pz      :     0.008869  p :     0.043401
      px      :     0.012299
      py      :     0.022232

 16 H s       :     0.800550  s :     0.800550
      pz      :     0.020888  p :     0.043206
      px      :     0.008056
      py      :     0.014263

 17 H s       :     0.802400  s :     0.802400
      pz      :     0.020420  p :     0.043157
      px      :     0.007955
      py      :     0.014782

 18 H s       :     0.801142  s :     0.801142
      pz      :     0.009141  p :     0.043404
      px      :     0.025371
      py      :     0.008892

 19 H s       :     0.799787  s :     0.799787
      pz      :     0.019434  p :     0.043396
      px      :     0.012027
      py      :     0.011935

 20 H s       :     0.801165  s :     0.801165
      pz      :     0.019678  p :     0.043132
      px      :     0.008092
      py      :     0.015361

 21 H s       :     0.797009  s :     0.797009
      pz      :     0.020805  p :     0.043357
      px      :     0.008234
      py      :     0.014319

 22 H s       :     0.778509  s :     0.778509
      pz      :     0.008482  p :     0.044907
      px      :     0.013599
      py      :     0.022827


---------------------------------
LOEWDIN BOND ORDERS (THRESH 0.050000)
---------------------------------
B(  0-C ,  1-C ) :   1.0343 B(  0-C ,  2-O ) :   0.2190 B(  0-C ,  3-C ) :   0.0810 
B(  0-C ,  9-H ) :   0.9097 B(  0-C , 10-H ) :   0.8983 B(  0-C , 11-H ) :   0.8980 
B(  1-C ,  2-O ) :   2.3807 B(  1-C ,  3-C ) :   0.9469 B(  1-C ,  4-C ) :   0.0645 
B(  1-C ,  8-C ) :   0.0776 B(  2-O ,  3-C ) :   0.2161 B(  2-O ,  8-C ) :   0.0628 
B(  3-C ,  4-C ) :   1.0606 B(  3-C ,  5-C ) :   0.0674 B(  3-C ,  7-C ) :   0.0649 
B(  3-C ,  8-C ) :   1.0363 B(  3-C , 12-H ) :   0.8255 B(  4-C ,  5-C ) :   1.0975 
B(  4-C ,  6-C ) :   0.0623 B(  4-C ,  8-C ) :   0.0603 B(  4-C , 13-H ) :   0.8809 
B(  4-C , 14-H ) :   0.8817 B(  5-C ,  6-C ) :   1.1044 B(  5-C ,  7-C ) :   0.0623 
B(  5-C , 15-H ) :   0.8905 B(  5-C , 16-H ) :   0.8874 B(  6-C ,  7-C ) :   1.1038 
B(  6-C ,  8-C ) :   0.0638 B(  6-C , 17-H ) :   0.8896 B(  6-C , 18-H ) :   0.8920 
B(  7-C ,  8-C ) :   1.1020 B(  7-C , 19-H ) :   0.8890 B(  7-C , 20-H ) :   0.8880 
B(  8-C , 21-H ) :   0.8819 B(  8-C , 22-H ) :   0.8715 

------------------------------------------
LOEWDIN REDUCED ORBITAL POPULATIONS PER MO
-------------------------------------------
THRESHOLD FOR PRINTING IS 0.1%%
                      0         1         2         3         4         5   
                 -18.93396 -10.11493 -10.04131 -10.03425 -10.03186 -10.03022
                   2.00000   2.00000   2.00000   2.00000   2.00000   2.00000
                  --------  --------  --------  --------  --------  --------
 0 C  s               0.0       0.0       0.0       0.0      99.7       0.0
 1 C  s               0.0      99.2       0.0       0.0       0.0       0.0
 2 O  s              99.9       0.0       0.0       0.0       0.0       0.0
 2 O  py              0.0       0.2       0.0       0.0       0.0       0.0
 2 O  dxy             0.0       0.2       0.0       0.0       0.0       0.0
 3 C  s               0.0       0.0      99.6       0.0       0.0       0.0
 4 C  s               0.0       0.0       0.0      99.6       0.0       0.0
 5 C  s               0.0       0.0       0.0       0.0       0.0      99.6

                      6         7         8         9        10        11   
                 -10.02748 -10.02654 -10.02609  -1.00585  -0.81062  -0.73745
                   2.00000   2.00000   2.00000   2.00000   2.00000   2.00000
                  --------  --------  --------  --------  --------  --------
 0 C  s               0.0       0.0       0.0       1.2       0.6      12.0
 0 C  px              0.0       0.0       0.0       0.1       0.3       0.6
 0 C  py              0.0       0.0       0.0       1.7       0.0       0.2
 1 C  s               0.0       0.0       0.0      17.7       1.1       5.4
 1 C  pz              0.0       0.0       0.0       1.3       0.2       1.0
 1 C  px              0.0       0.0       0.0       3.4       3.1       1.9
 1 C  py              0.0       0.0       0.0       8.5       0.5       6.1
 1 C  dz2             0.0       0.0       0.0       0.3       0.0       0.0
 1 C  dxz             0.0       0.0       0.0       0.1       0.0       0.0
 1 C  dyz             0.0       0.0       0.0       0.3       0.0       0.0
 1 C  dx2y2           0.0       0.0       0.0       0.2       0.0       0.0
 1 C  dxy             0.0       0.0       0.0       0.8       0.0       0.2
 2 O  s               0.0       0.0       0.0      52.9       0.9       3.0
 2 O  pz              0.0       0.0       0.0       0.6       0.0       0.1
 2 O  px              0.0       0.0       0.0       1.7       0.1       0.2
 2 O  py              0.0       0.0       0.0       4.1       0.1       0.6
 2 O  dz2             0.0       0.0       0.0       0.1       0.0       0.2
 2 O  dyz             0.0       0.0       0.0       0.1       0.0       0.2
 2 O  dxy             0.0       0.0       0.0       0.3       0.1       0.2
 3 C  s               0.0       0.0       0.0       1.2      13.8       9.3
 3 C  pz              0.0       0.0       0.0       0.2       0.2       0.0
 3 C  px              0.0       0.0       0.0       1.8       1.5       1.5
 3 C  py              0.0       0.0       0.0       0.1       0.3       0.7
 4 C  s               0.0       0.0       0.0       0.1      12.6       2.0
 4 C  px              0.0       0.0       0.0       0.1       0.2       4.0
 4 C  py              0.0       0.0       0.0       0.1       1.9       0.4
 5 C  s               0.0       0.0       0.0       0.0      10.3       3.2
 5 C  pz              0.0       0.1       0.0       0.0       1.1       0.7
 5 C  px              0.0       0.0       0.0       0.0       0.7       1.8
 5 C  py              0.0       0.0       0.0       0.0       0.3       0.5
 6 C  s               0.0      97.3       2.3       0.0       9.0      12.3
 6 C  pz              0.0       0.0       0.0       0.0       0.3       0.0
 6 C  px              0.0       0.0       0.0       0.0       1.7       0.2
 6 C  py              0.0       0.0       0.1       0.0       0.1       0.2
 7 C  s               0.3       2.3      97.1       0.0       9.1       7.4
 7 C  px              0.1       0.0       0.0       0.0       0.6       0.8
 7 C  py              0.0       0.1       0.0       0.0       1.5       0.8
 8 C  s              99.4       0.0       0.3       0.2      10.6       0.0
 8 C  pz              0.0       0.0       0.0       0.1       1.5       0.3
 8 C  px              0.0       0.0       0.1       0.4       0.3       3.5
 8 C  py              0.0       0.0       0.0       0.0       0.5       0.4
 9 H  s               0.0       0.0       0.0       0.1       0.1       1.7
 9 H  px              0.0       0.0       0.0       0.0       0.0       0.1
10 H  s               0.0       0.0       0.0       0.1       0.1       2.3
10 H  pz              0.0       0.0       0.0       0.0       0.0       0.2
11 H  s               0.0       0.0       0.0       0.1       0.1       2.2
11 H  py              0.0       0.0       0.0       0.0       0.0       0.1
12 H  s               0.0       0.0       0.0       0.1       1.6       1.4
12 H  pz              0.0       0.0       0.0       0.0       0.1       0.1
13 H  s               0.0       0.0       0.0       0.0       1.4       0.3
14 H  s               0.0       0.0       0.0       0.0       1.4       0.4
15 H  s               0.0       0.0       0.0       0.0       1.1       0.5
16 H  s               0.0       0.0       0.0       0.0       1.1       0.5
17 H  s               0.0       0.0       0.0       0.0       1.0       1.8
17 H  pz              0.0       0.0       0.0       0.0       0.1       0.1
18 H  s               0.0       0.0       0.0       0.0       1.0       1.9
18 H  px              0.0       0.0       0.0       0.0       0.1       0.2
19 H  s               0.0       0.0       0.0       0.0       1.0       1.1
20 H  s               0.0       0.0       0.0       0.0       1.0       1.1
21 H  s               0.0       0.0       0.0       0.0       1.1       0.0
22 H  s               0.0       0.0       0.0       0.0       1.1       0.0

                     12        13        14        15        16        17   
                  -0.71480  -0.69675  -0.59832  -0.57894  -0.53349  -0.49879
                   2.00000   2.00000   2.00000   2.00000   2.00000   2.00000
                  --------  --------  --------  --------  --------  --------
 0 C  s               0.4      27.1       1.9       0.7       0.1       2.3
 0 C  pz              0.0       0.0       0.0       0.0       0.1       0.3
 0 C  px              0.0       0.1       0.6       0.4       0.0       4.8
 0 C  py              0.0       0.1       0.9       0.1       0.5       6.7
 0 C  dxy             0.0       0.0       0.0       0.0       0.0       0.2
 1 C  s               0.0       1.8       3.1       0.0       0.9       8.3
 1 C  pz              0.0       0.1       0.7       0.3       1.0       0.1
 1 C  px              0.9       3.9       7.0       0.1       0.3       1.1
 1 C  py              0.3       8.5       0.2       0.0       0.0       1.7
 1 C  dx2y2           0.0       0.1       0.1       0.0       0.0       0.0
 1 C  dxy             0.0       0.2       0.0       0.0       0.0       0.0
 2 O  s               0.1       0.7       1.5       0.1       0.4       4.3
 2 O  pz              0.0       0.0       0.2       0.0       0.4       0.3
 2 O  px              0.1       0.1       1.4       0.0       0.2       2.6
 2 O  py              0.0       0.7       0.2       0.0       0.2       5.1
 2 O  dz2             0.0       0.1       0.0       0.0       0.0       0.1
 2 O  dxz             0.0       0.0       0.2       0.0       0.1       0.0
 2 O  dyz             0.0       0.1       0.1       0.0       0.1       0.1
 2 O  dx2y2           0.1       0.8       0.1       0.0       0.0       0.1
 2 O  dxy             0.0       0.0       0.5       0.0       0.1       0.7
 3 C  s               1.4       4.6       6.4       0.2       0.4       2.7
 3 C  pz              2.6       0.0       0.3       3.6       4.3       3.6
 3 C  px              0.0       1.1       5.7       0.1       0.9      10.5
 3 C  py              4.6       0.0       1.0       5.1       1.7       1.9
 3 C  dx2y2           0.0       0.0       0.1       0.0       0.0       0.1
 4 C  s               9.6       4.7       6.6       6.1       1.7       0.2
 4 C  pz              0.5       0.0       0.1       0.1       4.3       0.0
 4 C  px              2.4       0.1       0.6       5.2       0.8       0.0
 4 C  py              0.6       0.3       2.6       0.3       1.3       6.5
 5 C  s              16.4       0.0       0.1       9.6       4.3       0.5
 5 C  pz              0.0       0.4       0.8       1.0       7.6       0.2
 5 C  px              0.5       2.4       5.2       2.6       0.0       0.3
 5 C  py              0.3       0.4       1.3       0.1       0.2       3.5
 6 C  s               1.0       6.3       9.3       0.4       5.4       0.2
 6 C  pz              2.5       0.1       0.0       3.4       4.0       0.1
 6 C  px              0.0       0.1       2.0       0.1       0.8       0.1
 6 C  py              4.0       0.5       0.5       5.0       2.6       0.1
 7 C  s               8.9       4.2       2.4       6.6       5.1       0.6
 7 C  pz              0.5       0.0       0.7       0.0       1.4       2.5
 7 C  px              2.6       1.2       3.0       5.2       0.0       0.2
 7 C  py              0.4       0.3       2.1       0.2       6.1       1.0
 8 C  s              16.9       0.5       3.3       9.3       2.1       0.2
 8 C  pz              0.1       0.3       1.3       0.8       2.6       6.0
 8 C  px              0.3       1.8       2.6       3.2       1.2       0.0
 8 C  py              0.2       0.3       0.7       0.0       2.4       0.3
 9 H  s               0.1       5.4       1.0       0.4       0.1       3.1
 9 H  px              0.0       0.5       0.1       0.0       0.0       0.1
10 H  s               0.1       5.7       0.7       0.2       0.0       2.2
10 H  pz              0.0       0.4       0.0       0.0       0.0       0.1
11 H  s               0.1       5.6       0.8       0.2       0.2       1.4
11 H  pz              0.0       0.2       0.0       0.0       0.0       0.0
11 H  py              0.0       0.2       0.0       0.0       0.0       0.0
12 H  s               0.2       1.0       2.6       0.1       2.1       5.0
12 H  pz              0.0       0.1       0.1       0.0       0.1       0.2
13 H  s               1.6       0.8       2.5       2.3       3.2       1.1
13 H  pz              0.1       0.0       0.1       0.1       0.1       0.1
14 H  s               1.9       0.8       2.5       2.8       0.3       0.5
14 H  pz              0.1       0.0       0.1       0.2       0.0       0.0
15 H  s               3.0       0.0       0.0       4.3       1.8       1.7
15 H  py              0.2       0.0       0.0       0.3       0.1       0.1
16 H  s               2.7       0.0       0.0       3.6       5.1       0.0
16 H  pz              0.2       0.0       0.0       0.2       0.2       0.0
16 H  py              0.1       0.0       0.0       0.1       0.1       0.0
17 H  s               0.2       1.1       2.8       0.1       5.7       0.0
17 H  pz              0.0       0.1       0.2       0.0       0.2       0.0
17 H  py              0.0       0.0       0.1       0.0       0.1       0.0
18 H  s               0.2       1.3       3.8       0.2       2.0       0.0
18 H  px              0.0       0.1       0.3       0.0       0.1       0.0
19 H  s               1.6       0.9       0.9       3.0       2.1       1.6
19 H  pz              0.1       0.1       0.0       0.2       0.1       0.0
20 H  s               1.5       0.7       0.7       2.4       5.3       0.0
20 H  pz              0.1       0.0       0.1       0.1       0.2       0.0
21 H  s               2.8       0.1       1.1       3.4       3.3       1.2
21 H  pz              0.2       0.0       0.0       0.2       0.1       0.0
21 H  py              0.1       0.0       0.0       0.1       0.0       0.0
22 H  s               3.0       0.1       0.9       3.9       0.4       0.5
22 H  py              0.2       0.0       0.0       0.3       0.0       0.0

                     18        19        20        21        22        23   
                  -0.45672  -0.43390  -0.42009  -0.41435  -0.40281  -0.39590
                   2.00000   2.00000   2.00000   2.00000   2.00000   2.00000
                  --------  --------  --------  --------  --------  --------
 0 C  s               0.4       0.1       0.1       0.0       0.0       0.1
 0 C  pz              2.3       6.5       0.1       4.6      22.4       3.3
 0 C  px              0.1       2.4       0.9       4.2       2.2       3.5
 0 C  py              8.7       7.5       2.0       1.6       1.2       5.3
 1 C  s               1.5       0.2       0.0       0.1       0.1       0.4
 1 C  pz              0.6       7.9       0.3       1.8       6.0       0.3
 1 C  px              4.3       5.6       1.1       3.6       0.1       0.8
 1 C  py              2.6       0.1       2.9       0.2       0.2      11.9
 2 O  s               1.5       0.9       0.6       3.2       0.4       5.3
 2 O  pz              0.1       6.0       1.2       0.0       2.1       3.2
 2 O  px              0.5       0.7       3.5       0.5       0.7      18.9
 2 O  py              8.5       2.3       0.0      10.1       2.0       6.2
 2 O  dz2             0.0       0.1       0.0       0.1       0.1       0.0
 2 O  dxz             0.0       0.1       0.1       0.1       0.0       0.0
 2 O  dyz             0.0       0.4       0.0       0.0       0.3       0.0
 2 O  dx2y2           0.9       0.1       0.2       0.1       0.0       0.3
 2 O  dxy             0.0       0.2       0.0       0.2       0.0       0.2
 3 C  s               0.1       0.1       0.1       0.1       0.7       0.6
 3 C  pz              1.0       9.5       0.1       0.0       1.0       1.3
 3 C  px              3.8       0.2       0.6       1.5       0.2       0.5
 3 C  py              1.5       1.4       4.3       3.0       0.3       0.3
 3 C  dx2y2           0.0       0.0       0.0       0.1       0.0       0.1
 4 C  s               0.3       0.0       0.1       0.9       0.0       0.1
 4 C  pz              4.0       6.3       7.1       0.0       2.9       1.3
 4 C  px              1.9       0.1       6.1       0.0       0.4       0.4
 4 C  py              5.4       0.1       2.2       2.8       1.4       0.3
 5 C  s               0.1       0.1       0.1       0.7       0.1       0.0
 5 C  pz              1.4       0.0       9.0       0.4       2.3       0.8
 5 C  px              1.3       0.9       0.1       0.0       0.9       2.7
 5 C  py              3.3       0.7      10.4       0.0       1.4       4.2
 6 C  s               0.4       0.2       0.3       0.4       0.1       0.1
 6 C  pz              0.2       4.6       2.2       1.8       7.2       0.0
 6 C  px              8.1       0.0       5.6       6.7       0.2       0.9
 6 C  py              0.1       1.8       4.6       0.0       0.1       4.8
 7 C  s               0.1       0.2       0.5       0.3       0.0       0.0
 7 C  pz              1.2       4.6       0.0       8.2      10.7       0.2
 7 C  px              1.1       1.3       0.4       0.1       1.8       1.2
 7 C  py              2.8       0.8       0.6       2.6       0.0       3.5
 8 C  s               0.2       0.5       0.8       0.3       0.3       0.0
 8 C  pz              1.0       0.8       4.7       3.6       0.4       0.9
 8 C  px              2.2       1.4       0.4       3.2       0.0       0.4
 8 C  py              6.0       1.1       0.3       6.9       0.7       2.5
 9 H  s               0.0       0.3       0.3       2.5       2.8       0.7
 9 H  px              0.0       0.0       0.0       0.1       0.1       0.0
10 H  s               3.1       0.7       0.4       2.9       7.6       3.0
10 H  pz              0.1       0.0       0.0       0.1       0.1       0.1
10 H  py              0.0       0.1       0.0       0.0       0.1       0.0
11 H  s               1.2       7.3       0.3       0.1       3.9       0.0
11 H  px              0.0       0.0       0.0       0.0       0.1       0.0
12 H  s               0.7       3.1       0.5       0.3       1.6       0.9
13 H  s               0.1       1.5       2.4       1.3       1.8       0.0
14 H  s               4.4       1.4       2.9       1.2       0.0       0.9
14 H  py              0.0       0.0       0.1       0.0       0.0       0.0
15 H  s               1.5       0.0       2.2       0.2       0.5       2.7
16 H  s               0.0       0.3       5.5       0.8       0.2       1.1
16 H  pz              0.0       0.0       0.1       0.0       0.0       0.0
17 H  s               0.4       2.8       1.3       0.1       1.7       0.6
18 H  s               3.0       0.0       4.6       4.6       0.1       0.0
18 H  px              0.1       0.0       0.2       0.1       0.0       0.0
19 H  s               1.2       0.0       0.2       1.8       4.3       0.2
20 H  s               0.0       2.5       0.4       2.6       2.1       0.3
21 H  s               0.0       0.2       3.2       2.0       0.1       1.0
22 H  s               3.5       0.4       0.4       3.6       0.6       0.3

                     24        25        26        27        28        29   
                  -0.38382  -0.35586  -0.35081  -0.34560  -0.33282  -0.31809
                   2.00000   2.00000   2.00000   2.00000   2.00000   2.00000
                  --------  --------  --------  --------  --------  --------
 0 C  pz              3.0       0.0       0.5      10.8       0.3       0.2
 0 C  px             17.2       4.3       0.8       4.7       8.2       0.3
 0 C  py              2.2       3.5       2.5       0.1       0.0       0.4
 0 C  dz2             0.0       0.0       0.0       0.2       0.0       0.0
 0 C  dyz             0.0       0.0       0.0       0.2       0.0       0.0
 0 C  dx2y2           0.1       0.1       0.0       0.1       0.2       0.0
 1 C  s               0.3       0.4       0.1       0.1       0.0       0.0
 1 C  pz              0.3       0.3       1.1       6.0       2.6       0.0
 1 C  px              0.1       2.9       0.8       0.7       2.5       0.1
 1 C  py              0.3       2.1       1.7       0.5       0.5       0.0
 1 C  dyz             0.0       0.0       0.0       0.4       0.1       0.0
 1 C  dx2y2           0.2       0.0       0.1       0.0       0.1       0.0
 1 C  dxy             0.0       0.2       0.2       0.0       0.0       0.0
 2 O  s               0.0       0.9       0.6       0.2       0.0       0.0
 2 O  pz              0.2       3.2       6.1       9.2       7.2       0.0
 2 O  px              0.9       0.2       0.8       0.9       3.0       0.0
 2 O  py              0.0       7.5       1.3       5.6       0.2       0.1
 2 O  dz2             0.0       0.2       0.1       0.0       0.0       0.0
 2 O  dxz             0.0       0.0       0.0       0.2       0.0       0.0
 3 C  s               1.7       0.2       0.0       0.1       0.1       0.0
 3 C  pz              2.4       0.1       4.9       1.9       0.1       2.1
 3 C  px              0.4       4.0       0.2       5.0       1.1       0.0
 3 C  py              1.3       0.1       2.7       0.3       8.7       0.2
 3 C  dxz             0.0       0.1       0.0       0.0       0.1       0.0
 3 C  dxy             0.0       0.0       0.2       0.0       0.0       0.0
 4 C  s               0.0       0.3       0.2       0.1       0.0       0.0
 4 C  pz              6.7       0.1       8.0       0.3       1.5       5.8
 4 C  px              0.2       6.8       0.0       1.8      10.8       1.5
 4 C  py              0.6       0.3       5.0       6.3       1.5       2.5
 4 C  dyz             0.0       0.0       0.2       0.0       0.1       0.1
 4 C  dx2y2           0.0       0.1       0.0       0.0       0.0       0.1
 4 C  dxy             0.1       0.1       0.0       0.0       0.0       0.0
 5 C  s               0.1       0.3       0.2       0.0       0.0       0.1
 5 C  pz              0.9       2.4       2.4       0.0       1.4      11.5
 5 C  px              1.9      10.5       0.1       2.8       6.8       0.5
 5 C  py              2.4       3.9       7.3       0.3       0.8       5.4
 5 C  dz2             0.0       0.0       0.0       0.0       0.0       0.2
 5 C  dxz             0.0       0.0       0.0       0.0       0.1       0.0
 5 C  dyz             0.0       0.0       0.0       0.0       0.0       0.3
 6 C  s               0.6       0.2       0.0       0.1       0.1       0.0
 6 C  pz              0.4       0.2       4.3       2.6       0.9       2.9
 6 C  px              5.0       3.1       0.6       2.1       2.2       0.0
 6 C  py              0.6       0.2       3.0       1.3       8.6       0.1
 6 C  dz2             0.0       0.0       0.0       0.0       0.1       0.1
 6 C  dxy             0.0       0.0       0.1       0.0       0.0       0.0
 7 C  s               0.1       0.1       0.4       0.1       0.1       0.0
 7 C  pz              1.4       0.0       5.3       0.4       0.0       6.0
 7 C  px              5.6       4.5       0.0       0.9       6.3       1.7
 7 C  py              3.1       0.2       6.4       3.9       1.2       2.2
 7 C  dxz             0.0       0.0       0.0       0.1       0.0       0.0
 7 C  dx2y2           0.0       0.1       0.0       0.0       0.0       0.1
 8 C  s               0.1       0.3       0.1       0.0       0.1       0.1
 8 C  pz              0.3       1.7       5.6       2.4       0.2      10.1
 8 C  px              1.3       7.3       0.1       2.1       3.6       0.8
 8 C  py              6.2       5.7       5.0       0.4       1.0       4.9
 8 C  dz2             0.0       0.0       0.0       0.0       0.1       0.1
 8 C  dyz             0.0       0.0       0.0       0.1       0.0       0.2
 9 H  s               6.8       3.0       0.4       5.1       4.3       0.2
10 H  s               0.4       0.3       0.1       7.6       0.1       0.0
10 H  px              0.1       0.0       0.0       0.0       0.1       0.0
11 H  s               6.6       2.3       2.4       0.5       2.2       0.4
11 H  py              0.1       0.0       0.0       0.0       0.0       0.0
12 H  s               0.2       0.3       0.4       1.0       1.6       0.5
13 H  s               1.1       0.1       1.2       2.3       1.8       5.9
13 H  py              0.1       0.0       0.1       0.0       0.0       0.0
14 H  s               2.6       0.4       4.8       0.6       2.1       0.3
15 H  s               2.6       5.7       2.8       0.0       0.0       0.9
15 H  pz              0.0       0.0       0.0       0.0       0.0       0.1
15 H  py              0.1       0.1       0.0       0.0       0.0       0.0
16 H  s               0.0       0.0       0.2       0.0       0.1      11.4
17 H  s               1.1       0.1       0.3       1.6       0.8       1.1
18 H  s               1.5       1.1       0.4       0.2       1.6       0.1
19 H  s               4.1       0.4       3.5       1.6       0.2       0.4
20 H  s               0.1       0.0       0.3       0.1       0.5       5.5
21 H  s               1.1       0.2       0.1       1.7       0.3      10.1
22 H  s               1.6       5.6       2.2       0.3       0.0       0.6
22 H  pz              0.0       0.0       0.0       0.0       0.0       0.1

                     30        31        32        33        34        35   
                  -0.30980  -0.29732  -0.28249  -0.27169  -0.20894  -0.04263
                   2.00000   2.00000   2.00000   2.00000   2.00000   0.00000
                  --------  --------  --------  --------  --------  --------
 0 C  s               0.0       0.0       0.0       0.0       1.4       0.0
 0 C  pz              1.6       0.3       0.1       0.0       0.3       0.1
[...]
 6 C  dxy             0.3       0.0       0.0       0.0       0.0       0.0
 7 C  s               0.1       0.2       0.0       0.0      14.1      25.5
 7 C  pz              0.3       0.5       0.0       0.0       0.0       0.0
 7 C  px              0.3       0.0       0.0       0.0       0.0       0.0
 7 C  py              0.0       0.3       0.0       0.0       0.0       0.0
 7 C  dz2             0.2       0.5       0.0       0.0       0.0       0.0
 7 C  dyz             0.3       1.7       0.0       0.0       0.0       0.0
 7 C  dx2y2           1.3       0.0       0.0       0.0       0.0       0.0
 7 C  dxy             0.5       0.0       0.0       0.0       0.0       0.0
 8 C  s               0.8       0.4       0.0      25.4       2.5       3.4
 8 C  pz              0.9       0.3       0.0       0.0       0.0       0.0
 8 C  px              1.0       0.0       0.2       0.0       0.0       0.0
 8 C  py              4.7       2.5       0.0       0.0       0.0       0.0
 8 C  dz2             1.0       2.5       0.0       0.0       0.0       0.0
 8 C  dxz             0.3       0.1       0.0       0.0       0.0       0.0
 8 C  dyz             0.0       3.6       0.0       0.0       0.0       0.0
 8 C  dx2y2           1.8       0.0       0.0       0.0       0.0       0.0
 8 C  dxy             4.0       1.0       0.0       0.0       0.0       0.0
 9 H  s               0.1       0.8       0.1       0.0       0.0       0.0
 9 H  px              0.1       1.1       0.1       0.0       0.0       0.0
10 H  s               0.0       0.1       0.0       0.0       0.0       0.0
10 H  pz              0.0       0.3       0.0       0.0       0.0       0.0
11 H  s               0.0       0.3       0.0       0.0       0.0       0.0
11 H  pz              0.0       0.3       0.0       0.0       0.0       0.0
11 H  py              0.0       0.5       0.0       0.0       0.0       0.0
12 H  s               1.5       3.0       0.0       0.0       0.0       0.0
12 H  pz              2.4       6.3       0.0       0.0       0.0       0.0
12 H  px              0.4       0.0       0.0       0.0       0.0       0.0
12 H  py              1.1       2.4       0.1       0.0       0.0       0.0
13 H  s               0.0       1.9       0.0       0.0       0.0       0.0
13 H  pz              0.1       3.8       0.0       0.0       0.0       0.0
13 H  py              0.0       1.8       0.0       0.0       0.0       0.0
14 H  s               0.2       0.0       0.0       0.0       0.0       0.0
14 H  pz              0.2       0.2       0.0       0.0       0.0       0.0
14 H  px              0.3       0.0       0.0       0.0       0.0       0.0
15 H  s               0.3       0.3       0.0       0.0       0.0       0.0
15 H  py              0.7       0.8       0.0       0.0       0.0       0.0
16 H  s               0.2       0.2       0.0       0.0       0.0       0.0
16 H  pz              0.9       0.3       0.0       0.0       0.0       0.0
16 H  px              0.1       0.0       0.0       0.0       0.0       0.0
16 H  py              0.0       0.5       0.0       0.0       0.0       0.0
17 H  s               2.6       0.1       0.0       0.0       0.0       0.0
17 H  pz              3.9       0.3       0.0       0.0       0.0       0.0
17 H  px              1.3       0.0       0.0       0.0       0.0       0.0
17 H  py              2.0       0.1       0.0       0.0       0.0       0.0
18 H  s               4.5       0.0       0.0       0.0       0.0       0.0
18 H  pz              0.7       0.0       0.0       0.0       0.0       0.0
18 H  px              9.2       0.0       0.0       0.0       0.0       0.0
18 H  py              0.3       0.0       0.0       0.0       0.0       0.0
19 H  s               0.0       0.1       0.0       0.0       0.0       0.0
20 H  s               0.3       0.8       0.0       0.0       0.0       0.0
20 H  pz              0.6       0.9       0.0       0.0       0.0       0.0
20 H  py              0.4       1.2       0.0       0.0       0.0       0.0
21 H  s               0.2       2.2       0.0       0.0       0.0       0.0
21 H  pz              0.5       5.2       0.0       0.0       0.0       0.0
21 H  px              0.1       0.1       0.0       0.0       0.0       0.0
21 H  py              0.1       0.8       0.0       0.0       0.0       0.0
22 H  s               3.8       1.5       0.0       0.0       0.0       0.0
22 H  pz              0.2       0.1       0.0       0.0       0.0       0.0
22 H  px              2.6       1.0       0.0       0.0       0.0       0.0
22 H  py              6.7       2.2       0.0       0.0       0.0       0.0

                    240       241       242       243       244       245   
                  22.05341  22.07574  22.12671  22.18776  22.20451  43.64580
                   0.00000   0.00000   0.00000   0.00000   0.00000   0.00000
                  --------  --------  --------  --------  --------  --------
 0 C  s               6.8       7.2       0.0       0.0       0.0       0.0
 1 C  s               7.8      31.4      47.9       0.6       5.9       0.0
 2 O  s               0.0       0.1       0.1       0.0       0.0      99.9
 3 C  s              26.1       2.0       5.3      36.7      12.6       0.0
 4 C  s              25.7       5.8       4.0       0.0      36.0       0.0
 5 C  s               4.5      17.0       5.4      23.4       4.1       0.0
 6 C  s              11.0       1.7      18.4      19.7       2.6       0.0
 7 C  s              17.5      12.5      10.1       0.2      19.7       0.0
 8 C  s               0.1      21.7       8.4      19.2      18.9       0.0



                      *****************************
                      * MAYER POPULATION ANALYSIS *
                      *****************************

  NA   - Mulliken gross atomic population
  ZA   - Total nuclear charge
  QA   - Mulliken gross atomic charge
  VA   - Mayer's total valence
  BVA  - Mayer's bonded valence
  FA   - Mayer's free valence

  ATOM       NA         ZA         QA         VA         BVA        FA
  0 C      6.4814     6.0000    -0.4814     3.7174     3.7174     0.0000
  1 C      5.7553     6.0000     0.2447     3.7295     3.7295    -0.0000
  2 O      8.3453     8.0000    -0.3453     1.9765     1.9765    -0.0000
  3 C      6.0492     6.0000    -0.0492     3.3862     3.3862     0.0000
  4 C      6.3796     6.0000    -0.3796     3.6736     3.6736     0.0000
  5 C      6.2973     6.0000    -0.2973     3.6733     3.6733     0.0000
  6 C      6.2743     6.0000    -0.2743     3.6571     3.6571    -0.0000
  7 C      6.3036     6.0000    -0.3036     3.6617     3.6617     0.0000
  8 C      6.3288     6.0000    -0.3288     3.6413     3.6413     0.0000
  9 H      0.8216     1.0000     0.1784     0.9600     0.9600     0.0000
 10 H      0.8302     1.0000     0.1698     0.9603     0.9603     0.0000
 11 H      0.8447     1.0000     0.1553     0.9646     0.9646    -0.0000
 12 H      0.8189     1.0000     0.1811     0.9547     0.9547     0.0000
 13 H      0.8321     1.0000     0.1679     0.9583     0.9583     0.0000
 14 H      0.8574     1.0000     0.1426     0.9598     0.9598    -0.0000
 15 H      0.8523     1.0000     0.1477     0.9594     0.9594    -0.0000
 16 H      0.8517     1.0000     0.1483     0.9653     0.9653     0.0000
 17 H      0.8604     1.0000     0.1396     0.9665     0.9665    -0.0000
 18 H      0.8525     1.0000     0.1475     0.9603     0.9603    -0.0000
 19 H      0.8508     1.0000     0.1492     0.9589     0.9589     0.0000
 20 H      0.8508     1.0000     0.1492     0.9643     0.9643     0.0000
 21 H      0.8447     1.0000     0.1553     0.9657     0.9657     0.0000
 22 H      0.8171     1.0000     0.1829     0.9549     0.9549     0.0000

  Mayer bond orders larger than 0.100000
B(  0-C ,  1-C ) :   0.9169 B(  0-C ,  9-H ) :   0.9808 B(  0-C , 10-H ) :   0.9621 
B(  0-C , 11-H ) :   0.9400 B(  1-C ,  2-O ) :   1.9457 B(  1-C ,  3-C ) :   0.8531 
B(  3-C ,  4-C ) :   0.8751 B(  3-C ,  8-C ) :   0.9080 B(  3-C , 12-H ) :   0.9384 
B(  4-C ,  5-C ) :   0.9072 B(  4-C , 13-H ) :   1.0179 B(  4-C , 14-H ) :   0.9290 
B(  5-C ,  6-C ) :   0.9256 B(  5-C , 15-H ) :   0.9414 B(  5-C , 16-H ) :   0.9986 
B(  6-C ,  7-C ) :   0.9151 B(  6-C , 17-H ) :   0.9852 B(  6-C , 18-H ) :   0.9473 
B(  7-C ,  8-C ) :   0.8853 B(  7-C , 19-H ) :   0.9449 B(  7-C , 20-H ) :   1.0049 
B(  8-C , 21-H ) :   0.9970 B(  8-C , 22-H ) :   0.9414 

-------
TIMINGS
-------

Total SCF time: 0 days 0 hours 0 min 24 sec 

Total time                  ....      24.604 sec
Sum of individual times     ....      24.560 sec  ( 99.8%)

SCF preparation             ....       0.649 sec  (  2.6%)
Fock matrix formation       ....      21.655 sec  ( 88.0%)
  Startup                   ....       0.010 sec  (  0.0% of F)
  Split-RI-J                ....       4.987 sec  ( 23.0% of F)
  XC integration            ....      16.502 sec  ( 76.2% of F)
    Basis function eval.    ....       3.026 sec  ( 18.3% of XC)
    Density eval.           ....       5.798 sec  ( 35.1% of XC)
    XC-Functional eval.     ....       1.668 sec  ( 10.1% of XC)
    XC-Potential eval.      ....       5.562 sec  ( 33.7% of XC)
Diagonalization             ....       0.000 sec  (  0.0%)
Density matrix formation    ....       0.050 sec  (  0.2%)
Total Energy calculation    ....       0.003 sec  (  0.0%)
Population analysis         ....       1.971 sec  (  8.0%)
Orbital Transformation      ....       0.027 sec  (  0.1%)
Orbital Orthonormalization  ....       0.000 sec  (  0.0%)
DIIS solution               ....       0.169 sec  (  0.7%)
  MO trafo                  ....       0.000 sec  (  0.0 % of DIIS)
  Orb grad                  ....       0.000 sec  (  0.0 % of DIIS)
  Energy W gradient         ....       0.000 sec  (  0.0 % of DIIS)
  DIIS error                ....       0.022 sec  ( 13.3 % of DIIS)
  DIIS work                 ....       0.131 sec  ( 77.9 % of DIIS)
  Form Q                    ....       0.000 sec  (  0.0 % of DIIS)
  Form QpQm                 ....       0.000 sec  (  0.0 % of DIIS)
  Exp/Cayley                ....       0.000 sec  (  0.0 % of DIIS)
  Orb update                ....       0.000 sec  (  0.0 % of DIIS)
  Wake-sleep                ....       0.002 sec  (  1.1 % of DIIS)
SOSCF solution              ....       0.036 sec  (  0.1%)
  MO trafo                  ....       0.022 sec  ( 61.7 % of SOSCF)
  Orb grad                  ....       0.000 sec  (  0.6 % of SOSCF)
  Rot update                ....       0.002 sec  (  5.2 % of SOSCF)
  Step                      ....       0.012 sec  ( 32.4 % of SOSCF)
Finished LeanSCF after  26.6 sec

Maximum memory used throughout the entire LEANSCF-calculation: 29.7 MB


-------------------------------------------------------------------------------
                          DFT DISPERSION CORRECTION                            
                                                                               
                                DFTD4 V3.4.0                                   
-------------------------------------------------------------------------------
The R2SCAN3C composite method is recognized
Using three-body term ABC
Active option DFTDOPT                   ...         5   

-------------------------   ----------------
Dispersion correction           -0.007325768
-------------------------   ----------------

------------------   -----------------
gCP correction             0.009871983
------------------   -----------------

-------------------------   --------------------
FINAL SINGLE POINT ENERGY      -388.406093962439
-------------------------   --------------------


------------------------------------------------------------------------------
                              ORCA PROPERTY CALCULATIONS
------------------------------------------------------------------------------

GBWName                                 ... sp.gbw
Number of atoms                         ...     23
Number of basis functions               ...    246
Max core memory                         ...   1024 MB

Electric properties:
Dipole moment                           ... YES
Quadrupole moment                       ...  NO
Static polarizability (Dipole/Dipole)   ...  NO
Static polarizability (Dipole/Quad.)    ...  NO
Static polarizability (Quad./Quad.)     ...  NO
Static polarizability (Velocity)        ...  NO

Atomic electric properties:
Dipole moment                           ...  NO
Quadrupole moment                       ...  NO
Static polarizability                   ...  NO

Choice of electric origin               ... Center of mass
Position of electric origin             ...     0.000025    -0.000013    -0.000004

General magnetic properties:
Magnetizability                         ...  NO

EPR properties:
g-Tensor (aka g-matrix)                 ...  NO
Zero-Field splitting spin-orbit         ...  NO
Zero-field splitting spin-spin          ...  NO
Hyperfine couplings                     ...  NO (   0 nuclei)
Quadrupole couplings                    ...  NO (   0 nuclei)
Contact density                         ...  NO (   0 nuclei)

NMR properties:
Chemical shifts                         ...  NO (   0 nuclei)
Spin-rotation constants                 ...  NO (   0 nuclei)
Spin-spin couplings                     ...  NO (   0 nuclei,    0 pairs)

Choice of magnetic origin               ... GIAO
Position of magnetic origin             ...     0.000000     0.000000     0.000000

Properties with geometric perturbations:
SCF Hessian                             ...  NO
IR spectrum                             ...  NO
VCD spectrum                            ...  NO
X-ray spectroscopy properties:
SCF XES/XAS/RIXS spectra                ...  NO


-------------
DIPOLE MOMENT
-------------

Method             : SCF
Type of density    : Electron Density
Multiplicity       :   1
Irrep              :   0
Energy             :  -388.4086401777745436 Eh
Relativity type    : 
Basis              : AO
                                X                 Y                 Z
Electronic contribution:     -6.041025332       3.355439666       0.734142662
Nuclear contribution   :      6.741989239      -4.199687694      -1.076207989
                        -----------------------------------------
Total Dipole Moment    :      0.700963907      -0.844248027      -0.342065327
                        -----------------------------------------
Magnitude (a.u.)       :      1.149397154
Magnitude (Debye)      :      2.921535388



--------------------
Rotational spectrum 
--------------------
 
Rotational constants in cm-1:             0.102373             0.036963             0.029194 
Rotational constants in MHz :          3069.055244          1108.124729           875.228598 

Dipole components along the rotational axes: 
x,y,z [a.u.] :     0.695555    -0.907002     0.121094 
x,y,z [Debye]:     1.767960    -2.305417     0.307797 

 

Dipole moment calculation done in   0.4 sec 

Maximum memory used throughout the entire PROP-calculation: 17.7 MB

--------------------------------
SUGGESTED CITATIONS FOR THIS RUN
--------------------------------

Below you find a list of papers that are relevant to this ORCA run
We neither can nor want to force you to cite these papers, but we appreciate if you do
You receive ORCA, which is the product of decades of hard work by many enthusiastic individuals, for free
The only thing we kindly ask in return is that you cite our papers,
We deeply appreciate it, if you show your appreciation for ORCA by not just citing the generic ORCA reference.

Please note that relegating all ORCA citations to the supporting information does *not* help us.
SI sections are not indexed - citations you put there will not count into any citation statistics
But we need these citations in order to attract the funding resources that allow us to do what we are doing

Therefore, if you are a happy ORCA user, please consider citing a few of the papers listed below in the main body of your paper

In addition to the list printed below, the program has created the file sp.bibtex that contains the list in bibtex format
You can import this file easily into all common literature databanks and citation aid programs


List of essential papers. We consider these as the minimum necessary citations

  1. Neese,F.
     Software update: the ORCA program system, version 5.0
     WIRES Comput. Molec. Sci., 2022 12(1)e1606
     doi.org/10.1002/wcms.1606
  2. Grimme,S.; Hansen,A.; Ehlert,S.; Mewes,J.
     r2SCAN-3c: A 'Swiss army knife' composite electronic-structure method
     J. Chem. Phys., 2021 154 064103
     doi.org/10.1063/5.0040021

List of papers to cite with high priority. The work reported in these papers was absolutely
necessary for this run to complete.
Our perspective: the developers of density functionals and basis sets usually get cited in chemistry papers
Good! But without the algorithms to do something with them, the functionals or basis sets would not do anything.
Hence, in our opinion, the algorithm design and method developments papers are equally worthy of getting cited

  1. Neese,F.
     An improvement of the resolution of the identity approximation for the formation of the Coulomb matrix
     J. Comp. Chem., 2003 24(14)1740-1747
     doi.org/10.1002/jcc.10318
  2. Neese,F.
     The SHARK Integral Generation and Digestion System
     J. Comp. Chem., 2022  1-16
     doi.org/10.1002/jcc.26942
  3. Lehtola,S.; Steigemann,C.; Oliveira,M.; Marques,M.
     Recent developments in Libxc - A comprehensive library of functionals for density functional theory
     Software X, 2018 7 
     doi.org/10.1016/j.softx.2017.11.002
  4. Caldeweyher,E.; Bannwarth,C.; Grimme,S.
     Extension of the D3 dispersion coefficient model
     J. Chem. Phys., 2017 147 034112
     doi.org/10.1063/1.4993215
  5. Caldeweyher,E.; Ehlert,S.; Hansen,A.; Neugebauer,H.; Spicher,S.; Bannwarth,C.; Grimme,S.
     A generally applicable atomic-charge dependent London dispersion correction
     J. Chem. Phys., 2019 150 154122
     doi.org/10.1063/1.5090222
  6. Caldeweyher,E.; Mewes,J.; Ehlert,S.; Grimme,S.
     Extension and evaluation of the D4 London-dispersion model for periodic systems
     Phys. Chem. Chem. Phys., 2020 22(16)8499-8512
     doi.org/10.1039/D0CP00502A
  7. Wittmann,L.; Gordiy,I.; Friede,M.; Helmich-Paris,B.; Grimme,S.; Hansen,A.; Bursch,M.
     Extension of the D3 and D4 London Dispersion Corrections to the full Actinides Series
     Phys. Chem. Chem. Phys., 2024 26(32)21379-21394
     doi.org/https://doi.org/10.1039/D4CP01514B 

List of suggested additional citations. These are papers that are important in the 'surrounding' of 
of this run, or papers that preceded the highly important papers. If you like your results we are grateful for a citation.

  1. Neese,F.
     The ORCA program system
     WIRES Comput. Molec. Sci., 2012 2(1)73-78
     doi.org/10.1002/wcms.81
  2. Neese,F.
     Software update: the ORCA program system, version 4.0
     WIRES Comput. Molec. Sci., 2018 8(1)1-6
     doi.org/10.1002/wcms.1327
  3. Neese,F.; Wennmohs,F.; Becker,U.; Riplinger,C.
     The ORCA quantum chemistry program package
     J. Chem. Phys., 2020 152 Art. No. L224108
     doi.org/10.1063/5.0004608

List of optional additional citations

  1. Neese,F.
     Approximate second-order SCF convergence for spin unrestricted wavefunctions
     Chem. Phys. Lett., 2000 325(1-3)93-98
     doi.org/10.1016/s0009-2614(00)00662-x

Timings for individual modules:

Sum of individual times          ...       28.570 sec (=   0.476 min)
Startup calculation              ...        0.995 sec (=   0.017 min)   3.5 %
SCF iterations                   ...       27.118 sec (=   0.452 min)  94.9 %
Property calculations            ...        0.457 sec (=   0.008 min)   1.6 %
                             ****ORCA TERMINATED NORMALLY****
TOTAL RUN TIME: 0 days 0 hours 0 minutes 30 seconds 211 msec
