      -----------------------------------------------------------      
     |                   =====================                   |     
     |                           x T B                           |     
     |                   =====================                   |     
     |                         S. Grimme                         |     
     |          Mulliken Center for Theoretical Chemistry        |     
     |                    University of Bonn                     |     
      -----------------------------------------------------------      

   * xtb version 6.7.1 (edcfbbe) compiled by 'albert@albert-system' on 2024-07-22

   xtb is free software: you can redistribute it and/or modify it under
   the terms of the GNU Lesser General Public License as published by
   the Free Software Foundation, either version 3 of the License, or
   (at your option) any later version.
   
   xtb is distributed in the hope that it will be useful,
   but WITHOUT ANY WARRANTY; without even the implied warranty of
   MERCHANTABILITY or FITNESS FOR A PARTICULAR PURPOSE.  See the
   GNU Lesser General Public License for more details.
   
   Cite this work as:
   * C. Bannwarth, E. Caldeweyher, S. Ehlert, A. Hansen, P. Pracht,
     J. Seibert, S. Spicher, S. Grimme, WIREs Comput. Mol. Sci., 2020, 11,
     e01493. DOI: 10.1002/wcms.1493
   
   for GFN2-xTB:
   * C. Bannwarth, S. Ehlert and S. Grimme., J. Chem. Theory Comput., 2019,
     15, 1652-1671. DOI: 10.1021/acs.jctc.8b01176
   for GFN1-xTB:
   * S. Grimme, C. Bannwarth, P. Shushkov, J. Chem. Theory Comput., 2017,
     13, 1989-2009. DOI: 10.1021/acs.jctc.7b00118
   for GFN0-xTB:
   * P. Pracht, E. Caldeweyher, S. Ehlert, S. Grimme, ChemRxiv, 2019, preprint.
     DOI: 10.26434/chemrxiv.8326202.v1
   for GFN-FF:
   * S. Spicher and S. Grimme, Angew. Chem. Int. Ed., 2020, 59, 15665-15673.
     DOI: 10.1002/anie.202004239
   
   for ALPB and GBSA implicit solvation:
   * S. Ehlert, M. Stahn, S. Spicher, S. Grimme, J. Chem. Theory Comput.,
     2021, 17, 4250-4261. DOI: 10.1021/acs.jctc.1c00471
   
   for ddCOSMO and CPCM-X implicit solvation:
   * M. Stahn, S. Ehlert, S. Grimme, J. Phys. Chem. A,
     2023, XX, XXXX-XXXX. DOI: 10.1021/acs.jpca.3c04382
   
   for DFT-D4:
   * E. Caldeweyher, C. Bannwarth and S. Grimme, J. Chem. Phys., 2017,
     147, 034112. DOI: 10.1063/1.4993215
   * E. Caldeweyher, S. Ehlert, A. Hansen, H. Neugebauer, S. Spicher,
     C. Bannwarth and S. Grimme, J. Chem. Phys., 2019, 150, 154122.
     DOI: 10.1063/1.5090222
   * E. Caldeweyher, J.-M. Mewes, S. Ehlert and S. Grimme, Phys. Chem. Chem. Phys.
     2020, 22, 8499-8512. DOI: 10.1039/D0CP00502A
   
   for sTDA-xTB:
   * S. Grimme and C. Bannwarth, J. Chem. Phys., 2016, 145, 054103.
     DOI: 10.1063/1.4959605
   
   in the mass-spec context:
   * V. Asgeirsson, C. Bauer and S. Grimme, Chem. Sci., 2017, 8, 4879.
     DOI: 10.1039/c7sc00601b
   * J. Koopman and S. Grimme, ACS Omega 2019, 4, 12, 15120-15133.
     DOI: 10.1021/acsomega.9b02011
   
   for metadynamics refer to:
   * S. Grimme, J. Chem. Theory Comput., 2019, 155, 2847-2862
     DOI: 10.1021/acs.jctc.9b00143
   
   for SPH calculations refer to:
   * S. Spicher and S. Grimme, J. Chem. Theory Comput., 2021, 17, 1701-1714
     DOI: 10.1021/acs.jctc.0c01306
   
   for ONIOM refer to:
   * C. Plett, A. Katbashev, S. Ehlert, S. Grimme, M. Bursch,
     Phys. Chem. Chem. Phys., 2023, 25, 17860-17868. DOI: 10.1039/D3CP02178E
   
   for DIPRO refer to:
   * J. Kohn, N. Gildemeister, S. Grimme, D. Fazzi, A. Hansen,
     J. Chem. Phys., 2023, just accepted.
   
   for PTB refer to:
   * S. Grimme, M. Mueller, A. Hansen, J. Chem. Phys., 2023, 158, 124111.
     DOI: 10.1063/5.0137838
   
   with help from (in alphabetical order)
   P. Atkinson, C. Bannwarth, F. Bohle, G. Brandenburg, E. Caldeweyher
   M. Checinski, S. Dohm, S. Ehlert, S. Ehrlich, I. Gerasimov, C. Hölzer
   A. Katbashev, J. Kohn, J. Koopman, C. Lavigne, S. Lehtola, F. März, M. Müller,
   F. Musil, H. Neugebauer, J. Pisarek, C. Plett, P. Pracht, F. Pultar,
   J. Seibert, P. Shushkov, S. Spicher, M. Stahn, M. Steiner, T. Strunk,
   J. Stückrath, T. Rose, and J. Unsleber
   
 * started run on 2025/04/16 at 12:05:12.617     
   ID    Z sym.   atoms
    1    6 C      1, 2, 4, 6, 8, 10
    2    1 H      3, 5, 7, 9, 11, 18-24
    3    8 O      12-17

           -------------------------------------------------
          |                Calculation Setup                |
           -------------------------------------------------

          program call               : /software/projects/pawsey0265/mwang1/xtb/bin/xtb xtb_rrho.coord --gfn2 --ohess vtight --chrg 0 --enso --norestart -I rrho-xcontrol-inp --parallel 1
          hostname                   : nid002811
          coordinate file            : xtb_rrho.coord
          omp threads                :                     1


           -------------------------------------------------
          |                 G F N 2 - x T B                 |
           -------------------------------------------------

        Reference                      10.1021/acs.jctc.8b01176
      * Hamiltonian:
        H0-scaling (s, p, d)           1.850000    2.230000    2.230000
        zeta-weighting                 0.500000
      * Dispersion:
        s8                             2.700000
        a1                             0.520000
        a2                             5.000000
        s9                             5.000000
      * Repulsion:
        kExp                           1.500000    1.000000
        rExp                           1.000000
      * Coulomb:
        alpha                          2.000000
        third order                    shell-resolved
        anisotropic                    true
        a3                             3.000000
        a5                             4.000000
        cn-shift                       1.200000
        cn-exp                         4.000000
        max-rad                        5.000000


          ...................................................
          :                      SETUP                      :
          :.................................................:
          :  # basis functions                  60          :
          :  # atomic orbitals                  60          :
          :  # shells                           36          :
          :  # electrons                        72          :
          :  max. iterations                   250          :
          :  Hamiltonian                  GFN2-xTB          :
          :  restarted?                      false          :
          :  GBSA solvation                  false          :
          :  PC potential                    false          :
          :  electronic temp.          300.0000000     K    :
          :  accuracy                    1.0000000          :
          :  -> integral cutoff          0.2500000E+02      :
          :  -> integral neglect         0.1000000E-07      :
          :  -> SCF convergence          0.1000000E-05 Eh   :
          :  -> wf. convergence          0.1000000E-03 e    :
          :  Broyden damping             0.4000000          :
          :  net charge                          0          :
          :  unpaired electrons                  0          :
          ...................................................

 iter      E             dE          RMSdq      gap      omega  full diag
   1    -43.6198112 -0.436198E+02  0.471E+00   10.05       0.0  T
   2    -43.6602673 -0.404560E-01  0.257E+00    9.89       1.0  T
   3    -43.6614413 -0.117405E-02  0.767E-01   10.00       1.0  T
   4    -43.6626231 -0.118182E-02  0.152E-01    9.94       1.0  T
   5    -43.6626951 -0.720116E-04  0.684E-02    9.97       1.0  T
   6    -43.6627049 -0.979547E-05  0.194E-02    9.97       1.0  T
   7    -43.6627057 -0.805131E-06  0.618E-03    9.97       3.3  T
   8    -43.6627061 -0.324119E-06  0.188E-03    9.97      10.9  T
   9    -43.6627061 -0.499887E-08  0.697E-04    9.97      29.3  T
  10    -43.6627061 -0.354412E-08  0.236E-04    9.97      86.3  T

   *** convergence criteria satisfied after 10 iterations ***

         #    Occupation            Energy/Eh            Energy/eV
      -------------------------------------------------------------
         1        2.0000           -0.7332630             -19.9531
       ...           ...                  ...                  ...
        30        2.0000           -0.4703200             -12.7981
        31        2.0000           -0.4531763             -12.3316
        32        2.0000           -0.4476358             -12.1808
        33        2.0000           -0.4347074             -11.8290
        34        2.0000           -0.4266331             -11.6093
        35        2.0000           -0.4221773             -11.4880
        36        2.0000           -0.4169498             -11.3458 (HOMO)
        37                         -0.0505392              -1.3752 (LUMO)
        38                         -0.0226321              -0.6159
        39                         -0.0000976              -0.0027
        40                          0.0231998               0.6313
        41                          0.0448532               1.2205
       ...                                ...                  ...
        60                          0.2771461               7.5415
      -------------------------------------------------------------
                  HL-Gap            0.3664105 Eh            9.9705 eV
             Fermi-level           -0.2337445 Eh           -6.3605 eV

 SCC (total)                   0 d,  0 h,  0 min,  0.040 sec
 SCC setup                      ...        0 min,  0.000 sec (  0.629%)
 Dispersion                     ...        0 min,  0.000 sec (  0.425%)
 classical contributions        ...        0 min,  0.000 sec (  0.116%)
 integral evaluation            ...        0 min,  0.003 sec (  6.869%)
 iterations                     ...        0 min,  0.024 sec ( 61.765%)
 molecular gradient             ...        0 min,  0.012 sec ( 29.719%)
 printout                       ...        0 min,  0.000 sec (  0.414%)

         :::::::::::::::::::::::::::::::::::::::::::::::::::::
         ::                     SUMMARY                     ::
         :::::::::::::::::::::::::::::::::::::::::::::::::::::
         :: total energy             -43.359163041865 Eh    ::
         :: gradient norm              0.046614052977 Eh/a0 ::
         :: HOMO-LUMO gap              9.970538533159 eV    ::
         ::.................................................::
         :: SCC energy               -43.662573370540 Eh    ::
         :: -> isotropic ES            0.136288646723 Eh    ::
         :: -> anisotropic ES         -0.004299573676 Eh    ::
         :: -> anisotropic XC         -0.009097948733 Eh    ::
         :: -> dispersion             -0.018715403969 Eh    ::
         :: repulsion energy           0.303410328675 Eh    ::
         :: add. restraining           0.000000000000 Eh    ::
         :: total charge               0.000000000000 e     ::
         :::::::::::::::::::::::::::::::::::::::::::::::::::::

      ----------------------------------------------------------- 
     |                   =====================                   |
     |                        A N C O P T                        |
     |                   =====================                   |
     |               Approximate Normal Coordinate               |
     |                Rational Function Optimizer                |
      ----------------------------------------------------------- 
      ----------------------------------------------------------- 
     |                   =====================                   |
     |                        A N C O P T                        |
     |                   =====================                   |
     |               Approximate Normal Coordinate               |
     |                Rational Function Optimizer                |
      ----------------------------------------------------------- 

          ...................................................
          :                      SETUP                      :
          :.................................................:
          :   optimization level         verytight          :
          :   max. optcycles                   480          :
          :   ANC micro-cycles                  20          :
          :   degrees of freedom                66          :
          :.................................................:
          :   RF solver                   davidson          :
          :   write xtbopt.log                true          :
          :   linear?                        false          :
          :   energy convergence         0.1000000E-06 Eh   :
          :   grad. convergence          0.2000000E-03 Eh/α :
          :   maxmium RF displ.          1.0000000          :
          :   Hlow (freq-cutoff)         0.1000000E-01      :
          :   Hmax (freq-cutoff)         5.0000000          :
          :   S6 in model hess.         20.0000000          :
          ...................................................

generating ANC from exact Hessian ...
Using Lindh-Hessian (1995)
 Shifting diagonal of input Hessian by   7.244111011052190E-003
 Lowest  eigenvalues of input Hessian
    0.000000    0.000000    0.000000    0.000000    0.000000    0.000000
    0.010000    0.011515    0.013024    0.013349    0.016324    0.021696
    0.022759    0.023551    0.026318    0.029245    0.031869    0.036249
 Highest eigenvalues
    1.415560    1.458524    1.469559    1.483788    1.506440    1.598455
 

........................................................................
.............................. CYCLE    1 ..............................
........................................................................

 iter      E             dE          RMSdq      gap      omega  full diag
   1    -43.6627061 -0.436627E+02  0.896E-05    9.97       0.0  T
   2    -43.6627061 -0.368843E-10  0.464E-05    9.97     440.2  T
   3    -43.6627061 -0.294875E-11  0.243E-05    9.97     839.0  T
     SCC iter.                  ...        0 min,  0.002 sec
     gradient                   ...        0 min,  0.007 sec
 * total energy  :   -43.3591630 Eh     change       -0.4923635E-09 Eh
   gradient norm :     0.0466114 Eh/α   predicted     0.0000000E+00 (-100.00%)
   displ. norm   :     0.1412790 α      lambda       -0.3060489E-02
   maximum displ.:     0.0526241 α      in ANC's #27, #9, #28, ...

........................................................................
.............................. CYCLE    2 ..............................
........................................................................

 iter      E             dE          RMSdq      gap      omega  full diag
   1    -43.6680573 -0.436681E+02  0.106E-01   10.20       0.0  T
   2    -43.6680661 -0.882654E-05  0.644E-02   10.20       1.0  T
   3    -43.6680662 -0.635358E-07  0.120E-02   10.21       1.7  T
   4    -43.6680678 -0.162104E-05  0.352E-03   10.21       5.8  T
   5    -43.6680678 -0.342280E-07  0.130E-03   10.21      15.7  T
   6    -43.6680678 -0.349663E-08  0.633E-04   10.21      32.3  T
   7    -43.6680678 -0.922725E-09  0.129E-04   10.21     158.5  T
     SCC iter.                  ...        0 min,  0.004 sec
     gradient                   ...        0 min,  0.007 sec
 * total energy  :   -43.3612946 Eh     change       -0.2131542E-02 Eh
   gradient norm :     0.0218173 Eh/α   predicted    -0.1560817E-02 ( -26.78%)
   displ. norm   :     0.1776445 α      lambda       -0.1367507E-02
   maximum displ.:     0.0802507 α      in ANC's #5, #13, #9, ...

........................................................................
.............................. CYCLE    3 ..............................
........................................................................

 iter      E             dE          RMSdq      gap      omega  full diag
   1    -43.6697347 -0.436697E+02  0.814E-02   10.45       0.0  T
   2    -43.6697433 -0.860853E-05  0.508E-02   10.45       1.0  T
   3    -43.6697436 -0.303141E-06  0.119E-02   10.45       1.7  T
   4    -43.6697447 -0.105806E-05  0.334E-03   10.46       6.1  T
   5    -43.6697447 -0.492665E-07  0.108E-03   10.46      18.9  T
   6    -43.6697447 -0.291572E-08  0.567E-04   10.46      36.0  T
   7    -43.6697447 -0.563560E-09  0.144E-04   10.46     142.0  T
     SCC iter.                  ...        0 min,  0.004 sec
     gradient                   ...        0 min,  0.007 sec
 * total energy  :   -43.3621317 Eh     change       -0.8370727E-03 Eh
   gradient norm :     0.0083190 Eh/α   predicted    -0.7054328E-03 ( -15.73%)
   displ. norm   :     0.1198908 α      lambda       -0.3286051E-03
   maximum displ.:     0.0643483 α      in ANC's #5, #13, #16, ...

........................................................................
.............................. CYCLE    4 ..............................
........................................................................

 iter      E             dE          RMSdq      gap      omega  full diag
   1    -43.6690918 -0.436691E+02  0.481E-02   10.52       0.0  T
   2    -43.6690930 -0.119811E-05  0.295E-02   10.52       1.0  T
   3    -43.6690932 -0.115384E-06  0.384E-03   10.52       5.3  T
   4    -43.6690933 -0.133181E-06  0.141E-03   10.52      14.5  T
   5    -43.6690933 -0.605358E-08  0.506E-04   10.52      40.4  T
   6    -43.6690933 -0.365333E-09  0.213E-04   10.52      96.0  T
     SCC iter.                  ...        0 min,  0.003 sec
     gradient                   ...        0 min,  0.007 sec
 * total energy  :   -43.3623745 Eh     change       -0.2428475E-03 Eh
   gradient norm :     0.0109292 Eh/α   predicted    -0.1666682E-03 ( -31.37%)
   displ. norm   :     0.1478815 α      lambda       -0.3221883E-03
   maximum displ.:     0.0838642 α      in ANC's #5, #13, #16, ...

........................................................................
.............................. CYCLE    5 ..............................
........................................................................

 iter      E             dE          RMSdq      gap      omega  full diag
   1    -43.6682807 -0.436683E+02  0.589E-02   10.54       0.0  T
   2    -43.6682816 -0.898272E-06  0.358E-02   10.54       1.0  T
   3    -43.6682818 -0.264149E-06  0.305E-03   10.54       6.7  T
   4    -43.6682819 -0.564783E-07  0.147E-03   10.54      13.9  T
   5    -43.6682819 -0.394929E-08  0.570E-04   10.54      35.8  T
   6    -43.6682819 -0.414651E-09  0.150E-04   10.54     136.4  T
     SCC iter.                  ...        0 min,  0.003 sec
     gradient                   ...        0 min,  0.007 sec
 * total energy  :   -43.3625943 Eh     change       -0.2198157E-03 Eh
   gradient norm :     0.0104905 Eh/α   predicted    -0.1646206E-03 ( -25.11%)
   displ. norm   :     0.1034265 α      lambda       -0.1808965E-03
   maximum displ.:     0.0613304 α      in ANC's #5, #13, #16, ...

........................................................................
.............................. CYCLE    6 ..............................
........................................................................

 iter      E             dE          RMSdq      gap      omega  full diag
   1    -43.6685941 -0.436686E+02  0.392E-02   10.51       0.0  T
   2    -43.6685946 -0.489107E-06  0.239E-02   10.51       1.0  T
   3    -43.6685947 -0.152086E-06  0.230E-03   10.51       8.9  T
   4    -43.6685948 -0.269332E-07  0.104E-03   10.51      19.7  T
   5    -43.6685948 -0.356252E-08  0.408E-04   10.51      50.0  T
   6    -43.6685948 -0.160533E-09  0.121E-04   10.51     168.1  T
     SCC iter.                  ...        0 min,  0.003 sec
     gradient                   ...        0 min,  0.007 sec
 * total energy  :   -43.3627278 Eh     change       -0.1334462E-03 Eh
   gradient norm :     0.0068235 Eh/α   predicted    -0.9142289E-04 ( -31.49%)
   displ. norm   :     0.1059231 α      lambda       -0.1424645E-03
   maximum displ.:     0.0571012 α      in ANC's #5, #16, #13, ...

........................................................................
.............................. CYCLE    7 ..............................
........................................................................

 iter      E             dE          RMSdq      gap      omega  full diag
   1    -43.6693681 -0.436694E+02  0.394E-02   10.47       0.0  T
   2    -43.6693688 -0.634628E-06  0.240E-02   10.47       1.0  T
   3    -43.6693689 -0.168465E-06  0.264E-03   10.47       7.7  T
   4    -43.6693690 -0.357911E-07  0.112E-03   10.47      18.2  T
   5    -43.6693690 -0.402690E-08  0.412E-04   10.47      49.6  T
   6    -43.6693690 -0.908358E-10  0.121E-04   10.47     168.8  T
     SCC iter.                  ...        0 min,  0.003 sec
     gradient                   ...        0 min,  0.007 sec
 * total energy  :   -43.3628241 Eh     change       -0.9631923E-04 Eh
   gradient norm :     0.0045016 Eh/α   predicted    -0.7203554E-04 ( -25.21%)
   displ. norm   :     0.0568456 α      lambda       -0.6528329E-04
   maximum displ.:     0.0253501 α      in ANC's #16, #3, #5, ...

........................................................................
.............................. CYCLE    8 ..............................
........................................................................

 iter      E             dE          RMSdq      gap      omega  full diag
   1    -43.6706694 -0.436707E+02  0.234E-02   10.44       0.0  T
   2    -43.6706697 -0.324250E-06  0.140E-02   10.44       1.5  T
   3    -43.6706698 -0.616989E-07  0.195E-03   10.44      10.5  T
   4    -43.6706698 -0.176203E-07  0.760E-04   10.44      26.8  T
   5    -43.6706698 -0.233797E-08  0.287E-04   10.44      71.2  T
     SCC iter.                  ...        0 min,  0.003 sec
     gradient                   ...        0 min,  0.007 sec
 * total energy  :   -43.3628596 Eh     change       -0.3550768E-04 Eh
   gradient norm :     0.0026106 Eh/α   predicted    -0.3280729E-04 (  -7.61%)
   displ. norm   :     0.0986136 α      lambda       -0.4936003E-04
   maximum displ.:     0.0463581 α      in ANC's #16, #3, #5, ...

........................................................................
.............................. CYCLE    9 ..............................
........................................................................

 iter      E             dE          RMSdq      gap      omega  full diag
   1    -43.6701586 -0.436702E+02  0.363E-02   10.43       0.0  T
   2    -43.6701590 -0.365945E-06  0.223E-02   10.43       1.0  T
   3    -43.6701592 -0.178187E-06  0.193E-03   10.43      10.6  T
   4    -43.6701592 -0.127223E-07  0.108E-03   10.43      18.9  T
   5    -43.6701592 -0.129685E-08  0.274E-04   10.43      74.6  T
   6    -43.6701592 -0.221377E-09  0.824E-05   10.43     247.7  T
     SCC iter.                  ...        0 min,  0.003 sec
     gradient                   ...        0 min,  0.007 sec
 * total energy  :   -43.3628661 Eh     change       -0.6548283E-05 Eh
   gradient norm :     0.0060877 Eh/α   predicted    -0.2492387E-04 ( 280.62%)
   displ. norm   :     0.0361079 α      lambda       -0.3888320E-04
   maximum displ.:     0.0211730 α      in ANC's #5, #16, #13, ...

........................................................................
.............................. CYCLE   10 ..............................
........................................................................

 iter      E             dE          RMSdq      gap      omega  full diag
   1    -43.6706534 -0.436707E+02  0.147E-02   10.45       0.0  T
   2    -43.6706535 -0.939103E-07  0.898E-03   10.45       2.3  T
   3    -43.6706535 -0.393507E-07  0.105E-03   10.45      19.4  T
   4    -43.6706535 -0.378444E-08  0.545E-04   10.45      37.5  T
   5    -43.6706535 -0.500549E-09  0.171E-04   10.45     119.6  T
     SCC iter.                  ...        0 min,  0.003 sec
     gradient                   ...        0 min,  0.007 sec
 * total energy  :   -43.3628892 Eh     change       -0.2308518E-04 Eh
   gradient norm :     0.0023941 Eh/α   predicted    -0.1946922E-04 ( -15.66%)
   displ. norm   :     0.0289984 α      lambda       -0.1645620E-04
   maximum displ.:     0.0182757 α      in ANC's #1, #4, #8, ...

........................................................................
.............................. CYCLE   11 ..............................
........................................................................

 iter      E             dE          RMSdq      gap      omega  full diag
   1    -43.6706737 -0.436707E+02  0.116E-02   10.46       0.0  T
   2    -43.6706738 -0.427127E-07  0.709E-03   10.46       2.9  T
   3    -43.6706738 -0.117565E-07  0.652E-04   10.46      31.3  T
   4    -43.6706738 -0.220585E-08  0.307E-04   10.46      66.5  T
     SCC iter.                  ...        0 min,  0.002 sec
     gradient                   ...        0 min,  0.007 sec
 * total energy  :   -43.3629026 Eh     change       -0.1340877E-04 Eh
   gradient norm :     0.0015463 Eh/α   predicted    -0.8237934E-05 ( -38.56%)
   displ. norm   :     0.1192353 α      lambda       -0.2995292E-04
   maximum displ.:     0.0772262 α      in ANC's #1, #4, #8, ...

........................................................................
.............................. CYCLE   12 ..............................
........................................................................

 iter      E             dE          RMSdq      gap      omega  full diag
   1    -43.6701606 -0.436702E+02  0.452E-02   10.48       0.0  T
   2    -43.6701610 -0.468301E-06  0.278E-02   10.48       1.0  T
   3    -43.6701612 -0.182809E-06  0.218E-03   10.48       9.4  T
   4    -43.6701612 -0.238190E-07  0.112E-03   10.48      18.2  T
   5    -43.6701612 -0.295771E-08  0.405E-04   10.48      50.4  T
   6    -43.6701612 -0.284565E-09  0.987E-05   10.48     206.7  T
     SCC iter.                  ...        0 min,  0.003 sec
     gradient                   ...        0 min,  0.007 sec
 * total energy  :   -43.3629244 Eh     change       -0.2181132E-04 Eh
   gradient norm :     0.0018522 Eh/α   predicted    -0.1507153E-04 ( -30.90%)
   displ. norm   :     0.1179252 α      lambda        0.3346756E-04
   maximum displ.:     0.0762225 α      in ANC's #1, #4, #8, ...

........................................................................
.............................. CYCLE   13 ..............................
........................................................................

 iter      E             dE          RMSdq      gap      omega  full diag
   1    -43.6691302 -0.436691E+02  0.449E-02   10.49       0.0  T
   2    -43.6691307 -0.445809E-06  0.277E-02   10.49       1.0  T
   3    -43.6691309 -0.185181E-06  0.214E-03   10.49       9.6  T
   4    -43.6691309 -0.229374E-07  0.114E-03   10.49      18.0  T
   5    -43.6691309 -0.225440E-08  0.390E-04   10.49      52.3  T
   6    -43.6691309 -0.338460E-09  0.110E-04   10.49     185.3  T
     SCC iter.                  ...        0 min,  0.003 sec
     gradient                   ...        0 min,  0.007 sec
 * total energy  :   -43.3628942 Eh     change        0.3029645E-04 Eh
   gradient norm :     0.0050981 Eh/α   predicted     0.1683320E-04 ( -44.44%)
   displ. norm   :     0.0705839 α      lambda       -0.4912151E-04
   maximum displ.:     0.0412592 α      in ANC's #1, #4, #8, ...

........................................................................
.............................. CYCLE   14 ..............................
........................................................................

 iter      E             dE          RMSdq      gap      omega  full diag
   1    -43.6698895 -0.436699E+02  0.280E-02   10.48       0.0  T
   2    -43.6698897 -0.201844E-06  0.173E-02   10.48       1.2  T
   3    -43.6698898 -0.755712E-07  0.138E-03   10.48      14.8  T
   4    -43.6698898 -0.845929E-08  0.719E-04   10.48      28.4  T
   5    -43.6698898 -0.819334E-09  0.260E-04   10.48      78.4  T
     SCC iter.                  ...        0 min,  0.003 sec
     gradient                   ...        0 min,  0.007 sec
 * total energy  :   -43.3629267 Eh     change       -0.3257006E-04 Eh
   gradient norm :     0.0021319 Eh/α   predicted    -0.2470537E-04 ( -24.15%)
   displ. norm   :     0.0321308 α      lambda       -0.1246269E-04
   maximum displ.:     0.0155372 α      in ANC's #4, #3, #1, ...

........................................................................
.............................. CYCLE   15 ..............................
........................................................................

 iter      E             dE          RMSdq      gap      omega  full diag
   1    -43.6703066 -0.436703E+02  0.132E-02   10.47       0.0  T
   2    -43.6703067 -0.602095E-07  0.812E-03   10.47       2.5  T
   3    -43.6703067 -0.135053E-07  0.748E-04   10.47      27.3  T
   4    -43.6703067 -0.354358E-08  0.336E-04   10.47      60.7  T
     SCC iter.                  ...        0 min,  0.002 sec
     gradient                   ...        0 min,  0.007 sec
 * total energy  :   -43.3629346 Eh     change       -0.7838067E-05 Eh
   gradient norm :     0.0008148 Eh/α   predicted    -0.6238486E-05 ( -20.41%)
   displ. norm   :     0.0249775 α      lambda       -0.3607733E-05
   maximum displ.:     0.0151732 α      in ANC's #3, #1, #5, ...

........................................................................
.............................. CYCLE   16 ..............................
........................................................................

 iter      E             dE          RMSdq      gap      omega  full diag
   1    -43.6704694 -0.436705E+02  0.831E-03   10.47       0.0  T
   2    -43.6704694 -0.308671E-07  0.504E-03   10.47       4.0  T
   3    -43.6704694 -0.279047E-08  0.649E-04   10.47      31.5  T
   4    -43.6704694 -0.435779E-08  0.238E-04   10.47      85.6  T
     SCC iter.                  ...        0 min,  0.002 sec
     gradient                   ...        0 min,  0.007 sec
 * total energy  :   -43.3629378 Eh     change       -0.3268961E-05 Eh
   gradient norm :     0.0007485 Eh/α   predicted    -0.1806353E-05 ( -44.74%)
   displ. norm   :     0.0342087 α      lambda       -0.2586412E-05
   maximum displ.:     0.0275664 α      in ANC's #1, #5, #3, ...

........................................................................
.............................. CYCLE   17 ..............................
........................................................................

 iter      E             dE          RMSdq      gap      omega  full diag
   1    -43.6704944 -0.436705E+02  0.101E-02   10.47       0.0  T
   2    -43.6704944 -0.247141E-07  0.614E-03   10.47       3.3  T
   3    -43.6704944 -0.377376E-08  0.596E-04   10.47      34.2  T
   4    -43.6704944 -0.423653E-08  0.257E-04   10.47      79.4  T
     SCC iter.                  ...        0 min,  0.002 sec
     gradient                   ...        0 min,  0.007 sec
 * total energy  :   -43.3629408 Eh     change       -0.2923934E-05 Eh
   gradient norm :     0.0005595 Eh/α   predicted    -0.1301939E-05 ( -55.47%)
   displ. norm   :     0.0454077 α      lambda       -0.2217196E-05
   maximum displ.:     0.0383824 α      in ANC's #1, #5, #8, ...

........................................................................
.............................. CYCLE   18 ..............................
........................................................................

 iter      E             dE          RMSdq      gap      omega  full diag
   1    -43.6702246 -0.436702E+02  0.132E-02   10.47       0.0  T
   2    -43.6702246 -0.380597E-07  0.801E-03   10.47       2.5  T
   3    -43.6702246 -0.854698E-08  0.679E-04   10.47      30.0  T
   4    -43.6702247 -0.439680E-08  0.325E-04   10.47      62.7  T
     SCC iter.                  ...        0 min,  0.002 sec
     gradient                   ...        0 min,  0.007 sec
 * total energy  :   -43.3629424 Eh     change       -0.1651807E-05 Eh
   gradient norm :     0.0005598 Eh/α   predicted    -0.1111775E-05 ( -32.69%)
   displ. norm   :     0.0089968 α      lambda       -0.4748947E-06
   maximum displ.:     0.0072483 α      in ANC's #1, #6, #4, ...

........................................................................
.............................. CYCLE   19 ..............................
........................................................................

 iter      E             dE          RMSdq      gap      omega  full diag
   1    -43.6703352 -0.436703E+02  0.258E-03   10.47       0.0  T
   2    -43.6703352 -0.291992E-08  0.157E-03   10.47      13.0  T
   3    -43.6703352 -0.717186E-09  0.189E-04   10.47     108.2  T
   4    -43.6703352 -0.221966E-09  0.899E-05   10.47     227.0  T
     SCC iter.                  ...        0 min,  0.002 sec
     gradient                   ...        0 min,  0.007 sec
 * total energy  :   -43.3629428 Eh     change       -0.4013953E-06 Eh
   gradient norm :     0.0002176 Eh/α   predicted    -0.2391347E-06 ( -40.42%)
   displ. norm   :     0.0074314 α      lambda       -0.1669463E-06
   maximum displ.:     0.0063475 α      in ANC's #1, #4, #5, ...

........................................................................
.............................. CYCLE   20 ..............................
........................................................................

 iter      E             dE          RMSdq      gap      omega  full diag
   1    -43.6703626 -0.436704E+02  0.186E-03   10.47       0.0  T
   2    -43.6703626 -0.642707E-09  0.112E-03   10.47      18.2  T
   3    -43.6703626 -0.745715E-10  0.925E-05   10.47     220.7  T
   4    -43.6703626 -0.106937E-09  0.389E-05   10.47     525.4  T
     SCC iter.                  ...        0 min,  0.002 sec
     gradient                   ...        0 min,  0.007 sec
 * total energy  :   -43.3629430 Eh     change       -0.1950228E-06 Eh
   gradient norm :     0.0001006 Eh/α   predicted    -0.8639595E-07 ( -55.70%)
   displ. norm   :     0.0076824 α      lambda       -0.1108168E-06
   maximum displ.:     0.0063872 α      in ANC's #1, #4, #3, ...
 * RMSD in coord.:     0.1960699 α      energy gain  -0.3779958E-02 Eh

generating ANC from exact Hessian ...
Using Lindh-Hessian (1995)
 Shifting diagonal of input Hessian by   7.211430749030371E-003
 Lowest  eigenvalues of input Hessian
    0.000000    0.000000    0.000000    0.000000    0.000000    0.000000
    0.010000    0.011639    0.013259    0.013399    0.016482    0.022363
    0.023595    0.025938    0.027829    0.029294    0.032437    0.036520
 Highest eigenvalues
    1.468384    1.510322    1.516242    1.531883    1.554839    1.667357
 

........................................................................
.............................. CYCLE   21 ..............................
........................................................................

 iter      E             dE          RMSdq      gap      omega  full diag
   1    -43.6703348 -0.436703E+02  0.208E-03   10.47       0.0  T
   2    -43.6703348 -0.801556E-09  0.127E-03   10.47      16.1  T
   3    -43.6703348 -0.234898E-09  0.994E-05   10.47     205.4  T
   4    -43.6703348 -0.801208E-10  0.497E-05   10.47     410.4  T
     SCC iter.                  ...        0 min,  0.002 sec
     gradient                   ...        0 min,  0.007 sec
 * total energy  :   -43.3629431 Eh     change       -0.1100414E-06 Eh
   gradient norm :     0.0001090 Eh/α   predicted     0.0000000E+00 (-100.00%)
   displ. norm   :     0.0001635 α      lambda        0.0000000E+00
   maximum displ.:     0.0000959 α      in ANC's #58, #56, #63, ...

........................................................................
.............................. CYCLE   22 ..............................
........................................................................

 iter      E             dE          RMSdq      gap      omega  full diag
   1    -43.6703436 -0.436703E+02  0.217E-04   10.47       0.0  T
   2    -43.6703436 -0.746141E-10  0.126E-04   10.47     162.5  T
   3    -43.6703436 -0.124700E-10  0.300E-05   10.47     679.6  T
     SCC iter.                  ...        0 min,  0.002 sec
     gradient                   ...        0 min,  0.007 sec
 * total energy  :   -43.3629431 Eh     change       -0.6168563E-08 Eh
   gradient norm :     0.0000494 Eh/α   predicted    -0.4506583E-08 ( -26.94%)
   displ. norm   :     0.0010931 α      lambda       -0.5745330E-08
   maximum displ.:     0.0007239 α      in ANC's #1, #9, #5, ...

   *** GEOMETRY OPTIMIZATION CONVERGED AFTER 22 ITERATIONS ***

------------------------------------------------------------------------
 total energy gain   :        -0.0037801 Eh       -2.3720 kcal/mol
 total RMSD          :         0.1960706 a0        0.1038 Å
 total power (kW/mol):        -0.4511174 (step)  -19.8247 (real)
------------------------------------------------------------------------

 ANCopt (total)                0 d,  0 h,  0 min,  0.501 sec
 optimizer setup                ...        0 min,  0.001 sec (  0.111%)
 model hessian                  ...        0 min,  0.029 sec (  5.697%)
 ANC generation                 ...        0 min,  0.001 sec (  0.228%)
 coordinate transformation      ...        0 min,  0.000 sec (  0.031%)
 single point calculation       ...        0 min,  0.263 sec ( 52.562%)
 optimization log               ...        0 min,  0.205 sec ( 40.957%)
 hessian update                 ...        0 min,  0.000 sec (  0.029%)
 rational function              ...        0 min,  0.001 sec (  0.214%)

================
 final structure:
================
$coord
       -4.85226730733893       -1.24225709186234       -0.60065884713126      C
       -2.24910207868205       -0.53696640640018        0.44953256984055      C
       -2.35646901571543       -0.41414934000427        2.52380427058321      H
       -1.34567912258330        2.01464992490231       -0.58249252417627      C
       -1.32363680335279        1.93632445371591       -2.66419591358884      H
        1.36013373952160        2.52686301841227        0.32197259238987      C
        1.36182626518096        2.71821974127885        2.39728347618370      H
        3.06009743478801        0.30188270868134       -0.38908665690550      C
        3.14822121186783        0.13238367234570       -2.46156939727199      H
        1.90521115853591       -2.14788317683841        0.65419807678680      C
        1.88111809686324       -2.04203083732144        2.75365359436381      H
       -0.56250614369136       -2.50559738154842       -0.24105933023830      O
        3.39081453775269       -4.15110711666563       -0.15532666292432      O
        5.47720231431378        0.74030122683440        0.61734612160086      O
        2.18530296694857        4.79323041695538       -0.79274038243569      O
       -3.00093754549419        3.90234403979790        0.25397679184324      O
       -5.76533987665035       -3.49140826898212        0.45082590883807      O
       -4.70985549318356       -1.39465609877315       -2.66624280682989      H
       -6.19027914196602        0.24626045887537       -0.11221013114599      H
        2.39892240986263       -5.67654477612662       -0.06286655251522      H
        6.45389637612928       -0.78372834301695        0.40051404773847      H
        3.97758854765539        4.92657149138751       -0.48523320976126      H
       -2.21019858336818        5.50577351081747       -0.11817118548844      H
       -4.50127091648382       -4.77622164281137        0.17897225847382      H
$end
 
 Bond Distances (Angstroems)
 ---------------------------
C1-C2=1.5316         C1-O17=1.3999        C1-H18=1.0986        C1-H19=1.0902        C2-C1=1.5316         C2-H3=1.1010         
C2-C4=1.5330         C2-O12=1.4196        H3-C2=1.1010         C4-C2=1.5330         C4-H5=1.1024         C4-C6=1.5339         
C4-O16=1.4004        H5-C4=1.1024         C6-C4=1.5339         C6-H7=1.1029         C6-C8=1.5288         C6-O15=1.4061        
H7-C6=1.1029         C8-C6=1.5288         C8-H9=1.1014         C8-C10=1.5359        C8-O14=1.4048        H9-C8=1.1014         
C10-C8=1.5359        C10-H11=1.1125       C10-O12=1.4020       C10-O13=1.3875       H11-C10=1.1125       O12-C2=1.4196        
O12-C10=1.4020       O13-C10=1.3875       O13-H20=0.9641       O14-C8=1.4048        O14-H21=0.9647       O15-C6=1.4061        
O15-H22=0.9649       O16-C4=1.4004        O16-H23=0.9663       O17-C1=1.3999        O17-H24=0.9646       H18-C1=1.0986        
H19-C1=1.0902        H20-O13=0.9641       H21-O14=0.9647       H22-O15=0.9649       H23-O16=0.9663       H24-O17=0.9646       
 C  H  Rav=1.1013 sigma=0.0061  Rmin=1.0902  Rmax=1.1125     7
 C  C  Rav=1.5326 sigma=0.0024  Rmin=1.5288  Rmax=1.5359     5
 O  H  Rav=0.9649 sigma=0.0008  Rmin=0.9641  Rmax=0.9663     5
 O  C  Rav=1.4029 sigma=0.0088  Rmin=1.3875  Rmax=1.4196     7
 
 selected bond angles (degree)
 --------------------
O17-C1-C2=111.93               H18-C1-C2=108.49               H18-C1-O17=110.90              H19-C1-C2=108.79               
H19-C1-O17=107.21              H19-C1-H18=109.48              H3-C2-C1=109.25                C4-C2-C1=111.46                
C4-C2-H3=108.62                O12-C2-C1=107.05               O12-C2-H3=109.41               O12-C2-C4=111.01               
H5-C4-C2=109.04                C6-C4-C2=109.61                C6-C4-H5=107.97                O16-C4-C2=108.70               
O16-C4-H5=110.44               O16-C4-C6=111.05               H7-C6-C4=109.13                C8-C6-C4=109.66                
C8-C6-H7=108.38                O15-C6-C4=108.04               O15-C6-H7=109.83               O15-C6-C8=111.77               
H9-C8-C6=109.43                C10-C8-C6=109.11               C10-C8-H9=107.82               O14-C8-C6=108.38               
O14-C8-H9=110.63               O14-C8-C10=111.43              H11-C10-C8=108.73              O12-C10-C8=111.29              
O12-C10-H11=109.49             O13-C10-C8=107.96              O13-C10-H11=110.69             O13-C10-O12=108.68             
 
 selected dihedral angles (degree)
 ---------------------------------
H3-C2-C1-O17=303.78           H3-C2-C1-H18=181.09           H3-C2-C1-H19= 62.07           C4-C2-C1-O17=183.74           
C4-C2-C1-H18= 61.05           C4-C2-C1-H19=302.02           O12-C2-C1-O17= 62.17          O12-C2-C1-H18=299.48          
O12-C2-C1-H19=180.45          H5-C4-C2-C1=303.19            H5-C4-C2-H3=182.77            H5-C4-C2-O12= 62.43           
C6-C4-C2-C1=185.19            C6-C4-C2-H3= 64.77            C6-C4-C2-O12=304.43           O16-C4-C2-C1= 63.64           
O16-C4-C2-H3=303.23           O16-C4-C2-O12=182.89          H7-C6-C4-C2=295.53            H7-C6-C4-H5=176.87            
H7-C6-C4-O16= 55.65           C8-C6-C4-C2= 54.11            C8-C6-C4-H5=295.45            C8-C6-C4-O16=174.23           
O15-C6-C4-C2=176.15           O15-C6-C4-H5= 57.50           O15-C6-C4-O16=296.28          H9-C8-C6-C4= 63.41            
H9-C8-C6-H7=182.45            H9-C8-C6-O15=303.62           C10-C8-C6-C4=305.65           C10-C8-C6-H7= 64.69           
C10-C8-C6-O15=185.86          O14-C8-C6-C4=184.14           O14-C8-C6-H7=303.18           O14-C8-C6-O15= 64.35          
H11-C10-C8-C6=296.30          H11-C10-C8-H9=177.53          H11-C10-C8-O14= 55.93         O12-C10-C8-C6= 56.97          
O12-C10-C8-H9=298.20          O12-C10-C8-O14=176.61         O13-C10-C8-C6=176.16          O13-C10-C8-H9= 57.39          
O13-C10-C8-O14=295.80         
           -------------------------------------------------
          |                Final Singlepoint                |
           -------------------------------------------------

          ...................................................
          :                      SETUP                      :
          :.................................................:
          :  # basis functions                  60          :
          :  # atomic orbitals                  60          :
          :  # shells                           36          :
          :  # electrons                        72          :
          :  max. iterations                   250          :
          :  Hamiltonian                  GFN2-xTB          :
          :  restarted?                      false          :
          :  GBSA solvation                  false          :
          :  PC potential                    false          :
          :  electronic temp.          300.0000000     K    :
          :  accuracy                    1.0000000          :
          :  -> integral cutoff          0.2500000E+02      :
          :  -> integral neglect         0.1000000E-07      :
          :  -> SCF convergence          0.1000000E-05 Eh   :
          :  -> wf. convergence          0.1000000E-03 e    :
          :  Broyden damping             0.4000000          :
          :  net charge                          0          :
          :  unpaired electrons                  0          :
          ...................................................

 iter      E             dE          RMSdq      gap      omega  full diag
   1    -43.6703436 -0.436703E+02  0.133E-05   10.47       0.0  T
   2    -43.6703436 -0.646594E-12  0.829E-06   10.47    2463.0  T
   3    -43.6703436 -0.355271E-13  0.394E-06   10.47    5177.7  T

   *** convergence criteria satisfied after 3 iterations ***

         #    Occupation            Energy/Eh            Energy/eV
      -------------------------------------------------------------
         1        2.0000           -0.7394533             -20.1215
       ...           ...                  ...                  ...
        30        2.0000           -0.4678617             -12.7312
        31        2.0000           -0.4545664             -12.3694
        32        2.0000           -0.4469984             -12.1634
        33        2.0000           -0.4311207             -11.7314
        34        2.0000           -0.4245063             -11.5514
        35        2.0000           -0.4197795             -11.4228
        36        2.0000           -0.4168847             -11.3440 (HOMO)
        37                         -0.0321638              -0.8752 (LUMO)
        38                         -0.0115872              -0.3153
        39                          0.0119173               0.3243
        40                          0.0323087               0.8792
        41                          0.0483471               1.3156
       ...                                ...                  ...
        60                          0.2801101               7.6222
      -------------------------------------------------------------
                  HL-Gap            0.3847209 Eh           10.4688 eV
             Fermi-level           -0.2245242 Eh           -6.1096 eV

 SCC (total)                   0 d,  0 h,  0 min,  0.011 sec
 SCC setup                      ...        0 min,  0.000 sec (  1.482%)
 Dispersion                     ...        0 min,  0.000 sec (  0.678%)
 classical contributions        ...        0 min,  0.000 sec (  0.252%)
 integral evaluation            ...        0 min,  0.003 sec ( 22.655%)
 iterations                     ...        0 min,  0.002 sec ( 15.148%)
 molecular gradient             ...        0 min,  0.007 sec ( 58.876%)
 printout                       ...        0 min,  0.000 sec (  0.739%)

         :::::::::::::::::::::::::::::::::::::::::::::::::::::
         ::                     SUMMARY                     ::
         :::::::::::::::::::::::::::::::::::::::::::::::::::::
         :: total energy             -43.362943115856 Eh    ::
         :: gradient norm              0.000049222326 Eh/a0 ::
         :: HOMO-LUMO gap             10.468789118055 eV    ::
         ::.................................................::
         :: SCC energy               -43.670207611866 Eh    ::
         :: -> isotropic ES            0.133752186912 Eh    ::
         :: -> anisotropic ES         -0.006364857202 Eh    ::
         :: -> anisotropic XC         -0.010636026273 Eh    ::
         :: -> dispersion             -0.018795707050 Eh    ::
         :: repulsion energy           0.307264496009 Eh    ::
         :: add. restraining           0.000000000000 Eh    ::
         :: total charge              -0.000000000000 e     ::
         :::::::::::::::::::::::::::::::::::::::::::::::::::::

           ------------------------------------------------- 
          |                Numerical Hessian                |
           ------------------------------------------------- 
step length          :   0.00500
SCC accuracy         :   0.30000
Hessian scale factor :   1.00000
frozen atoms in %    :   0.00000    0
RMS gradient         :   0.00005
estimated CPU  time      0.03 min
estimated wall time      0.03 min

writing file <hessian>.

 projected vibrational frequencies (cm⁻¹)
eigval :       -0.00    -0.00    -0.00    -0.00     0.00     0.00
eigval :       58.76    85.20    98.04   140.98   167.01   218.80
eigval :      225.70   234.08   275.91   298.94   317.53   368.72
eigval :      377.51   391.90   398.68   413.52   441.09   445.56
eigval :      483.13   531.98   572.88   606.88   612.17   889.79
eigval :      999.34  1011.72  1029.37  1043.77  1051.79  1070.13
eigval :     1091.95  1105.07  1114.72  1120.38  1142.96  1150.02
eigval :     1163.02  1180.24  1205.47  1219.18  1222.93  1257.87
eigval :     1269.41  1280.80  1284.18  1303.38  1309.11  1318.60
eigval :     1342.39  1344.99  1349.99  1355.50  1362.00  1454.20
eigval :     2746.75  2850.27  2857.44  2870.31  2878.85  2894.36
eigval :     3012.16  3510.41  3532.10  3534.27  3535.77  3542.64
           -------------------------------------------------
          |                Property Printout                |
           -------------------------------------------------

    * Orbital Energies and Occupations

         #    Occupation            Energy/Eh            Energy/eV
      -------------------------------------------------------------
         1        2.0000           -0.7394533             -20.1215
       ...           ...                  ...                  ...
        24        2.0000           -0.5288617             -14.3911
        25        2.0000           -0.5125694             -13.9477
        26        2.0000           -0.5073954             -13.8069
        27        2.0000           -0.5018484             -13.6560
        28        2.0000           -0.4849442             -13.1960
        29        2.0000           -0.4756368             -12.9427
        30        2.0000           -0.4678618             -12.7312
        31        2.0000           -0.4545664             -12.3694
        32        2.0000           -0.4469984             -12.1634
        33        2.0000           -0.4311207             -11.7314
        34        2.0000           -0.4245063             -11.5514
        35        2.0000           -0.4197796             -11.4228
        36        2.0000           -0.4168847             -11.3440 (HOMO)
        37                         -0.0321638              -0.8752 (LUMO)
        38                         -0.0115872              -0.3153
        39                          0.0119173               0.3243
        40                          0.0323087               0.8792
        41                          0.0483471               1.3156
        42                          0.0643515               1.7511
        43                          0.0779343               2.1207
        44                          0.0925909               2.5195
        45                          0.0990077               2.6941
        46                          0.1096164               2.9828
        47                          0.1151012               3.1321
       ...                                ...                  ...
        60                          0.2801101               7.6222
      -------------------------------------------------------------
                  HL-Gap            0.3847209 Eh           10.4688 eV
             Fermi-level           -0.2245242 Eh           -6.1096 eV

     #   Z          covCN         q      C6AA      α(0)
     1   6 C        3.677     0.072    19.591     6.341
     2   6 C        3.753     0.094    19.086     6.230
     3   1 H        0.923     0.042     2.420     2.433
     4   6 C        3.729     0.095    19.105     6.240
     5   1 H        0.923     0.035     2.511     2.478
     6   6 C        3.731     0.098    19.050     6.230
     7   1 H        0.923     0.033     2.541     2.493
     8   6 C        3.728     0.088    19.218     6.259
     9   1 H        0.923     0.042     2.427     2.436
    10   6 C        3.630     0.240    17.234     5.978
    11   1 H        0.921     0.005     2.969     2.695
    12   8 O        1.701    -0.348    19.855     6.016
    13   8 O        1.658    -0.435    21.543     6.266
    14   8 O        1.656    -0.443    21.698     6.288
    15   8 O        1.656    -0.444    21.721     6.292
    16   8 O        1.657    -0.439    21.621     6.277
    17   8 O        1.656    -0.426    21.355     6.238
    18   1 H        0.923     0.038     2.474     2.460
    19   1 H        0.924     0.079     1.991     2.207
    20   1 H        0.805     0.321     0.660     1.276
    21   1 H        0.805     0.314     0.680     1.296
    22   1 H        0.805     0.316     0.674     1.290
    23   1 H        0.805     0.322     0.659     1.275
    24   1 H        0.805     0.300     0.720     1.333

 Mol. C6AA /au·bohr⁶  :       4718.283877
 Mol. C8AA /au·bohr⁸  :     100119.676723
 Mol. α(0) /au        :         98.324468


Wiberg/Mayer (AO) data.
largest (>0.10) Wiberg bond orders for each atom

 ---------------------------------------------------------------------------
     #   Z sym  total        # sym  WBO       # sym  WBO       # sym  WBO
 ---------------------------------------------------------------------------
     1   6 C    3.959 --    17 O    1.015     2 C    0.978    19 H    0.967
                            18 H    0.966
     2   6 C    3.939 --     1 C    0.978     4 C    0.970    12 O    0.956
                             3 H    0.956
     3   1 H    0.998 --     2 C    0.956
     4   6 C    3.965 --    16 O    1.007     2 C    0.970     6 C    0.969
                             5 H    0.955
     5   1 H    0.999 --     4 C    0.955
     6   6 C    3.963 --    15 O    0.999     8 C    0.972     4 C    0.969
                             7 H    0.955
     7   1 H    0.999 --     6 C    0.955
     8   6 C    3.961 --    14 O    1.000     6 C    0.972     9 H    0.956
                            10 C    0.954
     9   1 H    0.998 --     8 C    0.956
    10   6 C    3.931 --    13 O    1.009    12 O    0.968     8 C    0.954
                            11 H    0.943
    11   1 H    1.000 --    10 C    0.943
    12   8 O    2.069 --    10 C    0.968     2 C    0.956
    13   8 O    1.974 --    10 C    1.009    20 H    0.877
    14   8 O    1.959 --     8 C    1.000    21 H    0.884
    15   8 O    1.957 --     6 C    0.999    22 H    0.882
    16   8 O    1.958 --     4 C    1.007    23 H    0.878
    17   8 O    1.969 --     1 C    1.015    24 H    0.894
    18   1 H    0.999 --     1 C    0.966
    19   1 H    0.993 --     1 C    0.967
    20   1 H    0.896 --    13 O    0.877
    21   1 H    0.901 --    14 O    0.884
    22   1 H    0.900 --    15 O    0.882
    23   1 H    0.896 --    16 O    0.878
    24   1 H    0.910 --    17 O    0.894
 ---------------------------------------------------------------------------

Topologies differ in total number of bonds
Writing topology from bond orders to xtbtopo.mol

molecular dipole:
                 x           y           z       tot (Debye)
 q only:        0.633      -0.266      -0.114
   full:        1.099      -0.502      -0.109       3.082
molecular quadrupole (traceless):
                xx          xy          yy          xz          yz          zz
 q only:       -5.467      -2.317       6.146       2.307      -0.358      -0.679
  q+dip:      -11.502      -2.657       6.279       3.282      -0.248       5.223
   full:      -10.341      -2.844       7.678       3.235      -0.404       2.663

           -------------------------------------------------
          |                Geometry Summary                 |
           -------------------------------------------------

      molecular mass/u    :      180.1561339
   center of mass at/Å    :        0.0000673      -0.0000260       0.0001454
  moments of inertia/u·Å² :        0.4270559E+03   0.6430341E+03   0.1026272E+04
rotational constants/cm⁻¹ :        0.3947407E-01   0.2621577E-01   0.1642608E-01

 * 24 selected distances

     #   Z          #   Z                                           value/Å
     1   6 C        2   6 C                                       1.5315825
     2   6 C        3   1 H                                       1.1010467
     2   6 C        4   6 C                                       1.5329704
     4   6 C        5   1 H                                       1.1024313
     4   6 C        6   6 C                                       1.5338696
     6   6 C        7   1 H                                       1.1028663
     6   6 C        8   6 C                                       1.5287655
     8   6 C        9   1 H                                       1.1013602
     8   6 C       10   6 C                                       1.5358506 (max)
    10   6 C       11   1 H                                       1.1124684
     2   6 C       12   8 O                                       1.4196388
    10   6 C       12   8 O                                       1.4019776
    10   6 C       13   8 O                                       1.3875401
     8   6 C       14   8 O                                       1.4048150
     6   6 C       15   8 O                                       1.4060500
     4   6 C       16   8 O                                       1.4003665
     1   6 C       17   8 O                                       1.3998717
     1   6 C       18   1 H                                       1.0986189
     1   6 C       19   1 H                                       1.0902262
    13   8 O       20   1 H                                       0.9641138 (min)
    14   8 O       21   1 H                                       0.9647314
    15   8 O       22   1 H                                       0.9648787
    16   8 O       23   1 H                                       0.9663461
    17   8 O       24   1 H                                       0.9645727

 * 4 distinct bonds (by element types)

   Z      Z             #   av. dist./Å        max./Å        min./Å
   1 H    6 C           7     1.1012883     1.1124684     1.0902262
   6 C    6 C           5     1.5326077     1.5358506     1.5287655
   1 H    8 O           5     0.9649285     0.9663461     0.9641138
   6 C    8 O           7     1.4028942     1.4196388     1.3875401

           -------------------------------------------------
          |               Frequency Printout                |
           -------------------------------------------------
 projected vibrational frequencies (cm⁻¹)
eigval :       -0.00    -0.00    -0.00    -0.00     0.00     0.00
eigval :       58.76    85.20    98.04   140.98   167.01   218.80
eigval :      225.70   234.08   275.91   298.94   317.53   368.72
eigval :      377.51   391.90   398.68   413.52   441.09   445.56
eigval :      483.13   531.98   572.88   606.88   612.17   889.79
eigval :      999.34  1011.72  1029.37  1043.77  1051.79  1070.13
eigval :     1091.95  1105.07  1114.72  1120.38  1142.96  1150.02
eigval :     1163.02  1180.24  1205.47  1219.18  1222.93  1257.87
eigval :     1269.41  1280.80  1284.18  1303.38  1309.11  1318.60
eigval :     1342.39  1344.99  1349.99  1355.50  1362.00  1454.20
eigval :     2746.75  2850.27  2857.44  2870.31  2878.85  2894.36
eigval :     3012.16  3510.41  3532.10  3534.27  3535.77  3542.64
 reduced masses (amu)
   1: 13.67   2: 13.83   3: 13.78   4: 13.37   5: 13.48   6: 13.41   7: 14.03   8: 12.57
   9: 14.26  10: 13.99  11:  9.40  12:  6.55  13: 13.15  14: 11.05  15: 11.99  16: 10.88
  17: 12.09  18:  7.92  19:  4.62  20:  6.97  21:  9.62  22:  5.98  23:  5.78  24:  8.85
  25: 11.48  26: 10.42  27: 11.72  28: 11.08  29: 12.46  30:  7.00  31: 10.11  32:  9.19
  33:  9.70  34:  9.21  35:  9.38  36:  8.64  37: 10.24  38: 11.55  39: 11.14  40: 10.76
  41:  8.45  42: 11.78  43:  6.74  44:  5.85  45:  3.63  46:  2.66  47:  3.76  48:  3.79
  49:  3.89  50:  3.97  51:  3.08  52:  2.86  53:  3.00  54:  3.32  55:  3.97  56:  6.17
  57:  4.24  58:  5.09  59:  5.74  60:  1.81  61:  1.66  62:  1.66  63:  1.72  64:  1.72
  65:  1.76  66:  1.75  67:  1.73  68:  1.87  69:  1.87  70:  1.87  71:  1.87  72:  1.87
 IR intensities (km·mol⁻¹)
   1:  0.06   2:  0.35   3:  0.48   4:  0.05   5:  0.12   6:  0.11   7:  0.73   8:  3.20
   9:  1.09  10:  2.60  11:  0.84  12: 78.53  13:  2.65  14: 36.99  15: 29.01  16:  7.54
  17: 11.82  18: 35.52  19: 38.67  20: 40.74  21: 28.29  22: 96.49  23:273.98  24:236.33
  25:  9.94  26: 20.37  27: 13.18  28: 10.90  29: 18.46  30: 36.59  31: 14.47  32: 37.67
  33:  3.61  34: 14.13  35: 95.46  36:115.23  37: 97.81  38: 10.34  39:236.96  40: 79.51
  41: 44.44  42: 85.23  43: 28.98  44: 54.29  45: 48.02  46: 34.37  47: 27.93  48: 67.85
  49: 95.26  50: 82.60  51: 24.96  52: 36.99  53: 53.95  54: 12.57  55: 23.09  56: 39.24
  57:  8.39  58: 32.39  59:  3.52  60:  1.67  61: 90.22  62:  1.12  63: 35.05  64: 19.11
  65:108.40  66:122.90  67:  7.13  68: 38.62  69: 42.01  70: 25.42  71: 19.20  72: 27.71
 Raman intensities (Ä⁴*amu⁻¹)
   1:  0.00   2:  0.00   3:  0.00   4:  0.00   5:  0.00   6:  0.00   7:  0.00   8:  0.00
   9:  0.00  10:  0.00  11:  0.00  12:  0.00  13:  0.00  14:  0.00  15:  0.00  16:  0.00
  17:  0.00  18:  0.00  19:  0.00  20:  0.00  21:  0.00  22:  0.00  23:  0.00  24:  0.00
  25:  0.00  26:  0.00  27:  0.00  28:  0.00  29:  0.00  30:  0.00  31:  0.00  32:  0.00
  33:  0.00  34:  0.00  35:  0.00  36:  0.00  37:  0.00  38:  0.00  39:  0.00  40:  0.00
  41:  0.00  42:  0.00  43:  0.00  44:  0.00  45:  0.00  46:  0.00  47:  0.00  48:  0.00
  49:  0.00  50:  0.00  51:  0.00  52:  0.00  53:  0.00  54:  0.00  55:  0.00  56:  0.00
  57:  0.00  58:  0.00  59:  0.00  60:  0.00  61:  0.00  62:  0.00  63:  0.00  64:  0.00
  65:  0.00  66:  0.00  67:  0.00  68:  0.00  69:  0.00  70:  0.00  71:  0.00  72:  0.00
 output can be read by thermo (or use thermo option).
 writing <g98.out> molden fake output.
 recommended (thermochemical) frequency scaling factor: 1.0
           -------------------------------------------------
          |             Thermodynamic Functions             |
           -------------------------------------------------

Molecule has no symmetry elements
It seems to be the C1 point group
c1  symmetry found (for desy threshold:  0.10E+00) used in thermo

          ...................................................
          :                      SETUP                      :
          :.................................................:
          :  # frequencies                          66      :
          :  # imaginary freq.                       0      :
          :  linear?                             false      :
          :  only rotor calc.                    false      :
          :  symmetry                               c1      :
          :  rotational number                       1      :
          :  scaling factor                  1.0000000      :
          :  rotor cutoff                    0.0000000 cm⁻¹ :
          :  imag. cutoff                 -100.0000000 cm⁻¹ :
          :.................................................:

    mode    ω/cm⁻¹     T·S(HO)/kcal·mol⁻¹    T·S(FR)/kcal·mol⁻¹   T·S(vib)
   ------------------------------------------------------------------------
       1     58.76    -1.34122 (100.00%)    -1.00861 (  0.00%)    -1.34122
       2     85.20    -1.12322 (100.00%)    -0.89857 (  0.00%)    -1.12322
       3     98.04    -1.04138 (100.00%)    -0.85699 (  0.00%)    -1.04138
       4    140.98    -0.83201 (100.00%)    -0.74942 (  0.00%)    -0.83201
       5    167.01    -0.73608 (100.00%)    -0.69923 (  0.00%)    -0.73608
       6    218.80    -0.58705 (100.00%)    -0.61922 (  0.00%)    -0.58705
       7    225.70    -0.57032 (100.00%)    -0.61003 (  0.00%)    -0.57032
       8    234.08    -0.55081 (100.00%)    -0.59923 (  0.00%)    -0.55081
       9    275.91    -0.46479 (100.00%)    -0.55053 (  0.00%)    -0.46479
      10    298.94    -0.42422 (100.00%)    -0.52678 (  0.00%)    -0.42422
   ------------------------------------------------------------------------

   temp. (K)  partition function   enthalpy   heat capacity  entropy
                                   cal/mol     cal/K/mol   cal/K/mol   J/K/mol
 298.15  VIB  0.428E+04             6333.436     42.872     37.860
         ROT  0.128E+07              888.752      2.981     30.930
         INT  0.549E+10             7222.189     45.853     68.791
         TR   0.234E+28             1481.254      4.968     41.454
         TOT                        8703.4426    50.8212   110.2444   461.2625

       T/K    H(0)-H(T)+PV         H(T)/Eh          T*S/Eh         G(T)/Eh
   ------------------------------------------------------------------------
    298.15    0.138698E-01    0.201989E+00    0.523807E-01    0.149608E+00
   ------------------------------------------------------------------------

         :::::::::::::::::::::::::::::::::::::::::::::::::::::
         ::                  THERMODYNAMIC                  ::
         :::::::::::::::::::::::::::::::::::::::::::::::::::::
         :: total free energy         -43.213335160360 Eh   ::
         ::.................................................::
         :: total energy              -43.362943115856 Eh   ::
         :: zero point energy           0.188118804055 Eh   ::
         :: G(RRHO) w/o ZPVE           -0.038510848559 Eh   ::
         :: G(RRHO) contrib.            0.149607955496 Eh   ::
         :::::::::::::::::::::::::::::::::::::::::::::::::::::

optimized geometry written to: xtbopt.coord


           -------------------------------------------------
          | TOTAL ENERGY              -43.362943115856 Eh   |
          | TOTAL ENTHALPY            -43.160954493174 Eh   |
          | TOTAL FREE ENERGY         -43.213335160360 Eh   |
          | GRADIENT NORM               0.000049137445 Eh/α |
          | HOMO-LUMO GAP              10.468789198237 eV   |
           -------------------------------------------------

------------------------------------------------------------------------
 * finished run on 2025/04/16 at 12:05:14.985     
------------------------------------------------------------------------
 total:
 * wall-time:     0 d,  0 h,  0 min,  2.367 sec
 *  cpu-time:     0 d,  0 h,  0 min,  2.140 sec
 * ratio c/w:     0.904 speedup
 SCF:
 * wall-time:     0 d,  0 h,  0 min,  0.040 sec
 *  cpu-time:     0 d,  0 h,  0 min,  0.035 sec
 * ratio c/w:     0.891 speedup
 ANC optimizer:
 * wall-time:     0 d,  0 h,  0 min,  0.515 sec
 *  cpu-time:     0 d,  0 h,  0 min,  0.310 sec
 * ratio c/w:     0.602 speedup
 analytical hessian:
 * wall-time:     0 d,  0 h,  0 min,  1.779 sec
 *  cpu-time:     0 d,  0 h,  0 min,  1.778 sec
 * ratio c/w:     0.999 speedup

