
                                 *****************
                                 * O   R   C   A *
                                 *****************

                                            #,                                       
                                            ###                                      
                                            ####                                     
                                            #####                                    
                                            ######                                   
                                           ########,                                 
                                     ,,################,,,,,                         
                               ,,#################################,,                 
                          ,,##########################################,,             
                       ,#########################################, ''#####,          
                    ,#############################################,,   '####,        
                  ,##################################################,,,,####,       
                ,###########''''           ''''###############################       
              ,#####''   ,,,,##########,,,,          '''####'''          '####       
            ,##' ,,,,###########################,,,                        '##       
           ' ,,###''''                  '''############,,,                           
         ,,##''                                '''############,,,,        ,,,,,,###''
      ,#''                                            '''#######################'''  
     '                                                          ''''####''''         
             ,#######,   #######,   ,#######,      ##                                
            ,#'     '#,  ##    ##  ,#'     '#,    #''#        ,####,   ,####,        
            ##       ##  ##   ,#'  ##            #'  '#       #'       #'  '#        
            ##       ##  #######   ##           ,######,      #####,   #    #        
            '#,     ,#'  ##    ##  '#,     ,#' ,#      #,     #,   #   #,  ,#        
             '#######'   ##     ##  '#######'  #'      '#     '####' # '####'        



                #########################################################
                #                        -***-                          #
                #          Department of theory and spectroscopy        #
                #                                                       #
                #                      Frank Neese                      #
                #                                                       #
                #     Directorship, Architecture, Infrastructure        #
                #                    SHARK, DRIVERS                     #
                #        Core code/Algorithms in most modules           #
                #                                                       #
                #        Max Planck Institute fuer Kohlenforschung      #
                #                Kaiser Wilhelm Platz 1                 #
                #                 D-45470 Muelheim/Ruhr                 #
                #                      Germany                          #
                #                                                       #
                #                  All rights reserved                  #
                #                        -***-                          #
                #########################################################


                         Program Version 6.0.1  -  RELEASE   -


 With contributions from (in alphabetic order):
[Max-Planck-Institut fuer Kohlenforschung]                               
  Daniel Aravena         : Magnetic Suceptibility                        
  Michael Atanasov       : Ab Initio Ligand Field Theory (pilot matlab implementation)
  Alexander A. Auer      : GIAO ZORA, VPT2 properties, NMR spectrum      
  Ute Becker             : All parallelization in ORCA, NUMFREQ, NUMCALC 
  Giovanni Bistoni       : ED, misc. LED, open-shell LED, HFLD           
  Martin Brehm           : Molecular dynamics                            
  Dmytro Bykov           : pre 5.0 version of the SCF Hessian            
  Marcos Casanova-Páez   : Triplet and SCS-CIS(D). UHF-(DLPNO)-IP/EA/STEOM-CCSD. UHF-CVS-IP/STEOM-CCSD   
  Vijay G. Chilkuri      : MRCI spin determinant printing, contributions to CSF-ICE 
  Pauline Colinet        : FMM embedding                                 
  Dipayan Datta          : RHF DLPNO-CCSD density                        
  Achintya Kumar Dutta   : EOM-CC, STEOM-CC                              
  Nicolas Foglia         : Exact transition moments, OPA infrastructure, MCD improvements    
  Dmitry Ganyushin       : Spin-Orbit,Spin-Spin,Magnetic field MRCI      
  Miquel Garcia-Rates    : C-PCM and meta-GGA Hessian, CCSD/C-PCM, Gaussian charge scheme 
  Tiago L. C. Gouveia    : GS-ROHF, GS-ROCIS                             
  Yang Guo               : DLPNO-NEVPT2, F12-NEVPT2, CIM, IAO-localization        
  Andreas Hansen         : Spin unrestricted coupled pair/coupled cluster methods 
  Ingolf Harden          : AUTO-CI MPn and infrastructure                
  Benjamin Helmich-Paris : MC-RPA, TRAH-(SCF,CASSCF), AVAS, COSX integrals, SCF dyn. polar. 
  Lee Huntington         : MR-EOM, pCC                                   
  Robert Izsak           : Overlap fitted RIJCOSX, COSX-SCS-MP3, EOM     
  Riya Kayal             : Wick's Theorem for AUTO-CI, AUTO-CI UHF-CCSDT 
  Emily Kempfer          : AUTO-CI, RHF CISDT and CCSDT                  
  Christian Kollmar      : KDIIS, OOCD, Brueckner-CCSD(T), CCSD density, CASPT2, CASPT2-K, improved NEVPT2 
  Axel Koslowski         : Symmetry handling                             
  Simone Kossmann        : meta-GGA functionals, TD-DFT gradient, OOMP2, (MP2 Hessian; deprecated post 5.0) 
  Lucas Lang             : DCDCAS                                        
  Marvin Lechner         : AUTO-CI (C++ implementation), FIC-MRCC        
  Spencer Leger          : CASSCF response                               
  Dagmar Lenk            : GEPOL surface, SMD, ORCA-2-JSON               
  Dimitrios Liakos       : Extrapolation schemes; Compound Job, initial MDCI parallelization 
  Dimitrios Manganas     : Further ROCIS development; embedding schemes. LFT, Crystal Embedding 
  Dimitrios Pantazis     : SARC Basis sets                               
  Anastasios Papadopoulos: AUTO-CI, single reference methods and gradients 
  Taras Petrenko         : pre 6.0 DFT Hessian and TD-DFT gradient, (ASA, deprecated), ECA, 1-Electron XAS/XES, NRVS 
  Peter Pinski           : DLPNO-MP2, DLPNO-MP2 Gradient                 
  Christoph Reimann      : Effective Core Potentials                     
  Marius Retegan         : Local ZFS, SOC                                
  Christoph Riplinger    : Optimizer, TS searches, QM/MM, DLPNO-CCSD(T), (RO)-DLPNO pert. Triples 
  Michael Roemelt        : Original ROCIS implementation                 
  Masaaki Saitow         : Open-shell DLPNO-CCSD energy and density      
  Barbara Sandhoefer     : DKH picture change effects                    
  Kantharuban Sivalingam : CASSCF convergence/infrastructure, NEVPT2 and variants, FIC-MRCI 
  Bernardo de Souza      : ESD, SOC TD-DFT                               
  Georgi L. Stoychev     : AutoAux, RI-MP2 NMR, DLPNO-MP2 response, X2C  
  Van Anh Tran           : RI-MP2 g-tensors                              
  Willem Van den Heuvel  : Paramagnetic NMR                              
  Zikuan Wang            : NOTCH, Electric field optimization            
  Frank Wennmohs         : Technical directorship and infrastructure     
  Hang Xu                : AUTO-CI-Response properties                   
                                                                         
[FACCTs GmbH]                                                            
  Markus Bursch, Miquel Garcia-Rates, Christoph Riplinger, Bernardo de Souza, Georgi L. Stoychev 
                                                                 
  APM, Basis sets (HGBS, AHGBS, def-TZVP (Ac-Lr), def2-XVPD (La-Lu)), CI-OPT, improved COSX, DLPNO-Multilevel,           
  DOCKER, DRACO, updates on ESD, GOAT, IRC, LR-CPCM, MBIS, meta-GGA TD-DFT gradient, ML-optimized integration grids, 
  MM, NACMEs, nearIR, NEB, NEB-TS, NL-DFT gradient (VV10), 2- and 3-layer-ONIOM, interface openCOSMO-RS, QMMM,   
  Crystal-QMMM, SF, symmetry and pop. for TD-DFT, r2SCAN hybrids, SOLVATOR                                   
                                                                         
[Other institutions]                                                     
  V. Asgeirsson          : NEB                                           
  Christoph Bannwarth    : sTDA-DFT, sTD-DFT, PBEh-3c, B97-3c, D3        
  Sebastian Ehlert       : rSCAN, r2SCAN, r2SCAN-3c, D4, dhf basis sets  
  Marvin Friede          : D4 for Fr, Ra, Ac-Lr                          
  Lars Goerigk           : TD-DFT with DH, B97 family of functionals     
  Stefan Grimme          : VdW corrections, initial TS optimization, DFT functionals, gCP, sTDA/sTD-DF 
  Waldemar Hujo          : DFT-NL                                        
  H. Jonsson             : NEB                                           
  Holger Kruse           : gCP                                           
  Marcel Mueller         : wB97X-3c, vDZP basis set                      
  Hagen Neugebauer       : wr2SCAN                                       
  Tobias Risthaus        : range-separated hybrid DFT                    
  Lukas Wittmann         : regularized MP2, r2SCAN double-hybrids, wr2SCAN        
                                                                         
We gratefully acknowledge several colleagues who have allowed us to      
interface, adapt or use parts of their codes:                            
  Ed Valeev, F. Pavosevic, A. Kumar             : LibInt (2-el integral package), F12 methods 
  Garnet Chan, S. Sharma, J. Yang, R. Olivares  : DMRG                   
  Ulf Ekstrom                                   : XCFun DFT Library      
  Mihaly Kallay                                 : mrcc  (arbitrary order and MRCC methods)
  Frank Weinhold                                : gennbo (NPA and NBO analysis)           
  Simon Mueller                                 : openCOSMO-RS                            
  Christopher J. Cramer and Donald G. Truhlar   : smd solvation model                     
  S Lehtola, MJT Oliveira, MAL Marques          : LibXC Library                           
  Liviu Ungur et al                             : ANISO software                          


 Your calculation uses the libint2 library for the computation of 2-el integrals
 For citations please refer to: http://libint.valeyev.net

 Your ORCA version has been built with support for libXC version: 6.2.2
 For citations please refer to: https://libxc.gitlab.io

 This ORCA versions uses:
   CBLAS   interface :  Fast vector & matrix operations
   LAPACKE interface :  Fast linear algebra routines
   SCALAPACK package :  Parallel linear algebra routines
   Shared memory     :  Shared parallel matrices
   BLAS/LAPACK       :  OpenBLAS 0.3.27  USE64BITINT DYNAMIC_ARCH NO_AFFINITY Zen SINGLE_THREADED
        Core in use  :  Zen
   Copyright (c) 2011-2014, The OpenBLAS Project


Your calculation utilizes the geometrical counterpoise correction gCP
Please cite in your paper:
H.Kruse, S. Grimme J.Chem.Phys., 136, (2012), 154101 
   

Your calculation utilizes the atom-pairwise dispersion correction
based on EEQ partial charges (D4)


================================================================================

----- Orbital basis set information -----
Your calculation utilizes the basis: def2-SV(P)
   F. Weigend and R. Ahlrichs, Phys. Chem. Chem. Phys. 7, 3297 (2005).

----- AuxJ basis set information -----
Your calculation utilizes the auxiliary basis: def2/J
   F. Weigend, Phys. Chem. Chem. Phys. 8, 1057 (2006).

================================================================================
                                        WARNINGS
                       Please study these warnings very carefully!
================================================================================


================================================================================
                                       INPUT FILE
================================================================================
NAME = sp.inp
|  1> ! pbe def2-sv(p) def2/J RI DEFGRID1 loosescf d4 GCP(DFT/SV(P)) printgap
|  2> %output
|  3>     printlevel normal
|  4> end
|  5> * xyz 0 1
|  6> C -2.5000744281 -0.7527562195 -0.0208140417
|  7> C -1.115928021 -0.499502576 0.5962571833
|  8> H -1.1283066438 -0.8505409253 1.6405776367
|  9> C -0.7182812166 1.0042009396 0.6146284856
| 10> H -1.5979497343 1.6136023564 0.3686924327
| 11> C 0.3765506807 1.2520939408 -0.4396895778
| 12> H 0.6952075864 2.298855292 -0.3873538066
| 13> C 1.6010703615 0.3671886083 -0.1173059938
| 14> H 2.2284499151 0.3153267973 -1.0190059936
| 15> C 1.1388437401 -1.0713354197 0.2530273393
| 16> H 1.229022954 -1.1973947227 1.3477910308
| 17> O -0.1892550585 -1.2755026873 -0.1491325861
| 18> O 1.9315037897 -2.0451427523 -0.3314486035
| 19> O 2.3074743124 0.9632999344 0.9495982282
| 20> O -0.0855143196 1.0425062379 -1.7422188887
| 21> O -0.3133066804 1.4139029757 1.8932399037
| 22> O -2.6040447761 -0.3492036368 -1.3581746092
| 23> H -3.2542930607 -0.2626244274 0.6088689445
| 24> H -2.6828089323 -1.8290542925 -0.0279793182
| 25> H 1.5634445556 -2.2487136963 -1.2000635629
| 26> H 3.1212553367 0.4697581968 1.1023617616
| 27> H -0.4389390214 0.139624749 -1.8063167196
| 28> H 0.6510807346 1.3404334599 1.9566515154
| 29> H -2.4913978957 0.607709758 -1.4266149007
| 30> *
| 31> 
| 32>                          ****END OF INPUT****
================================================================================

                       ****************************
                       * Single Point Calculation *
                       ****************************

---------------------------------
CARTESIAN COORDINATES (ANGSTROEM)
---------------------------------
  C     -2.500074   -0.752756   -0.020814
  C     -1.115928   -0.499503    0.596257
  H     -1.128307   -0.850541    1.640578
  C     -0.718281    1.004201    0.614628
  H     -1.597950    1.613602    0.368692
  C      0.376551    1.252094   -0.439690
  H      0.695208    2.298855   -0.387354
  C      1.601070    0.367189   -0.117306
  H      2.228450    0.315327   -1.019006
  C      1.138844   -1.071335    0.253027
  H      1.229023   -1.197395    1.347791
  O     -0.189255   -1.275503   -0.149133
  O      1.931504   -2.045143   -0.331449
  O      2.307474    0.963300    0.949598
  O     -0.085514    1.042506   -1.742219
  O     -0.313307    1.413903    1.893240
  O     -2.604045   -0.349204   -1.358175
  H     -3.254293   -0.262624    0.608869
  H     -2.682809   -1.829054   -0.027979
  H      1.563445   -2.248714   -1.200064
  H      3.121255    0.469758    1.102362
  H     -0.438939    0.139625   -1.806317
  H      0.651081    1.340433    1.956652
  H     -2.491398    0.607710   -1.426615

----------------------------
CARTESIAN COORDINATES (A.U.)
----------------------------
  NO LB      ZA    FRAG     MASS         X           Y           Z
   0 C     6.0000    0    12.011   -4.724456   -1.422503   -0.039333
   1 C     6.0000    0    12.011   -2.108798   -0.943923    1.126763
   2 H     1.0000    0     1.008   -2.132191   -1.607289    3.100242
   3 C     6.0000    0    12.011   -1.357355    1.897665    1.161480
   4 H     1.0000    0     1.008   -3.019687    3.049267    0.696728
   5 C     6.0000    0    12.011    0.711578    2.366115   -0.830893
   6 H     1.0000    0     1.008    1.313752    4.344207   -0.731993
   7 C     6.0000    0    12.011    3.025585    0.693886   -0.221676
   8 H     1.0000    0     1.008    4.211160    0.595881   -1.925642
   9 C     6.0000    0    12.011    2.152103   -2.024531    0.478152
  10 H     1.0000    0     1.008    2.322517   -2.262748    2.546956
  11 O     8.0000    0    15.999   -0.357640   -2.410351   -0.281820
  12 O     8.0000    0    15.999    3.650013   -3.864760   -0.626347
  13 O     8.0000    0    15.999    4.360495    1.820373    1.794481
  14 O     8.0000    0    15.999   -0.161599    1.970051   -3.292317
  15 O     8.0000    0    15.999   -0.592064    2.671889    3.577705
  16 O     8.0000    0    15.999   -4.920931   -0.659899   -2.566578
  17 H     1.0000    0     1.008   -6.149723   -0.496288    1.150596
  18 H     1.0000    0     1.008   -5.069774   -3.456412   -0.052873
  19 H     1.0000    0     1.008    2.954482   -4.249453   -2.267791
  20 H     1.0000    0     1.008    5.898318    0.887714    2.083162
  21 H     1.0000    0     1.008   -0.829475    0.263853   -3.413444
  22 H     1.0000    0     1.008    1.230364    2.533052    3.697536
  23 H     1.0000    0     1.008   -4.708060    1.148405   -2.695911

--------------------------------
INTERNAL COORDINATES (ANGSTROEM)
--------------------------------
 C      0   0   0     0.000000000000     0.00000000     0.00000000
 C      1   0   0     1.536481558938     0.00000000     0.00000000
 H      2   1   0     1.101810492948   108.54339704     0.00000000
 C      2   1   3     1.555501446038   113.22700593   240.79646071
 H      4   2   1     1.098030659839   109.21218913    11.62977708
 C      4   2   1     1.540030649760   109.22376291   252.41419271
 H      6   4   2     1.095440816687   109.14174573   183.12822978
 C      6   4   2     1.544809720123   109.17437039   300.80917488
 H      8   6   4     1.099707980036   107.94567432   162.74414870
 C      8   6   4     1.555683645948   110.11133064    44.18822276
 H     10   8   6     1.105681137905   108.47509838   255.19229542
 O     10   8   6     1.402591636079   110.34589982    15.94381163
 O     10   8   6     1.384999206848   112.31212036   137.23897501
 O      8   6   4     1.411608966348   108.20988328   282.64014446
 O      6   4   2     1.397860391979   112.25881005    65.29968855
 O      4   2   1     1.402393415505   111.53111362   128.29328660
 O      1   2   3     1.400784711428   113.75384349   180.25563626
 H      1   2   3     1.097987059349   108.35528464    55.53622923
 H      1   2   3     1.091723766415   108.41638927   297.13249113
 H     13  10   8     0.965091019925   108.05093401   271.53302128
 H     14   8   6     0.963929302076   109.02844336   185.63341830
 H     15   6   4     0.971705991937   108.72385923   303.56251684
 H     16   4   2     0.969258421919   108.95505731    94.08277814
 H     17   1   2     0.965948569186   110.14424784   296.14224912

---------------------------
INTERNAL COORDINATES (A.U.)
---------------------------
 C      0   0   0     0.000000000000     0.00000000     0.00000000
 C      1   0   0     2.903529356213     0.00000000     0.00000000
 H      2   1   0     2.082120083153   108.54339704     0.00000000
 C      2   1   3     2.939471733930   113.22700593   240.79646071
 H      4   2   1     2.074977233744   109.21218913    11.62977708
 C      4   2   1     2.910236165892   109.22376291   252.41419271
 H      6   4   2     2.070083139457   109.14174573   183.12822978
 C      6   4   2     2.919267300052   109.17437039   300.80917488
 H      8   6   4     2.078146909556   107.94567432   162.74414870
 C      8   6   4     2.939816041861   110.11133064    44.18822276
 H     10   8   6     2.089434542083   108.47509838   255.19229542
 O     10   8   6     2.650514069919   110.34589982    15.94381163
 O     10   8   6     2.617269196641   112.31212036   137.23897501
 O      8   6   4     2.667554354585   108.20988328   282.64014446
 O      6   4   2     2.641573314296   112.25881005    65.29968855
 O      4   2   1     2.650139487318   111.53111362   128.29328660
 O      1   2   3     2.647099477183   113.75384349   180.25563626
 H      1   2   3     2.074894840759   108.35528464    55.53622923
 H      1   2   3     2.063058932418   108.41638927   297.13249113
 H     13  10   8     1.823757721966   108.05093401   271.53302128
 H     14   8   6     1.821562393386   109.02844336   185.63341830
 H     15   6   4     1.836258207452   108.72385923   303.56251684
 H     16   4   2     1.831632970423   108.95505731    94.08277814
 H     17   1   2     1.825378255214   110.14424784   296.14224912

---------------------
BASIS SET INFORMATION
---------------------
There are 3 groups of distinct atoms

 Group   1 Type C   : 7s4p1d contracted to 3s2p1d pattern {511/31/1}
 Group   2 Type H   : 4s contracted to 2s pattern {31}
 Group   3 Type O   : 7s4p1d contracted to 3s2p1d pattern {511/31/1}

Atom   0C    basis set group =>   1
Atom   1C    basis set group =>   1
Atom   2H    basis set group =>   2
Atom   3C    basis set group =>   1
Atom   4H    basis set group =>   2
Atom   5C    basis set group =>   1
Atom   6H    basis set group =>   2
Atom   7C    basis set group =>   1
Atom   8H    basis set group =>   2
Atom   9C    basis set group =>   1
Atom  10H    basis set group =>   2
Atom  11O    basis set group =>   3
Atom  12O    basis set group =>   3
Atom  13O    basis set group =>   3
Atom  14O    basis set group =>   3
Atom  15O    basis set group =>   3
Atom  16O    basis set group =>   3
Atom  17H    basis set group =>   2
Atom  18H    basis set group =>   2
Atom  19H    basis set group =>   2
Atom  20H    basis set group =>   2
Atom  21H    basis set group =>   2
Atom  22H    basis set group =>   2
Atom  23H    basis set group =>   2
---------------------------------
AUXILIARY/J BASIS SET INFORMATION
---------------------------------
There are 3 groups of distinct atoms

 Group   1 Type C   : 12s5p4d2f1g contracted to 6s4p3d1f1g pattern {711111/2111/211/2/1}
 Group   2 Type H   : 5s2p1d contracted to 3s1p1d pattern {311/2/1}
 Group   3 Type O   : 12s5p4d2f1g contracted to 6s4p3d1f1g pattern {711111/2111/211/2/1}

Atom   0C    basis set group =>   1
Atom   1C    basis set group =>   1
Atom   2H    basis set group =>   2
Atom   3C    basis set group =>   1
Atom   4H    basis set group =>   2
Atom   5C    basis set group =>   1
Atom   6H    basis set group =>   2
Atom   7C    basis set group =>   1
Atom   8H    basis set group =>   2
Atom   9C    basis set group =>   1
Atom  10H    basis set group =>   2
Atom  11O    basis set group =>   3
Atom  12O    basis set group =>   3
Atom  13O    basis set group =>   3
Atom  14O    basis set group =>   3
Atom  15O    basis set group =>   3
Atom  16O    basis set group =>   3
Atom  17H    basis set group =>   2
Atom  18H    basis set group =>   2
Atom  19H    basis set group =>   2
Atom  20H    basis set group =>   2
Atom  21H    basis set group =>   2
Atom  22H    basis set group =>   2
Atom  23H    basis set group =>   2
------------------------------------------------------------------------------
                             ORCA STARTUP CALCULATIONS
                           -- RI-GTO INTEGRALS CHOSEN --
------------------------------------------------------------------------------
------------------------------------------------------------------------------
                   ___                                                        
                  /   \      - P O W E R E D   B Y -                         
                 /     \                                                     
                 |  |  |   _    _      __       _____    __    __             
                 |  |  |  | |  | |    /  \     |  _  \  |  |  /  |          
                  \  \/   | |  | |   /    \    | | | |  |  | /  /          
                 / \  \   | |__| |  /  /\  \   | |_| |  |  |/  /          
                |  |  |   |  __  | /  /__\  \  |    /   |      \           
                |  |  |   | |  | | |   __   |  |    \   |  |\   \          
                \     /   | |  | | |  |  |  |  | |\  \  |  | \   \       
                 \___/    |_|  |_| |__|  |__|  |_| \__\ |__|  \__/        
                                                                              
                      - O R C A' S   B I G   F R I E N D -                    
                                      &                                       
                       - I N T E G R A L  F E E D E R -                       
                                                                              
 v1 FN, 2020, v2 2021, v3 2022-2024                                           
------------------------------------------------------------------------------


----------------------
SHARK INTEGRAL PACKAGE
----------------------

Number of atoms                             ...     24
Number of basis functions                   ...    192
Number of shells                            ...     96
Maximum angular momentum                    ...      2
Integral batch strategy                     ... SHARK/LIBINT Hybrid
RI-J (if used) integral strategy            ... SPLIT-RIJ (Revised 2003 algorithm where possible)
Printlevel                                  ...      1
Contraction scheme used                     ... SEGMENTED contraction
Prescreening option                         ... SCHWARTZ
   Thresh                                   ... 1.000e-09
   Tcut                                     ... 1.000e-10
   Tpresel                                  ... 1.000e-10 
Coulomb Range Separation                    ... NOT USED
Exchange Range Separation                   ... NOT USED
Multipole approximations                    ... NOT USED
Finite Nucleus Model                        ... NOT USED
CABS basis                                  ... NOT available
Auxiliary Coulomb fitting basis             ... AVAILABLE
   # of basis functions in Aux-J            ...    720
   # of shells in Aux-J                     ...    240
   Maximum angular momentum in Aux-J        ...      4
Auxiliary J/K fitting basis                 ... NOT available
Auxiliary Correlation fitting basis         ... NOT available
Auxiliary 'external' fitting basis          ... NOT available

Checking pre-screening integrals            ... done (  0.0 sec) Dimension = 96
Check shell pair data                       ... done (  0.0 sec)
Shell pair information
Shell pair cut-off parameter TPreSel        ...   1.0e-10
Total number of shell pairs                 ...      4656
Shell pairs after pre-screening             ...      4282
Total number of primitive shell pairs       ...     18720
Primitive shell pairs kept                  ...     11571
          la=0 lb=0:   1660 shell pairs
          la=1 lb=0:   1357 shell pairs
          la=1 lb=1:    293 shell pairs
          la=2 lb=0:    631 shell pairs
          la=2 lb=1:    272 shell pairs
          la=2 lb=2:     69 shell pairs

Calculating one electron integrals          ... done (  0.0 sec)
Calculating RI/J V-Matrix + Cholesky decomp.... done (  0.0 sec)
Calculating Nuclear repulsion               ... done (  0.0 sec) ENN=    857.684448163036 Eh

Diagonalization of the overlap matrix:
Smallest eigenvalue                        ... 8.491e-04
Time for diagonalization                   ...    0.003 sec
Threshold for overlap eigenvalues          ... 1.000e-07
Number of eigenvalues below threshold      ... 0
Time for construction of square roots      ...    0.004 sec
Total time needed                          ...    0.008 sec

-------------------
DFT GRID GENERATION
-------------------

General Integration Accuracy     IntAcc      ... 4.159
Radial Grid Type                 RadialGrid  ... OptM3 with GC (2021)
Angular Grid (max. ang.)         AngularGrid ... 3 (Lebedev-194)
Angular grid pruning method      GridPruning ... 4 (adaptive)
Weight generation scheme         WeightScheme... mBecke (2022)
Basis function cutoff            BFCut       ... 1.0000e-10
Integration weight cutoff        WCut        ... 1.0000e-14
Partially contracted basis set               ... off
Rotationally invariant grid construction     ... off
Angular grids for H and He will be reduced by one unit

Total number of grid points                  ...    55572
Total number of batches                      ...      881
Average number of points per batch           ...       63
Average number of grid points per atom       ...     2316
Initializing property integral containers    ... done (  0.0 sec)

SHARK setup successfully completed in   0.8 seconds

Maximum memory used throughout the entire STARTUP-calculation: 28.7 MB
-------------------------------------------------------------------------------
                                 ORCA GUESS
                   Start orbitals & Density for SCF / CASSCF
-------------------------------------------------------------------------------

------------
SCF SETTINGS
------------
Hamiltonian:
 Density Functional     Method          .... DFT(GTOs)
 Exchange Functional    Exchange        .... PBE
   PBE kappa parameter   XKappa         ....  0.804000
   PBE mue parameter    XMuePBE         ....  0.219520
 Correlation Functional Correlation     .... PBE
   PBE beta parameter  CBetaPBE         ....  0.066725
 LDA part of GGA corr.  LDAOpt          .... PW91-LDA
 Gradients option       PostSCFGGA      .... off
   NL short-range parameter             ....  6.400000
 RI-approximation to the Coulomb term is turned on
   Number of AuxJ basis functions       .... 720


General Settings:
 Integral files         IntName         .... sp
 Hartree-Fock type      HFTyp           .... RHF
 Total Charge           Charge          ....    0
 Multiplicity           Mult            ....    1
 Number of Electrons    NEL             ....   96
 Basis Dimension        Dim             ....  192
 Nuclear Repulsion      ENuc            ....    857.6844481630 Eh

Convergence Acceleration:
 AO-DIIS                CNVDIIS         .... on
   Start iteration      DIISMaxIt       ....    12
   Startup error        DIISStart       ....  0.200000
   # of expansion vecs  DIISMaxEq       ....     5
   Bias factor          DIISBfac        ....   1.050
   Max. coefficient     DIISMaxC        ....  10.000
 MO-DIIS                CNVKDIIS        .... off
 Trust-Rad. Augm. Hess. CNVTRAH         .... auto
   Auto Start mean grad. ratio tolernc. ....  1.125000
   Auto Start start iteration           ....    50
   Auto Start num. interpolation iter.  ....    10
   Max. Number of Micro iterations      ....    24
   Max. Number of Macro iterations      .... Maxiter - #DIIS iter
   Number of Davidson start vectors     ....     2
   Converg. threshold    (grad. norm)   ....   1.000e-04
   Grad. Scal. Fac. for Micro threshold ....   0.100
   Minimum threshold for Micro iter.    ....   1.000e-02
   NR start threshold (gradient norm)   ....   1.000e-04
   Initial trust radius                 ....   0.400
   Minimum AH scaling param. (alpha)    ....   1.000
   Maximum AH scaling param. (alpha)    .... 1000.000
   Quad. conv. algorithm                .... NR
   White noise on init. David. guess    .... on
   Maximum white noise                  ....   0.010
   Pseudo random numbers                .... off
   Inactive MOs                         .... canonical
   Orbital update algorithm             .... Taylor
   Preconditioner                       .... Diag
   Full preconditioner red. dimension   ....   250
 SOSCF                  CNVSOSCF        .... on
   Start iteration      SOSCFMaxIt      ....   150
   Startup grad/error   SOSCFStart      ....  0.003300
   Hessian update       SOSCFHessUp     .... L-BFGS
 Level Shifting         CNVShift        .... on
   Level shift para.    LevelShift      ....    0.2500
   Turn off err/grad.   ShiftErr        ....    0.0010
 Zerner damping         CNVZerner       .... off
 Static damping         CNVDamp         .... on
   Fraction old density DampFac         ....    0.7000
   Max. Damping (<1)    DampMax         ....    0.9800
   Min. Damping (>=0)   DampMin         ....    0.0000
   Turn off err/grad.   DampErr         ....    0.1000

SCF Procedure:
 Maximum # iterations   MaxIter         ....   125
 SCF integral mode      SCFMode         .... Direct
   Integral package                     .... SHARK and LIBINT hybrid scheme
 Reset frequency        DirectResetFreq ....    20
 Integral Threshold     Thresh          ....  1.000e-09 Eh
 Primitive CutOff       TCut            ....  1.000e-10 Eh

Convergence Tolerance:
 Convergence Check Mode ConvCheckMode   .... Total+1el-Energy
 Convergence forced     ConvForced      .... 0
 Energy Change          TolE            ....  1.000e-05 Eh
 1-El. energy change                    ....  1.000e-02 Eh
 Orbital Gradient       TolG            ....  1.000e-04
 Orbital Rotation angle TolX            ....  1.000e-04
 DIIS Error             TolErr          ....  5.000e-04

------------------------------
INITIAL GUESS: MODEL POTENTIAL
------------------------------
Loading Hartree-Fock densities                     ... done
Calculating cut-offs                               ... done
Initializing the effective Hamiltonian             ... done
Setting up the integral package (SHARK)            ... done
Starting the Coulomb interaction                   ... done (   0.2 sec)
Making the grid                                    ... done (   0.2 sec)
Mapping shells                                     ... done
Starting the XC term evaluation                    ... done (   0.2 sec)
  promolecular density results
     # of electrons  =     95.992444614
     EX              =    -83.247251521
     EC              =     -3.278277003
     EX+EC           =    -86.525528524
Transforming the Hamiltonian                       ... done (   0.0 sec)
Diagonalizing the Hamiltonian                      ... done (   0.0 sec)
Back transforming the eigenvectors                 ... done (   0.0 sec)
Now organizing SCF variables                       ... done
                      ------------------
                      INITIAL GUESS DONE (   0.6 sec)
                      ------------------
             **** ENERGY FILE WAS UPDATED (sp.en.tmp) ****
Finished Guess after   0.7 sec
Maximum memory used throughout the entire GUESS-calculation: 22.6 MB

-------------------------------------------------------------------------------------------
                                      ORCA LEAN-SCF
                              memory conserving SCF solver
-------------------------------------------------------------------------------------------

----------------------------------------D-I-I-S--------------------------------------------
Iteration    Energy (Eh)           Delta-E    RMSDP     MaxDP     DIISErr   Damp  Time(sec)
-------------------------------------------------------------------------------------------
               ***  Starting incremental Fock matrix formation  ***
    1    -685.5317269770644089     0.00e+00  4.99e-03  1.77e-01  2.31e-01  0.700   0.8
    2    -685.6777164526754405    -1.46e-01  3.26e-03  1.25e-01  8.94e-02  0.700   0.9
                               ***Turning on AO-DIIS***
    3    -685.7239425851169017    -4.62e-02  1.16e-03  3.55e-02  1.83e-02  0.700   0.7
    4    -685.7548670446076358    -3.09e-02  1.49e-03  3.07e-02  1.04e-02  0.000   0.7
    5    -685.8261512003336975    -7.13e-02  5.02e-04  1.97e-02  5.15e-03  0.000   0.7
                              *** Initializing SOSCF ***
---------------------------------------S-O-S-C-F--------------------------------------
Iteration    Energy (Eh)           Delta-E    RMSDP     MaxDP     MaxGrad    Time(sec)
--------------------------------------------------------------------------------------
    6    -685.8264585513927614    -3.07e-04  1.44e-04  5.00e-03  9.93e-04     0.9
               *** Restarting incremental Fock matrix formation ***
    7    -685.8264849911950023    -2.64e-05  1.00e-04  3.87e-03  1.52e-04     1.0
    8    -685.8264861120203477    -1.12e-06  3.65e-05  8.44e-04  1.37e-04     0.7
                 **** Energy Check signals convergence ****

               *****************************************************
               *                     SUCCESS                       *
               *           SCF CONVERGED AFTER   8 CYCLES          *
               *****************************************************

             **** ENERGY FILE WAS UPDATED (sp.en.tmp) ****

----------------
TOTAL SCF ENERGY
----------------

Total Energy       :       -685.82648611202035 Eh          -18662.28746 eV

Components:
Nuclear Repulsion  :        857.68444816303645 Eh           23338.78036 eV
Electronic Energy  :      -1543.51093427505680 Eh          -42001.06781 eV
One Electron Energy:      -2643.69653550235216 Eh          -71938.64002 eV
Two Electron Energy:       1100.18560122729536 Eh           29937.57221 eV

Virial components:
Potential Energy   :      -1366.97173928557368 Eh          -37197.19209 eV
Kinetic Energy     :        681.14525317355344 Eh           18534.90464 eV
Virial Ratio       :          2.00687259129629

DFT components:
N(Alpha)           :       48.000161396291 electrons
N(Beta)            :       48.000161396291 electrons
N(Total)           :       96.000322792583 electrons
E(X)               :      -84.607765354384 Eh       
E(C)               :       -3.287056748802 Eh       
E(XC)              :      -87.894822103186 Eh       

---------------
SCF CONVERGENCE
---------------

  Last Energy change         ...    1.1208e-06  Tolerance :   1.0000e-05
  Last MAX-Density change    ...    8.4434e-04  Tolerance :   1.0000e-03
  Last RMS-Density change    ...    3.6542e-05  Tolerance :   1.0000e-04
  Last DIIS Error            ...    9.9262e-04  Tolerance :   5.0000e-04
  Last Orbital Gradient      ...    1.3684e-04  Tolerance :   1.0000e-04
  Last Orbital Rotation      ...    1.2859e-04  Tolerance :   1.0000e-04


----------------
ORBITAL ENERGIES
----------------

  NO   OCC          E(Eh)            E(eV) 
   0   2.0000     -18.788001      -511.2475 
   1   2.0000     -18.784493      -511.1520 
   2   2.0000     -18.768281      -510.7109 
   3   2.0000     -18.762669      -510.5582 
   4   2.0000     -18.758475      -510.4441 
   5   2.0000     -18.744895      -510.0745 
   6   2.0000      -9.997892      -272.0565 
   7   2.0000      -9.951201      -270.7860 
   8   2.0000      -9.951074      -270.7825 
   9   2.0000      -9.950936      -270.7787 
  10   2.0000      -9.948489      -270.7121 
  11   2.0000      -9.943224      -270.5689 
  12   2.0000      -1.001499       -27.2522 
  13   2.0000      -0.959030       -26.0965 
  14   2.0000      -0.948308       -25.8048 
  15   2.0000      -0.934599       -25.4317 
  16   2.0000      -0.927494       -25.2384 
  17   2.0000      -0.921040       -25.0628 
  18   2.0000      -0.702930       -19.1277 
  19   2.0000      -0.697710       -18.9857 
  20   2.0000      -0.625972       -17.0336 
  21   2.0000      -0.604883       -16.4597 
  22   2.0000      -0.574846       -15.6424 
  23   2.0000      -0.538881       -14.6637 
  24   2.0000      -0.506559       -13.7842 
  25   2.0000      -0.501272       -13.6403 
  26   2.0000      -0.499442       -13.5905 
  27   2.0000      -0.477056       -12.9814 
  28   2.0000      -0.447336       -12.1726 
  29   2.0000      -0.444161       -12.0862 
  30   2.0000      -0.409126       -11.1329 
  31   2.0000      -0.406762       -11.0685 
  32   2.0000      -0.399057       -10.8589 
  33   2.0000      -0.385190       -10.4815 
  34   2.0000      -0.367105        -9.9894 
  35   2.0000      -0.353625        -9.6226 
  36   2.0000      -0.338169        -9.2021 
  37   2.0000      -0.335233        -9.1221 
  38   2.0000      -0.323071        -8.7912 
  39   2.0000      -0.309669        -8.4265 
  40   2.0000      -0.294646        -8.0177 
  41   2.0000      -0.282209        -7.6793 
  42   2.0000      -0.263544        -7.1714 
  43   2.0000      -0.257176        -6.9981 
  44   2.0000      -0.242681        -6.6037 
  45   2.0000      -0.232911        -6.3378 
  46   2.0000      -0.217096        -5.9075 
  47   2.0000      -0.209176        -5.6920 
  48   0.0000       0.005659         0.1540 
  49   0.0000       0.020033         0.5451 
  50   0.0000       0.030976         0.8429 
  51   0.0000       0.043259         1.1771 
  52   0.0000       0.060970         1.6591 
  53   0.0000       0.063998         1.7415 
  54   0.0000       0.071303         1.9402 
  55   0.0000       0.087498         2.3809 
  56   0.0000       0.100394         2.7319 
  57   0.0000       0.104899         2.8544 
  58   0.0000       0.109413         2.9773 
*Only the first 10 virtual orbitals were printed.

                    ********************************
                    * MULLIKEN POPULATION ANALYSIS *
                    ********************************

-----------------------
MULLIKEN ATOMIC CHARGES
-----------------------
   0 C :    0.065765
   1 C :    0.016222
   2 H :    0.074593
   3 C :   -0.009726
   4 H :    0.069538
   5 C :    0.044067
   6 H :    0.090610
   7 C :    0.024915
   8 H :    0.069906
   9 C :    0.192544
  10 H :    0.048763
  11 O :   -0.307116
  12 O :   -0.389031
  13 O :   -0.419898
  14 O :   -0.427145
  15 O :   -0.422008
  16 O :   -0.434392
  17 H :    0.090969
  18 H :    0.096229
  19 H :    0.305581
  20 H :    0.317227
  21 H :    0.297613
  22 H :    0.305056
  23 H :    0.299717
Sum of atomic charges:   -0.0000000

--------------------------------
MULLIKEN REDUCED ORBITAL CHARGES
--------------------------------
  0 C s       :     3.018359  s :     3.018359
      pz      :     0.785413  p :     2.852445
      px      :     0.997820
      py      :     1.069212
      dz2     :     0.018882  d :     0.063431
      dxz     :     0.019575
      dyz     :     0.011073
      dx2y2   :     0.008830
      dxy     :     0.005071

  1 C s       :     3.057738  s :     3.057738
      pz      :     0.984182  p :     2.861113
      px      :     0.931631
      py      :     0.945300
      dz2     :     0.014707  d :     0.064927
      dxz     :     0.011467
      dyz     :     0.009866
      dx2y2   :     0.013969
      dxy     :     0.014918

  2 H s       :     0.925407  s :     0.925407

  3 C s       :     3.103250  s :     3.103250
      pz      :     0.810174  p :     2.838618
      px      :     1.038905
      py      :     0.989538
      dz2     :     0.019322  d :     0.067857
      dxz     :     0.013785
      dyz     :     0.014940
      dx2y2   :     0.009112
      dxy     :     0.010699

  4 H s       :     0.930462  s :     0.930462

  5 C s       :     3.046967  s :     3.046967
      pz      :     0.789258  p :     2.840248
      px      :     0.972857
      py      :     1.078133
      dz2     :     0.020288  d :     0.068718
      dxz     :     0.019158
      dyz     :     0.010330
      dx2y2   :     0.009792
      dxy     :     0.009149

  6 H s       :     0.909390  s :     0.909390

  7 C s       :     3.076218  s :     3.076218
      pz      :     0.874404  p :     2.834984
      px      :     0.991628
      py      :     0.968951
      dz2     :     0.015313  d :     0.063883
      dxz     :     0.015607
      dyz     :     0.010975
      dx2y2   :     0.010274
      dxy     :     0.011714

  8 H s       :     0.930094  s :     0.930094

  9 C s       :     3.025894  s :     3.025894
      pz      :     1.024529  p :     2.680934
      px      :     0.739165
      py      :     0.917241
      dz2     :     0.021425  d :     0.100628
      dxz     :     0.016826
      dyz     :     0.010293
      dx2y2   :     0.027839
      dxy     :     0.024245

 10 H s       :     0.951237  s :     0.951237

 11 O s       :     3.766385  s :     3.766385
      pz      :     1.640792  p :     4.525210
      px      :     1.204014
      py      :     1.680405
      dz2     :     0.002326  d :     0.015521
      dxz     :     0.003990
      dyz     :     0.002628
      dx2y2   :     0.003212
      dxy     :     0.003365

 12 O s       :     3.767231  s :     3.767231
      pz      :     1.351238  p :     4.606136
      px      :     1.649381
      py      :     1.605518
      dz2     :     0.004560  d :     0.015663
      dxz     :     0.004286
      dyz     :     0.001054
      dx2y2   :     0.002155
      dxy     :     0.003608

 13 O s       :     3.783057  s :     3.783057
      pz      :     1.563580  p :     4.621730
      px      :     1.384047
      py      :     1.674103
      dz2     :     0.003510  d :     0.015110
      dxz     :     0.001329
      dyz     :     0.003057
      dx2y2   :     0.001743
      dxy     :     0.005471

 14 O s       :     3.785338  s :     3.785338
      pz      :     1.424013  p :     4.626142
      px      :     1.754890
      py      :     1.447240
      dz2     :     0.005804  d :     0.015664
      dxz     :     0.002263
      dyz     :     0.001787
      dx2y2   :     0.003359
      dxy     :     0.002451

 15 O s       :     3.769001  s :     3.769001
      pz      :     1.442728  p :     4.637613
      px      :     1.357118
      py      :     1.837767
      dz2     :     0.005428  d :     0.015394
      dxz     :     0.001548
      dyz     :     0.002586
      dx2y2   :     0.004892
      dxy     :     0.000941

 16 O s       :     3.789142  s :     3.789142
      pz      :     1.418654  p :     4.629438
      px      :     1.873337
      py      :     1.337448
      dz2     :     0.006245  d :     0.015812
      dxz     :     0.002121
      dyz     :     0.001621
      dx2y2   :     0.005008
      dxy     :     0.000818

 17 H s       :     0.909031  s :     0.909031

 18 H s       :     0.903771  s :     0.903771

 19 H s       :     0.694419  s :     0.694419

 20 H s       :     0.682773  s :     0.682773

 21 H s       :     0.702387  s :     0.702387

 22 H s       :     0.694944  s :     0.694944

 23 H s       :     0.700283  s :     0.700283


------------------------
MULLIKEN OVERLAP CHARGES
------------------------
B(  0-C ,  1-C ) :   0.4152 B(  0-C , 11-O ) :  -0.0696 B(  0-C , 16-O ) :   0.7225 
B(  0-C , 17-H ) :   0.7232 B(  0-C , 18-H ) :   0.6768 B(  0-C , 23-H ) :  -0.0919 
B(  1-C ,  2-H ) :   0.5626 B(  1-C ,  3-C ) :   0.1519 B(  1-C ,  4-H ) :  -0.1679 
B(  1-C ,  7-C ) :  -0.1619 B(  1-C , 11-O ) :   0.4937 B(  1-C , 15-O ) :  -0.1325 
B(  1-C , 16-O ) :  -0.1224 B(  1-C , 17-H ) :  -0.0776 B(  2-H ,  3-C ) :  -0.0877 
B(  2-H , 11-O ) :  -0.0569 B(  3-C ,  4-H ) :   0.6982 B(  3-C ,  5-C ) :   0.3582 
B(  3-C ,  6-H ) :  -0.0840 B(  3-C ,  7-C ) :   0.1293 B(  3-C ,  9-C ) :  -0.1221 
B(  3-C , 11-O ) :  -0.1404 B(  3-C , 14-O ) :  -0.0800 B(  3-C , 15-O ) :   0.6292 
B(  3-C , 22-H ) :  -0.1054 B(  4-H , 15-O ) :  -0.0583 B(  5-C ,  6-H ) :   0.6614 
B(  5-C ,  7-C ) :   0.0664 B(  5-C , 11-O ) :   0.0797 B(  5-C , 13-O ) :  -0.0688 
B(  5-C , 14-O ) :   0.5572 B(  5-C , 21-H ) :  -0.0995 B(  6-H ,  7-C ) :  -0.0624 
B(  7-C ,  8-H ) :   0.5789 B(  7-C ,  9-C ) :   0.2698 B(  7-C , 10-H ) :  -0.1582 
B(  7-C , 11-O ) :  -0.1696 B(  7-C , 12-O ) :  -0.1225 B(  7-C , 13-O ) :   0.4123 
B(  7-C , 14-O ) :  -0.0799 B(  7-C , 20-H ) :  -0.0766 B(  8-H ,  9-C ) :  -0.0673 
B(  9-C , 10-H ) :   0.6447 B(  9-C , 11-O ) :   0.5883 B(  9-C , 12-O ) :   0.6864 
B(  9-C , 13-O ) :  -0.0538 B(  9-C , 19-H ) :  -0.0675 B( 10-H , 11-O ) :  -0.0560 
B( 10-H , 12-O ) :  -0.0709 B( 11-O , 12-O ) :  -0.1069 B( 11-O , 21-H ) :   0.0560 
B( 12-O , 19-H ) :   0.5314 B( 13-O , 20-H ) :   0.5193 B( 13-O , 22-H ) :   0.1144 
B( 14-O , 21-H ) :   0.5092 B( 14-O , 23-H ) :   0.0508 B( 15-O , 22-H ) :   0.5589 
B( 16-O , 17-H ) :  -0.0560 B( 16-O , 18-H ) :  -0.0630 B( 16-O , 21-H ) :   0.0898 
B( 16-O , 23-H ) :   0.5104 B( 17-H , 18-H ) :  -0.0648 


                     *******************************
                     * LOEWDIN POPULATION ANALYSIS *
                     *******************************

----------------------
LOEWDIN ATOMIC CHARGES
----------------------
   0 C :   -0.124153
   1 C :   -0.083030
   2 H :    0.115827
   3 C :   -0.079033
   4 H :    0.107508
   5 C :   -0.074055
   6 H :    0.123407
   7 C :   -0.098926
   8 H :    0.111802
   9 C :   -0.003880
  10 H :    0.093268
  11 O :   -0.149956
  12 O :   -0.300992
  13 O :   -0.309338
  14 O :   -0.309597
  15 O :   -0.322181
  16 O :   -0.322660
  17 H :    0.106231
  18 H :    0.121175
  19 H :    0.289577
  20 H :    0.297087
  21 H :    0.263568
  22 H :    0.273140
  23 H :    0.275211

-------------------------------
LOEWDIN REDUCED ORBITAL CHARGES
-------------------------------
  0 C s       :     2.918263  s :     2.918263
      pz      :     0.888051  p :     3.060745
      px      :     1.070091
      py      :     1.102602
      dz2     :     0.042477  d :     0.145146
      dxz     :     0.046410
      dyz     :     0.021917
      dx2y2   :     0.023129
      dxy     :     0.011213

  1 C s       :     2.914411  s :     2.914411
      pz      :     1.040218  p :     3.018474
      px      :     0.971595
      py      :     1.006660
      dz2     :     0.034877  d :     0.150146
      dxz     :     0.027105
      dyz     :     0.021123
      dx2y2   :     0.035404
      dxy     :     0.031637

  2 H s       :     0.884173  s :     0.884173

  3 C s       :     2.894852  s :     2.894852
      pz      :     0.911583  p :     3.024969
      px      :     1.062736
      py      :     1.050649
      dz2     :     0.044703  d :     0.159212
      dxz     :     0.033703
      dyz     :     0.031079
      dx2y2   :     0.024180
      dxy     :     0.025546

  4 H s       :     0.892492  s :     0.892492

  5 C s       :     2.889359  s :     2.889359
      pz      :     0.896739  p :     3.023986
      px      :     1.039960
      py      :     1.087287
      dz2     :     0.047844  d :     0.160710
      dxz     :     0.047085
      dyz     :     0.020267
      dx2y2   :     0.022223
      dxy     :     0.023290

  6 H s       :     0.876593  s :     0.876593

  7 C s       :     2.917587  s :     2.917587
      pz      :     0.965942  p :     3.030636
      px      :     1.018953
      py      :     1.045741
      dz2     :     0.036414  d :     0.150702
      dxz     :     0.036208
      dyz     :     0.024053
      dx2y2   :     0.023492
      dxy     :     0.030536

  8 H s       :     0.888198  s :     0.888198

  9 C s       :     2.893727  s :     2.893727
      pz      :     1.059087  p :     2.886087
      px      :     0.840604
      py      :     0.986397
      dz2     :     0.050628  d :     0.224066
      dxz     :     0.035670
      dyz     :     0.020018
      dx2y2   :     0.064578
      dxy     :     0.053172

 10 H s       :     0.906732  s :     0.906732

 11 O s       :     3.473716  s :     3.473716
      pz      :     1.680134  p :     4.646075
      px      :     1.271320
      py      :     1.694621
      dz2     :     0.004047  d :     0.030165
      dxz     :     0.007985
      dyz     :     0.003864
      dx2y2   :     0.007385
      dxy     :     0.006884

 12 O s       :     3.527019  s :     3.527019
      pz      :     1.420206  p :     4.746483
      px      :     1.687246
      py      :     1.639032
      dz2     :     0.008155  d :     0.027490
      dxz     :     0.007371
      dyz     :     0.002682
      dx2y2   :     0.002989
      dxy     :     0.006293

 13 O s       :     3.531189  s :     3.531189
      pz      :     1.611947  p :     4.751398
      px      :     1.434427
      py      :     1.705023
      dz2     :     0.005966  d :     0.026752
      dxz     :     0.003502
      dyz     :     0.005046
      dx2y2   :     0.003020
      dxy     :     0.009217

 14 O s       :     3.525980  s :     3.525980
      pz      :     1.491152  p :     4.756291
      px      :     1.758984
      py      :     1.506155
      dz2     :     0.010924  d :     0.027325
      dxz     :     0.004007
      dyz     :     0.003003
      dx2y2   :     0.005364
      dxy     :     0.004028

 15 O s       :     3.522834  s :     3.522834
      pz      :     1.501872  p :     4.772468
      px      :     1.423979
      py      :     1.846616
      dz2     :     0.010167  d :     0.026879
      dxz     :     0.003056
      dyz     :     0.004229
      dx2y2   :     0.007997
      dxy     :     0.001429

 16 O s       :     3.535413  s :     3.535413
      pz      :     1.486129  p :     4.759842
      px      :     1.869302
      py      :     1.404411
      dz2     :     0.011604  d :     0.027406
      dxz     :     0.003142
      dyz     :     0.003229
      dx2y2   :     0.008212
      dxy     :     0.001219

 17 H s       :     0.893769  s :     0.893769

 18 H s       :     0.878825  s :     0.878825

 19 H s       :     0.710423  s :     0.710423

 20 H s       :     0.702913  s :     0.702913

 21 H s       :     0.736432  s :     0.736432

 22 H s       :     0.726860  s :     0.726860

 23 H s       :     0.724789  s :     0.724789


---------------------------------
LOEWDIN BOND ORDERS (THRESH 0.050000)
---------------------------------
B(  0-C ,  1-C ) :   1.0715 B(  0-C ,  3-C ) :   0.0566 B(  0-C , 11-O ) :   0.0548 
B(  0-C , 16-O ) :   1.2481 B(  0-C , 17-H ) :   0.9037 B(  0-C , 18-H ) :   0.9069 
B(  1-C ,  2-H ) :   0.8627 B(  1-C ,  3-C ) :   1.0007 B(  1-C ,  5-C ) :   0.0543 
B(  1-C ,  9-C ) :   0.0704 B(  1-C , 11-O ) :   1.1117 B(  1-C , 15-O ) :   0.0823 
B(  1-C , 16-O ) :   0.0756 B(  3-C ,  4-H ) :   0.8699 B(  3-C ,  5-C ) :   1.0179 
B(  3-C ,  7-C ) :   0.0548 B(  3-C , 11-O ) :   0.0567 B(  3-C , 14-O ) :   0.0782 
B(  3-C , 15-O ) :   1.2376 B(  5-C ,  6-H ) :   0.8717 B(  5-C ,  7-C ) :   1.0138 
B(  5-C ,  9-C ) :   0.0515 B(  5-C , 13-O ) :   0.0584 B(  5-C , 14-O ) :   1.2369 
B(  5-C , 15-O ) :   0.0747 B(  7-C ,  8-H ) :   0.8712 B(  7-C ,  9-C ) :   1.0045 
B(  7-C , 11-O ) :   0.0665 B(  7-C , 12-O ) :   0.0795 B(  7-C , 13-O ) :   1.1940 
B(  7-C , 14-O ) :   0.0801 B(  9-C , 10-H ) :   0.8685 B(  9-C , 11-O ) :   1.1677 
B(  9-C , 12-O ) :   1.2955 B(  9-C , 13-O ) :   0.0795 B( 11-O , 12-O ) :   0.0733 
B( 12-O , 19-H ) :   0.8704 B( 13-O , 20-H ) :   0.8752 B( 13-O , 22-H ) :   0.0861 
B( 14-O , 21-H ) :   0.8488 B( 15-O , 22-H ) :   0.8494 B( 16-O , 21-H ) :   0.0539 
B( 16-O , 23-H ) :   0.8718 

------------------------------------------
LOEWDIN REDUCED ORBITAL POPULATIONS PER MO
-------------------------------------------
THRESHOLD FOR PRINTING IS 0.1%%
                      0         1         2         3         4         5   
                 -18.78800 -18.78449 -18.76828 -18.76267 -18.75847 -18.74489
                   2.00000   2.00000   2.00000   2.00000   2.00000   2.00000
                  --------  --------  --------  --------  --------  --------
11 O  s              99.9       0.0       0.0       0.0       0.0       0.0
12 O  s               0.0       0.0      99.9       0.0       0.0       0.0
13 O  s               0.0      99.9       0.0       0.0       0.0       0.0
14 O  s               0.0       0.0       0.0       0.0      99.9       0.0
15 O  s               0.0       0.0       0.0       0.0       0.0      99.9
16 O  s               0.0       0.0       0.0      99.9       0.0       0.0

                      6         7         8         9        10        11   
                  -9.99789  -9.95120  -9.95107  -9.95094  -9.94849  -9.94322
                   2.00000   2.00000   2.00000   2.00000   2.00000   2.00000
                  --------  --------  --------  --------  --------  --------
 0 C  s               0.0       0.0       0.0       0.0       0.0      99.6
 1 C  s               0.0       0.3      93.4       5.9       0.0       0.0
 3 C  s               0.0       0.0       0.0       0.0      99.5       0.0
 5 C  s               0.0       1.0       5.6      93.0       0.0       0.0
 7 C  s               0.0      98.4       0.5       0.7       0.0       0.0
 9 C  s              99.6       0.0       0.0       0.0       0.0       0.0
11 O  px              0.1       0.0       0.0       0.0       0.0       0.0
16 O  pz              0.0       0.0       0.0       0.0       0.0       0.1

                     12        13        14        15        16        17   
                  -1.00150  -0.95903  -0.94831  -0.93460  -0.92749  -0.92104
                   2.00000   2.00000   2.00000   2.00000   2.00000   2.00000
                  --------  --------  --------  --------  --------  --------
 0 C  s               0.6       0.0       4.4       5.6       0.0       0.2
 0 C  pz              0.0       0.0       2.4       4.6       0.5       0.4
 0 C  px              0.5       0.0       0.1       0.0       0.3       0.2
 0 C  py              0.0       0.0       0.5       0.6       0.0       0.1
 0 C  dz2             0.0       0.0       0.2       0.4       0.0       0.0
 0 C  dyz             0.0       0.0       0.1       0.2       0.0       0.0
 1 C  s               4.8       0.2       1.9       0.0       2.3       0.7
 1 C  pz              1.2       0.1       0.5       0.2       0.1       0.7
 1 C  px              2.2       0.1       0.1       0.9       1.1       0.8
 1 C  py              0.7       0.4       0.1       0.2       0.1       2.0
 1 C  dxz             0.1       0.0       0.0       0.0       0.1       0.1
 1 C  dxy             0.1       0.0       0.0       0.0       0.0       0.1
 2 H  s               0.6       0.0       0.2       0.0       0.4       0.0
 3 C  s               1.0       0.7       2.1       1.3       2.9       4.3
 3 C  pz              0.0       0.1       0.1       0.1       4.1       4.2
 3 C  px              0.1       0.3       0.1       0.5       0.1       0.6
 3 C  py              0.5       0.1       0.0       0.1       0.0       1.0
 3 C  dz2             0.0       0.0       0.0       0.0       0.1       0.3
 3 C  dxz             0.0       0.0       0.0       0.0       0.1       0.1
 4 H  s               0.1       0.1       0.4       0.1       0.3       0.6
 5 C  s               1.1       2.0       3.2       4.0       1.7       0.1
 5 C  pz              0.0       0.1       1.5       2.0       5.2       0.5
 5 C  px              0.0       0.3       1.0       0.8       0.1       0.2
 5 C  py              0.5       0.2       0.2       0.1       0.1       0.1
 5 C  dz2             0.0       0.0       0.2       0.2       0.1       0.0
 5 C  dxz             0.0       0.0       0.0       0.1       0.2       0.0
 6 H  s               0.1       0.4       0.3       0.5       0.2       0.0
 7 C  s               2.6       7.9       0.2       0.0       0.2       0.1
 7 C  pz              0.2       4.0       0.6       0.7       0.2       0.1
 7 C  px              0.2       1.7       1.0       1.1       0.0       0.1
 7 C  py              0.7       2.2       0.2       0.0       0.0       0.1
 7 C  dxz             0.0       0.4       0.0       0.0       0.0       0.0
 7 C  dyz             0.0       0.2       0.0       0.0       0.0       0.0
 8 H  s               0.4       0.9       0.0       0.0       0.1       0.0
 9 C  s              14.7       0.3       1.5       0.0       0.1       0.1
 9 C  pz              1.7       0.2       0.3       0.0       0.3       0.2
 9 C  px              1.3       0.5       2.0       0.1       4.2       5.0
 9 C  py              0.9       2.1       1.0       0.0       0.7       1.4
 9 C  dz2             0.1       0.0       0.0       0.0       0.0       0.0
 9 C  dxz             0.0       0.0       0.1       0.0       0.1       0.2
 9 C  dx2y2           0.2       0.0       0.0       0.0       0.1       0.2
 9 C  dxy             0.0       0.0       0.1       0.0       0.1       0.2
10 H  s               1.7       0.0       0.2       0.0       0.0       0.0
11 O  s              30.6       2.7       1.1       0.1       8.2      11.7
11 O  pz              0.8       0.1       0.0       0.0       0.3       0.3
11 O  px              0.8       0.0       0.4       0.0       0.1       0.1
11 O  py              0.6       0.0       0.2       0.0       0.3       0.4
12 O  s              15.7       2.0      13.2       0.3      11.9      15.8
12 O  pz              0.0       0.0       0.1       0.0       0.1       0.2
12 O  px              1.3       0.1       0.5       0.0       0.3       0.3
12 O  py              0.6       0.0       0.2       0.0       0.1       0.1
13 O  s               2.1      49.3       2.9       3.1       0.0       1.9
13 O  pz              0.1       0.7       0.0       0.0       0.0       0.0
13 O  px              0.0       0.1       0.0       0.0       0.0       0.0
13 O  py              0.1       1.7       0.1       0.1       0.0       0.1
14 O  s               1.2       2.2      15.3      19.1      19.7       0.0
14 O  pz              0.1       0.2       0.7       0.8       0.6       0.0
14 O  py              0.0       0.0       0.3       0.3       0.4       0.0
15 O  s               0.5       2.3       2.7       3.5      18.1      30.0
15 O  pz              0.1       0.1       0.2       0.2       0.7       1.1
15 O  px              0.0       0.1       0.0       0.0       0.3       0.5
15 O  py              0.0       0.0       0.0       0.0       0.1       0.2
16 O  s               0.5       0.0      20.2      33.6       2.1       2.5
16 O  pz              0.0       0.0       0.9       1.4       0.0       0.1
16 O  py              0.0       0.0       0.3       0.5       0.1       0.1
17 H  s               0.1       0.0       0.5       0.6       0.0       0.0
18 H  s               0.1       0.0       0.5       0.7       0.0       0.0
19 H  s               3.5       0.5       2.6       0.1       2.2       3.0
20 H  s               0.5       9.8       0.6       0.7       0.0       0.4
21 H  s               0.6       0.4       4.0       3.0       3.6       0.0
22 H  s               0.2       1.5       0.4       0.6       3.5       5.7
23 H  s               0.1       0.0       4.6       6.2       0.6       0.5

                     18        19        20        21        22        23   
                  -0.70293  -0.69771  -0.62597  -0.60488  -0.57485  -0.53888
                   2.00000   2.00000   2.00000   2.00000   2.00000   2.00000
                  --------  --------  --------  --------  --------  --------
 0 C  s               9.1       0.3      14.0       0.7       6.2       0.9
 0 C  pz              2.9       0.1       0.9       0.2       0.2       0.1
 0 C  px              2.5       0.2       0.1       0.0       3.1       1.3
 0 C  py              0.0       0.1       0.7       0.9       0.4       0.0
 1 C  s              20.0       0.4       0.4       0.7       4.5       2.2
 1 C  pz              0.0       0.1       0.0       1.6       0.3       0.4
 1 C  px              2.2       0.2       5.0       0.1       1.7       0.4
 1 C  py              0.9       1.8       1.9       5.1       0.1       2.9
 1 C  dxz             0.0       0.0       0.1       0.0       0.0       0.0
 1 C  dx2y2           0.0       0.0       0.1       0.0       0.0       0.0
 2 H  s               3.7       0.1       0.4       0.5       1.7       1.7
 3 C  s               8.5       2.9       6.5       5.9       0.6       2.2
 3 C  pz              1.2       2.2       1.7       0.1       0.9       0.7
 3 C  px              0.9       1.3       0.0       3.0       0.1       1.5
 3 C  py              2.7       0.0       0.4       0.6       4.1       0.4
 3 C  dxz             0.0       0.1       0.0       0.0       0.0       0.0
 4 H  s               2.1       0.5       2.1       2.6       0.7       1.7
 5 C  s               1.3      12.6       2.8       3.9       3.8       2.8
 5 C  pz              0.9       3.1       1.2       0.1       0.1       1.2
 5 C  px              0.9       1.7       2.6       4.4       1.5       0.0
 5 C  py              0.0       0.6       0.6       0.4       3.1       3.0
 5 C  dz2             0.0       0.1       0.0       0.0       0.0       0.0
 6 H  s               0.2       2.6       0.9       2.2       2.3       2.5
 7 C  s               0.1      16.6       3.8       1.2       4.4       1.7
 7 C  pz              0.0       0.4       0.0       0.9       0.1       0.5
 7 C  px              0.0       3.9       0.2       0.2       0.6       0.1
 7 C  py              0.8       0.0       2.6       7.0       0.2       0.1
 8 H  s               0.0       3.0       1.3       0.5       1.8       1.1
 9 C  s               3.5       4.5       4.6       8.5       0.9       0.7
 9 C  pz              0.0       0.0       0.3       2.3       0.1       6.8
 9 C  px              1.3       0.3       1.5       0.5       1.9       3.4
 9 C  py              0.0       4.8       1.2       0.0       3.1       2.1
 9 C  dxy             0.1       0.0       0.0       0.0       0.0       0.2
10 H  s               0.5       0.8       1.7       4.5       0.1       3.7
11 O  s               1.9       1.8       1.0       2.2       0.4       0.5
11 O  pz              0.3       0.0       0.0       0.4       0.4       4.0
11 O  px              8.4       1.9       0.1       3.7       8.4       5.5
11 O  py              0.7       0.1       0.0       0.1       2.0       0.0
12 O  s               1.8       0.9       0.7       0.9       0.4       0.4
12 O  pz              0.6       0.6       2.5       7.0       0.9       9.8
12 O  px              0.3       0.0       0.0       0.2       0.9       0.1
12 O  py              0.4       0.8       1.9       3.3       0.1       1.3
13 O  s               0.0       3.9       0.8       0.0       0.5       0.0
13 O  pz              0.0       2.3       0.6       1.0       2.6       1.3
13 O  px              0.0       4.3       1.2       2.2       3.6       0.2
13 O  py              0.0       0.1       0.2       0.7       0.1       0.0
14 O  s               0.6       4.4       0.8       0.3       0.1       0.0
14 O  pz              0.2       1.6       0.9       1.0       2.6       3.1
14 O  px              0.0       0.7       0.0       1.3       0.7       1.4
14 O  py              0.1       0.9       0.6       1.0       3.5       5.9
15 O  s               2.7       2.1       1.3       0.6       0.1       0.0
15 O  pz              0.8       0.5       1.7       1.5       0.4       2.1
15 O  px              1.1       0.2       1.2       3.4       0.1       4.5
15 O  py              0.1       0.0       0.0       0.3       0.2       0.0
16 O  s               2.8       0.1       1.5       0.0       0.4       0.2
16 O  pz              1.2       0.0       3.6       0.4       4.2       1.2
16 O  px              0.0       0.0       0.0       0.0       0.3       0.0
16 O  py              1.0       0.1       4.0       0.9       5.0       1.3
16 O  dz2             0.0       0.0       0.1       0.0       0.1       0.0
17 H  s               2.0       0.0       3.8       0.0       2.6       0.7
18 H  s               1.9       0.1       4.7       0.6       2.9       0.3
19 H  s               0.7       0.6       1.5       3.4       0.4       2.9
20 H  s               0.0       3.0       0.7       1.0       1.7       0.2
21 H  s               0.3       2.0       0.4       0.8       2.1       2.9
22 H  s               1.3       0.6       1.1       1.8       0.1       1.9
23 H  s               1.2       0.0       2.6       0.5       2.6       0.7

                     24        25        26        27        28        29   
                  -0.50656  -0.50127  -0.49944  -0.47706  -0.44734  -0.44416
                   2.00000   2.00000   2.00000   2.00000   2.00000   2.00000
                  --------  --------  --------  --------  --------  --------
 0 C  s               0.1       0.1       0.2       0.4       0.1       1.0
 0 C  pz              0.3       5.2       3.2       7.1       0.1       6.6
 0 C  px              0.2       0.1       0.6       1.0       0.0       1.7
 0 C  py              0.1       0.5       1.2       2.5       1.0       3.4
 0 C  dz2             0.0       0.0       0.0       0.3       0.0       0.2
 1 C  s               0.3       0.4       1.1       0.0       0.5       1.0
 1 C  pz              0.1       7.3       5.7       5.0       3.6       0.0
 1 C  px              0.2       2.5       0.2       6.1       0.1       0.2
 1 C  py              0.1       0.3       1.9       0.4       0.1       9.3
 1 C  dyz             0.0       0.0       0.2       0.0       0.0       0.0
 2 H  s               0.2       3.2       2.7       1.8       2.4       0.0
 3 C  s               0.2       0.1       0.9       0.0       0.0       0.1
 3 C  pz              1.5       4.2       0.4       6.3       1.5       0.2
 3 C  px              1.6       3.4       0.6       0.5       4.6       4.1
 3 C  py              0.0       0.6       7.0       0.2       2.1       8.1
 4 H  s               0.0       0.5       1.8       1.0       3.8       0.0
 5 C  s               0.1       0.1       0.1       0.1       1.0       0.6
 5 C  pz              6.9       1.9       0.1       1.1       3.7       4.0
 5 C  px              0.6       2.4       0.0       0.4       6.0       0.0
 5 C  py              0.0       4.2       1.5       0.0       0.9       0.4
 5 C  dz2             0.0       0.0       0.0       0.1       0.1       0.0
 6 H  s               0.0       1.0       0.2       0.0       0.4       0.9
 7 C  s               1.6       0.1       0.3       0.0       0.1       0.1
 7 C  pz             15.7       0.2       0.1       0.3       5.4       0.1
 7 C  px              1.5       2.3       4.8       0.0       2.2       1.4
 7 C  py              3.7       5.4       0.3       0.0       5.9       1.3
 7 C  dyz             0.2       0.1       0.0       0.0       0.0       0.1
 7 C  dxy             0.0       0.0       0.0       0.0       0.2       0.0
 8 H  s               7.9       0.1       0.9       0.0       0.2       0.1
 9 C  s               0.0       0.0       0.2       0.1       0.5       0.2
 9 C  pz              4.9       0.1       0.0       5.8       2.7       2.2
 9 C  px              0.5       2.0       6.7       0.6       0.2       0.2
 9 C  py              1.1       4.0       2.0       1.1       6.2       2.4
 9 C  dxy             0.0       0.1       0.1       0.0       0.2       0.0
10 H  s               1.6       0.0       0.1       2.2       1.6       1.3
11 O  s               0.1       0.3       2.5       0.8       0.1       0.0
11 O  pz              0.3       0.6       0.8       6.7       0.0       0.7
11 O  px              0.1       3.4      11.6       0.0       0.6       2.1
11 O  py              0.0       5.4       0.6       0.3       0.4       0.1
12 O  s               0.3       0.1       0.2       0.2       0.0       0.0
12 O  pz              0.3       0.0       8.8       2.6       6.1       1.3
12 O  px              0.0       1.0       0.3       0.6       1.0       1.0
12 O  py              0.9       0.2       3.0       3.3       1.7       0.9
13 O  s               0.9       0.1       0.1       0.1       0.3       0.6
13 O  pz              0.7       5.3       3.8       0.0       1.0       1.4
13 O  px             20.1       5.4       0.8       0.0       3.3       2.4
13 O  py              1.3       0.8       0.0       0.5       4.0       1.3
13 O  dxy             0.1       0.0       0.0       0.0       0.0       0.0
14 O  s               0.1       0.8       0.0       0.7       0.3       0.0
14 O  pz              2.4       0.2       0.4       0.0       2.6       1.7
14 O  px              3.8       0.5       0.2       1.2       0.1       1.4
14 O  py              3.1       2.3       0.0       1.3       9.0       2.1
15 O  s               1.1       0.0       0.1       0.0       0.4       0.1
15 O  pz              0.1       0.5       3.0       2.6       1.3       4.0
15 O  px              2.2       4.7       5.8       6.9       0.1       1.2
15 O  py              0.0       0.0       0.4       1.1       1.2       0.5
16 O  s               0.0       0.0       0.0       1.6       0.4       0.1
16 O  pz              0.3       1.5       0.2       1.0       0.3       4.6
16 O  px              0.0       0.1       0.2       0.7       0.0       0.2
16 O  py              0.8       5.5       2.3      11.8       1.0       6.4
17 H  s               0.0       1.3       1.6       1.8       0.3       2.6
18 H  s               0.1       0.0       0.1       0.2       0.1       3.6
19 H  s               0.0       0.0       3.3       1.5       2.1       0.6
20 H  s               5.7       2.8       0.7       0.0       0.8       1.4
21 H  s               2.3       0.5       0.2       0.8       2.8       1.3
22 H  s               0.8       1.2       2.3       3.0       0.3       1.1
23 H  s               0.3       2.1       0.6       3.5       0.2       3.1

                     30        31        32        33        34        35   
                  -0.40913  -0.40676  -0.39906  -0.38519  -0.36711  -0.35363
                   2.00000   2.00000   2.00000   2.00000   2.00000   2.00000
                  --------  --------  --------  --------  --------  --------
 0 C  s               0.4       0.0       0.1       0.0       0.3       0.4
 0 C  pz              1.1       0.3       0.4       0.3       0.0       0.8
 0 C  px             10.8       2.6      14.3       0.5       2.6       0.1
 0 C  py              5.8       5.8       4.2       9.7       0.7       9.1
 0 C  dz2             0.0       0.0       0.0       0.1       0.0       0.3
 0 C  dxz             0.1       0.0       0.0       0.0       0.0       0.1
 0 C  dxy             0.1       0.0       0.0       0.0       0.0       0.2
 1 C  s               0.9       0.1       0.0       0.4       0.0       0.0
 1 C  pz              2.6       0.0       4.5       0.4       1.0       6.5
 1 C  px              3.0       1.4       6.1       0.4       1.6       0.4
 1 C  py              1.4       0.4       0.0       0.1       0.7       8.3
 1 C  dz2             0.1       0.0       0.0       0.0       0.0       0.2
 1 C  dxz             0.1       0.0       0.1       0.0       0.1       0.0
 1 C  dyz             0.1       0.0       0.0       0.0       0.0       0.1
 1 C  dxy             0.1       0.2       0.0       0.0       0.2       0.2
 2 H  s               3.9       0.2       1.4       0.3       0.6       7.1
 3 C  s               0.2       0.2       0.8       0.2       0.1       0.2
 3 C  pz              2.9       2.5       1.8       0.8       0.6       0.3
 3 C  px              0.3       0.7       2.0       1.6      12.4       0.3
 3 C  py              1.9       0.2       0.4       0.0       3.6       5.8
 3 C  dz2             0.1       0.1       0.0       0.0       0.2       0.0
 3 C  dyz             0.1       0.0       0.1       0.0       0.0       0.0
 3 C  dxy             0.0       0.0       0.0       0.1       0.2       0.0
 4 H  s               1.4       1.6       0.1       1.2      10.7       0.4
 5 C  s               0.1       0.1       0.2       0.1       0.3       0.4
 5 C  pz              1.3       0.9       0.1       1.6       0.2       0.2
 5 C  px              1.0       0.3       9.5       0.3       1.8       1.6
 5 C  py              5.1       0.6       0.1      17.1       0.1       4.7
 5 C  dz2             0.1       0.2       0.1       0.0       0.1       0.0
 5 C  dxz             0.0       0.1       0.0       0.0       0.0       0.0
 5 C  dx2y2           0.0       0.0       0.1       0.2       0.0       0.0
 6 H  s               1.9       0.5       1.3       9.3       0.2       3.0
 7 C  s               0.1       0.4       0.0       0.1       0.0       0.2
 7 C  pz              0.1       6.9       0.1       1.1       1.0       0.2
 7 C  px              1.9       4.7       7.5       0.2       3.2       0.8
 7 C  py              0.9       2.3       0.5       2.4       0.2       0.4
 7 C  dxz             0.1       0.1       0.0       0.0       0.0       0.0
 7 C  dyz             0.0       0.0       0.1       0.0       0.0       0.0
 7 C  dx2y2           0.0       0.1       0.0       0.2       0.2       0.0
 8 H  s               1.0       7.5       1.1       0.3       0.0       0.3
 9 C  s               0.4       0.1       0.8       0.1       0.1       0.2
 9 C  pz              0.2       8.7       3.7       4.2       1.1       0.4
 9 C  px              0.4       1.0       0.2       0.8       0.1       0.7
 9 C  py              0.0       2.2       0.2       2.3       1.5       0.0
 9 C  dz2             0.1       0.0       0.2       0.0       0.0       0.0
 9 C  dxy             0.3       0.0       0.0       0.0       0.1       0.1
10 H  s               0.1       3.5       3.8       2.0       0.5       0.3
11 O  s               0.4       0.0       0.1       0.0       0.2       0.4
11 O  pz              0.0       6.4       0.8       0.0       2.6       0.2
11 O  px              1.8       0.0       0.0       0.0       0.2       1.6
11 O  py              3.6       0.0       0.0       1.8       3.3       9.4
12 O  s               1.7       0.4       0.0       0.1       0.2       0.2
12 O  pz              3.5       0.3       0.3       1.0       0.0       0.2
12 O  px              2.3       0.8       0.1       0.1       1.5       0.6
12 O  py              0.1       4.8       2.2       4.8       1.4       0.5
13 O  s               0.4       1.2       0.1       0.1       3.1       0.0
13 O  pz              0.2       2.6       4.5       0.2       9.8       0.7
13 O  px              0.3       5.3       0.1       0.0       1.6       0.5
13 O  py              0.6       0.0       0.7       0.4      13.1       0.8
14 O  s               0.0       0.0       0.1       1.9       0.0       0.8
14 O  pz              1.2       2.2       0.8      11.2       1.5       6.8
14 O  px              2.7       0.7       1.3       1.0       0.4       0.0
14 O  py              0.0       2.2       0.9       2.8       0.1       3.9
15 O  s               0.2       0.0       0.4       0.4       0.0       0.0
15 O  pz              0.8       1.6       0.0       1.3       3.2       0.2
15 O  px              3.6       2.8       3.6       0.3       0.1       0.0
15 O  py              0.9       0.7       0.4       0.2       3.7       1.4
16 O  s               0.9       0.4       0.5       0.2       0.3       0.1
16 O  pz              1.8       4.1       2.3       5.8       0.7       7.9
16 O  px              2.9       0.4       6.9       0.2       2.5       0.5
16 O  py              4.2       0.0       0.2       0.1       0.9       0.1
17 H  s               9.3       1.6       1.9       0.9       0.1       0.2
18 H  s               0.6       1.8       3.2       5.2       0.3       7.3
19 H  s               0.9       0.1       0.5       0.0       0.2       0.0
20 H  s               0.1       0.7       0.2       0.0       0.6       0.0
21 H  s               0.6       0.8       0.4       0.1       0.0       0.3
22 H  s               1.0       0.7       0.5       0.0       1.3       0.0
23 H  s               0.3       0.2       0.1       0.3       0.1       0.5

                     36        37        38        39        40        41   
                  -0.33817  -0.33523  -0.32307  -0.30967  -0.29465  -0.28221
                   2.00000   2.00000   2.00000   2.00000   2.00000   2.00000
                  --------  --------  --------  --------  --------  --------
 0 C  s               0.2       0.4       0.1       0.0       0.0       0.0
 0 C  pz              0.1       0.1       0.1       0.2       4.6       0.4
 0 C  px              0.8       1.2       2.4       0.3       0.4       0.0
 0 C  py              0.0       0.0       0.0       0.4       5.2       1.1
 0 C  dz2             0.0       0.0       0.0       0.0       0.1       0.0
 0 C  dyz             0.0       0.1       0.0       0.0       0.3       0.0
 0 C  dx2y2           0.0       0.0       0.0       0.0       0.5       0.1
 1 C  s               0.1       0.2       0.0       0.1       0.6       0.0
[...]
 5 C  dxz             0.2       2.1       0.0       0.0       2.2       0.0
 5 C  dyz             0.0       0.0       0.0       0.2       0.7       0.0
 5 C  dx2y2           0.0       0.2       0.1       0.1       0.0       0.0
 5 C  dxy             0.0       0.0       0.0       0.0       0.1       0.0
 6 H  s               0.0       0.0       0.0       0.0       0.1       0.0
 7 C  s               0.1       1.5       0.0       0.3       0.5       0.1
 7 C  pz              0.1       1.2       0.0       0.4       0.7       0.0
 7 C  px              0.0       0.5       0.0       0.2       0.2       0.0
 7 C  py              0.0       0.4       0.1       0.1       0.1       0.1
 7 C  dz2             0.2       1.1       0.0       0.6       0.2       0.0
 7 C  dxz             0.2       4.3       0.0       0.4       0.5       0.2
 7 C  dyz             0.0       1.4       0.1       0.8       1.4       0.1
 7 C  dx2y2           0.0       0.2       0.3       0.0       0.0       0.0
 7 C  dxy             0.1       1.4       0.0       0.4       0.6       0.0
 9 C  s               0.1       0.0       2.4       0.1       0.0       0.4
 9 C  pz              0.0       0.0       0.3       0.0       0.0       0.0
 9 C  px              0.0       0.0       0.4       0.0       0.1       3.5
 9 C  py              0.1       0.0       1.1       0.0       0.1       0.3
 9 C  dz2             0.0       0.2       1.1       0.2       0.0       0.3
 9 C  dxz             0.0       0.0       2.2       0.2       0.1       2.1
 9 C  dyz             0.3       0.0       0.4       0.0       0.0       0.8
 9 C  dx2y2           0.0       0.0       0.5       0.0       0.0       5.1
 9 C  dxy             0.0       0.4       6.8       0.0       0.5       1.2
11 O  s               0.1       0.0       0.7       0.0       0.0       0.0
11 O  px              0.0       0.0       0.8       0.0       0.1       5.7
11 O  py              0.0       0.0       0.0       0.0       0.1       0.3
11 O  dz2             0.2       0.1       0.9       0.0       0.0       2.1
11 O  dxz             0.3       0.3       7.8       1.2       0.2      18.8
11 O  dyz             0.1       0.0       0.1       0.0       0.0       3.5
11 O  dx2y2           1.0       0.5       1.3       0.1       1.3      11.4
11 O  dxy             0.4       0.2      13.8       0.1       0.1      15.5
12 O  s               0.1       0.0       2.8       0.1       0.0       1.2
12 O  pz              0.0       0.0       1.1       0.1       0.0       0.3
12 O  px              0.0       0.0       0.4       0.0       0.0       0.3
12 O  py              0.0       0.0       1.6       0.0       0.0       0.4
12 O  dz2             0.3       0.3       1.8       0.1       0.0       2.0
12 O  dxz             0.3       0.1       7.3       0.3       0.1       2.8
12 O  dyz             0.2       0.0      12.5       0.3       0.2       1.6
12 O  dx2y2           0.0       0.0       5.1       0.2       0.1       0.4
12 O  dxy             1.3       0.0      15.8       0.2       0.3       7.4
13 O  s               0.1       2.5       0.0       1.0       1.3       0.1
13 O  pz              0.1       1.5       0.0       0.2       0.5       0.1
13 O  px              0.1       1.2       0.0       0.6       0.4       0.0
13 O  py              0.0       0.2       0.0       0.0       0.0       0.0
13 O  dz2             0.2       5.7       0.0       0.9       1.2       0.0
13 O  dxz             0.7      13.2       0.0       3.9       5.9       0.5
13 O  dyz             0.8      13.5       0.0       2.4       1.9       0.3
13 O  dx2y2           0.0       0.0       0.1       0.1       0.6       0.0
13 O  dxy             0.7       8.2       0.0       2.2       1.6       0.0
14 O  s               0.0       0.7       0.0       0.7       4.0       0.0
14 O  pz              0.0       1.0       0.0       0.4       2.1       0.0
14 O  px              0.0       0.2       0.0       0.2       0.4       0.0
14 O  py              0.0       0.4       0.0       0.1       0.2       0.0
14 O  dz2             0.5      16.5       0.0       3.1      25.4       0.2
14 O  dxz             0.0       3.7       0.0       6.3       8.1       0.1
14 O  dyz             0.1       2.6       0.0       0.2       0.4       0.0
14 O  dx2y2           0.0       0.3       0.0       0.4       0.2       0.0
15 O  s               0.1       0.1       0.1       2.6       1.6       0.0
15 O  pz              0.1       0.1       0.1       2.0       1.1       0.0
15 O  px              0.0       0.1       0.1       1.1       0.2       0.0
15 O  py              0.0       0.0       0.0       0.2       0.1       0.0
15 O  dz2             1.0       0.5       1.3      22.9      12.2       0.0
15 O  dxz             0.3       1.3       0.4       8.8       1.4       0.0
15 O  dyz             0.2       0.6       0.6       9.7       3.4       0.1
15 O  dx2y2           0.1       0.0       0.2       1.0       0.0       0.1
15 O  dxy             0.0       0.1       0.3       1.1       0.1       0.0
16 O  s               3.4       0.1       0.1       0.2       0.0       0.0
16 O  pz              3.0       0.1       0.0       0.2       0.0       0.0
16 O  py              1.2       0.0       0.0       0.0       0.0       0.0
16 O  dz2            49.4       1.3       0.1       1.8       0.2       0.5
16 O  dxz             1.1       0.0       0.1       0.1       0.1       0.0
16 O  dyz            12.7       0.4       0.1       0.4       0.0       0.1
16 O  dxy             0.3       0.0       0.0       0.0       0.0       0.0
19 H  s               0.0       0.0       0.3       0.0       0.0       0.2
20 H  s               0.0       0.5       0.0       0.1       0.1       0.0
21 H  s               0.0       0.3       0.0       0.1       0.3       0.0
22 H  s               0.0       0.1       0.1       0.7       0.2       0.0
23 H  s               0.7       0.0       0.0       0.0       0.0       0.0



                      *****************************
                      * MAYER POPULATION ANALYSIS *
                      *****************************

  NA   - Mulliken gross atomic population
  ZA   - Total nuclear charge
  QA   - Mulliken gross atomic charge
  VA   - Mayer's total valence
  BVA  - Mayer's bonded valence
  FA   - Mayer's free valence

  ATOM       NA         ZA         QA         VA         BVA        FA
  0 C      5.9342     6.0000     0.0658     3.9972     3.9972     0.0000
  1 C      5.9838     6.0000     0.0162     3.9038     3.9038    -0.0000
  2 H      0.9254     1.0000     0.0746     0.9850     0.9850    -0.0000
  3 C      6.0097     6.0000    -0.0097     4.0310     4.0310    -0.0000
  4 H      0.9305     1.0000     0.0695     0.9711     0.9711    -0.0000
  5 C      5.9559     6.0000     0.0441     4.0448     4.0448    -0.0000
  6 H      0.9094     1.0000     0.0906     0.9701     0.9701    -0.0000
  7 C      5.9751     6.0000     0.0249     3.8869     3.8869    -0.0000
  8 H      0.9301     1.0000     0.0699     0.9918     0.9918    -0.0000
  9 C      5.8075     6.0000     0.1925     4.1286     4.1286    -0.0000
 10 H      0.9512     1.0000     0.0488     0.9900     0.9900    -0.0000
 11 O      8.3071     8.0000    -0.3071     2.1535     2.1535    -0.0000
 12 O      8.3890     8.0000    -0.3890     2.0253     2.0253     0.0000
 13 O      8.4199     8.0000    -0.4199     2.0359     2.0359    -0.0000
 14 O      8.4271     8.0000    -0.4271     2.0185     2.0185    -0.0000
 15 O      8.4220     8.0000    -0.4220     2.0272     2.0272    -0.0000
 16 O      8.4344     8.0000    -0.4344     2.0572     2.0572     0.0000
 17 H      0.9090     1.0000     0.0910     0.9465     0.9465    -0.0000
 18 H      0.9038     1.0000     0.0962     0.9648     0.9648     0.0000
 19 H      0.6944     1.0000     0.3056     0.8974     0.8974     0.0000
 20 H      0.6828     1.0000     0.3172     0.8738     0.8738    -0.0000
 21 H      0.7024     1.0000     0.2976     0.9509     0.9509    -0.0000
 22 H      0.6949     1.0000     0.3051     0.9329     0.9329    -0.0000
 23 H      0.7003     1.0000     0.2997     0.9135     0.9135     0.0000

  Mayer bond orders larger than 0.100000
B(  0-C ,  1-C ) :   1.0231 B(  0-C , 16-O ) :   1.0864 B(  0-C , 17-H ) :   0.9206 
B(  0-C , 18-H ) :   0.9156 B(  1-C ,  2-H ) :   0.8747 B(  1-C ,  3-C ) :   0.9275 
B(  1-C , 11-O ) :   0.9675 B(  3-C ,  4-H ) :   0.9024 B(  3-C ,  5-C ) :   1.0063 
B(  3-C , 15-O ) :   1.0908 B(  5-C ,  6-H ) :   0.8893 B(  5-C ,  7-C ) :   0.9754 
B(  5-C , 14-O ) :   1.0578 B(  7-C ,  8-H ) :   0.8857 B(  7-C ,  9-C ) :   0.9628 
B(  7-C , 13-O ) :   1.0186 B(  9-C , 10-H ) :   0.8729 B(  9-C , 11-O ) :   1.0490 
B(  9-C , 12-O ) :   1.1270 B( 12-O , 19-H ) :   0.8420 B( 13-O , 20-H ) :   0.8394 
B( 13-O , 22-H ) :   0.1050 B( 14-O , 21-H ) :   0.7969 B( 15-O , 22-H ) :   0.8076 
B( 16-O , 23-H ) :   0.8218 

-------
TIMINGS
-------

Total SCF time: 0 days 0 hours 0 min 6 sec 

Total time                  ....       6.705 sec
Sum of individual times     ....       6.544 sec  ( 97.6%)

SCF preparation             ....       0.063 sec  (  0.9%)
Fock matrix formation       ....       6.201 sec  ( 92.5%)
  Startup                   ....       0.007 sec  (  0.1% of F)
  Split-RI-J                ....       3.032 sec  ( 48.9% of F)
  XC integration            ....       2.866 sec  ( 46.2% of F)
    XC Preparation          ....       0.000 sec  (  0.0% of XC)
    Basis function eval.    ....       1.097 sec  ( 38.3% of XC)
    Density eval.           ....       0.607 sec  ( 21.2% of XC)
    XC-Functional eval.     ....       0.161 sec  (  5.6% of XC)
    XC-Potential eval.      ....       0.633 sec  ( 22.1% of XC)
Diagonalization             ....       0.000 sec  (  0.0%)
Density matrix formation    ....       0.094 sec  (  1.4%)
Total Energy calculation    ....       0.002 sec  (  0.0%)
Population analysis         ....       0.064 sec  (  1.0%)
Orbital Transformation      ....       0.017 sec  (  0.3%)
Orbital Orthonormalization  ....       0.000 sec  (  0.0%)
DIIS solution               ....       0.081 sec  (  1.2%)
  MO trafo                  ....       0.000 sec  (  0.0 % of DIIS)
  Orb grad                  ....       0.000 sec  (  0.0 % of DIIS)
  Energy W gradient         ....       0.000 sec  (  0.0 % of DIIS)
  DIIS error                ....       0.005 sec  (  6.4 % of DIIS)
  DIIS work                 ....       0.066 sec  ( 81.6 % of DIIS)
  Form Q                    ....       0.000 sec  (  0.0 % of DIIS)
  Form QpQm                 ....       0.000 sec  (  0.0 % of DIIS)
  Exp/Cayley                ....       0.000 sec  (  0.0 % of DIIS)
  Orb update                ....       0.000 sec  (  0.0 % of DIIS)
  Wake-sleep                ....       0.001 sec  (  1.3 % of DIIS)
SOSCF solution              ....       0.022 sec  (  0.3%)
  MO trafo                  ....       0.013 sec  ( 62.0 % of SOSCF)
  Orb grad                  ....       0.000 sec  (  0.8 % of SOSCF)
  Rot update                ....       0.002 sec  (  7.6 % of SOSCF)
  Step                      ....       0.006 sec  ( 29.3 % of SOSCF)
Finished LeanSCF after   7.1 sec

Maximum memory used throughout the entire LEANSCF-calculation: 19.2 MB


-------------------------------------------------------------------------------
                          DFT DISPERSION CORRECTION                            
                                                                               
                                DFTD4 V3.4.0                                   
-------------------------------------------------------------------------------
The PBE functional is recognized
Active option DFTDOPT                   ...         5   

-------------------------   ----------------
Dispersion correction           -0.025561240
-------------------------   ----------------

------------------   -----------------
gCP correction             0.160163528
------------------   -----------------

-------------------------   --------------------
FINAL SINGLE POINT ENERGY      -685.691883824181
-------------------------   --------------------


------------------------------------------------------------------------------
                              ORCA PROPERTY CALCULATIONS
------------------------------------------------------------------------------

GBWName                                 ... sp.gbw
Number of atoms                         ...     24
Number of basis functions               ...    192
Max core memory                         ...   1024 MB

Electric properties:
Dipole moment                           ... YES
Quadrupole moment                       ...  NO
Static polarizability (Dipole/Dipole)   ...  NO
Static polarizability (Dipole/Quad.)    ...  NO
Static polarizability (Quad./Quad.)     ...  NO
Static polarizability (Velocity)        ...  NO

Atomic electric properties:
Dipole moment                           ...  NO
Quadrupole moment                       ...  NO
Static polarizability                   ...  NO

Choice of electric origin               ... Center of mass
Position of electric origin             ...    -0.000007     0.000001     0.000004

General magnetic properties:
Magnetizability                         ...  NO

EPR properties:
g-Tensor (aka g-matrix)                 ...  NO
Zero-Field splitting spin-orbit         ...  NO
Zero-field splitting spin-spin          ...  NO
Hyperfine couplings                     ...  NO (   0 nuclei)
Quadrupole couplings                    ...  NO (   0 nuclei)
Contact density                         ...  NO (   0 nuclei)

NMR properties:
Chemical shifts                         ...  NO (   0 nuclei)
Spin-rotation constants                 ...  NO (   0 nuclei)
Spin-spin couplings                     ...  NO (   0 nuclei,    0 pairs)

Choice of magnetic origin               ... GIAO
Position of magnetic origin             ...     0.000000     0.000000     0.000000

Properties with geometric perturbations:
SCF Hessian                             ...  NO
IR spectrum                             ...  NO
VCD spectrum                            ...  NO
X-ray spectroscopy properties:
SCF XES/XAS/RIXS spectra                ...  NO


-------------
DIPOLE MOMENT
-------------

Method             : SCF
Type of density    : Electron Density
Multiplicity       :   1
Irrep              :   0
Energy             :  -685.8264861120203477 Eh
Relativity type    : 
Basis              : AO
                                X                 Y                 Z
Electronic contribution:      2.443517339      -0.624929183      -0.933907556
Nuclear contribution   :     -1.959559165       0.368731465       1.075099073
                        -----------------------------------------
Total Dipole Moment    :      0.483958173      -0.256197717       0.141191518
                        -----------------------------------------
Magnitude (a.u.)       :      0.565497859
Magnitude (Debye)      :      1.437381327



--------------------
Rotational spectrum 
--------------------
 
Rotational constants in cm-1:             0.041772             0.027625             0.023439 
Rotational constants in MHz :          1252.288847           828.186295           702.681292 

Dipole components along the rotational axes: 
x,y,z [a.u.] :    -0.487541     0.245239    -0.148154 
x,y,z [Debye]:    -1.239231     0.623347    -0.376577 

 

Dipole moment calculation done in   0.0 sec 

Maximum memory used throughout the entire PROP-calculation: 12.7 MB

--------------------------------
SUGGESTED CITATIONS FOR THIS RUN
--------------------------------

Below you find a list of papers that are relevant to this ORCA run
We neither can nor want to force you to cite these papers, but we appreciate if you do
You receive ORCA, which is the product of decades of hard work by many enthusiastic individuals, for free
The only thing we kindly ask in return is that you cite our papers,
We deeply appreciate it, if you show your appreciation for ORCA by not just citing the generic ORCA reference.

Please note that relegating all ORCA citations to the supporting information does *not* help us.
SI sections are not indexed - citations you put there will not count into any citation statistics
But we need these citations in order to attract the funding resources that allow us to do what we are doing

Therefore, if you are a happy ORCA user, please consider citing a few of the papers listed below in the main body of your paper

In addition to the list printed below, the program has created the file sp.bibtex that contains the list in bibtex format
You can import this file easily into all common literature databanks and citation aid programs


List of essential papers. We consider these as the minimum necessary citations

  1. Neese,F.
     Software update: the ORCA program system, version 5.0
     WIRES Comput. Molec. Sci., 2022 12(1)e1606
     doi.org/10.1002/wcms.1606

List of papers to cite with high priority. The work reported in these papers was absolutely
necessary for this run to complete.
Our perspective: the developers of density functionals and basis sets usually get cited in chemistry papers
Good! But without the algorithms to do something with them, the functionals or basis sets would not do anything.
Hence, in our opinion, the algorithm design and method developments papers are equally worthy of getting cited

  1. Neese,F.
     An improvement of the resolution of the identity approximation for the formation of the Coulomb matrix
     J. Comp. Chem., 2003 24(14)1740-1747
     doi.org/10.1002/jcc.10318
  2. Neese,F.
     The SHARK Integral Generation and Digestion System
     J. Comp. Chem., 2022  1-16
     doi.org/10.1002/jcc.26942
  3. Caldeweyher,E.; Bannwarth,C.; Grimme,S.
     Extension of the D3 dispersion coefficient model
     J. Chem. Phys., 2017 147 034112
     doi.org/10.1063/1.4993215
  4. Caldeweyher,E.; Ehlert,S.; Hansen,A.; Neugebauer,H.; Spicher,S.; Bannwarth,C.; Grimme,S.
     A generally applicable atomic-charge dependent London dispersion correction
     J. Chem. Phys., 2019 150 154122
     doi.org/10.1063/1.5090222
  5. Caldeweyher,E.; Mewes,J.; Ehlert,S.; Grimme,S.
     Extension and evaluation of the D4 London-dispersion model for periodic systems
     Phys. Chem. Chem. Phys., 2020 22(16)8499-8512
     doi.org/10.1039/D0CP00502A
  6. Wittmann,L.; Gordiy,I.; Friede,M.; Helmich-Paris,B.; Grimme,S.; Hansen,A.; Bursch,M.
     Extension of the D3 and D4 London Dispersion Corrections to the full Actinides Series
     Phys. Chem. Chem. Phys., 2024 26(32)21379-21394
     doi.org/https://doi.org/10.1039/D4CP01514B 

List of suggested additional citations. These are papers that are important in the 'surrounding' of 
of this run, or papers that preceded the highly important papers. If you like your results we are grateful for a citation.

  1. Neese,F.
     The ORCA program system
     WIRES Comput. Molec. Sci., 2012 2(1)73-78
     doi.org/10.1002/wcms.81
  2. Neese,F.
     Software update: the ORCA program system, version 4.0
     WIRES Comput. Molec. Sci., 2018 8(1)1-6
     doi.org/10.1002/wcms.1327
  3. Neese,F.; Wennmohs,F.; Becker,U.; Riplinger,C.
     The ORCA quantum chemistry program package
     J. Chem. Phys., 2020 152 Art. No. L224108
     doi.org/10.1063/5.0004608

List of optional additional citations

  1. Neese,F.
     Approximate second-order SCF convergence for spin unrestricted wavefunctions
     Chem. Phys. Lett., 2000 325(1-3)93-98
     doi.org/10.1016/s0009-2614(00)00662-x

Timings for individual modules:

Sum of individual times          ...        8.753 sec (=   0.146 min)
Startup calculation              ...        0.812 sec (=   0.014 min)   9.3 %
SCF iterations                   ...        7.875 sec (=   0.131 min)  90.0 %
Property calculations            ...        0.066 sec (=   0.001 min)   0.8 %
                             ****ORCA TERMINATED NORMALLY****
TOTAL RUN TIME: 0 days 0 hours 0 minutes 8 seconds 988 msec
