
                                 *****************
                                 * O   R   C   A *
                                 *****************

                                            #,                                       
                                            ###                                      
                                            ####                                     
                                            #####                                    
                                            ######                                   
                                           ########,                                 
                                     ,,################,,,,,                         
                               ,,#################################,,                 
                          ,,##########################################,,             
                       ,#########################################, ''#####,          
                    ,#############################################,,   '####,        
                  ,##################################################,,,,####,       
                ,###########''''           ''''###############################       
              ,#####''   ,,,,##########,,,,          '''####'''          '####       
            ,##' ,,,,###########################,,,                        '##       
           ' ,,###''''                  '''############,,,                           
         ,,##''                                '''############,,,,        ,,,,,,###''
      ,#''                                            '''#######################'''  
     '                                                          ''''####''''         
             ,#######,   #######,   ,#######,      ##                                
            ,#'     '#,  ##    ##  ,#'     '#,    #''#        ,####,   ,####,        
            ##       ##  ##   ,#'  ##            #'  '#       #'       #'  '#        
            ##       ##  #######   ##           ,######,      #####,   #    #        
            '#,     ,#'  ##    ##  '#,     ,#' ,#      #,     #,   #   #,  ,#        
             '#######'   ##     ##  '#######'  #'      '#     '####' # '####'        



                #########################################################
                #                        -***-                          #
                #          Department of theory and spectroscopy        #
                #                                                       #
                #                      Frank Neese                      #
                #                                                       #
                #     Directorship, Architecture, Infrastructure        #
                #                    SHARK, DRIVERS                     #
                #        Core code/Algorithms in most modules           #
                #                                                       #
                #        Max Planck Institute fuer Kohlenforschung      #
                #                Kaiser Wilhelm Platz 1                 #
                #                 D-45470 Muelheim/Ruhr                 #
                #                      Germany                          #
                #                                                       #
                #                  All rights reserved                  #
                #                        -***-                          #
                #########################################################


                         Program Version 6.0.1  -  RELEASE   -


 With contributions from (in alphabetic order):
[Max-Planck-Institut fuer Kohlenforschung]                               
  Daniel Aravena         : Magnetic Suceptibility                        
  Michael Atanasov       : Ab Initio Ligand Field Theory (pilot matlab implementation)
  Alexander A. Auer      : GIAO ZORA, VPT2 properties, NMR spectrum      
  Ute Becker             : All parallelization in ORCA, NUMFREQ, NUMCALC 
  Giovanni Bistoni       : ED, misc. LED, open-shell LED, HFLD           
  Martin Brehm           : Molecular dynamics                            
  Dmytro Bykov           : pre 5.0 version of the SCF Hessian            
  Marcos Casanova-Páez   : Triplet and SCS-CIS(D). UHF-(DLPNO)-IP/EA/STEOM-CCSD. UHF-CVS-IP/STEOM-CCSD   
  Vijay G. Chilkuri      : MRCI spin determinant printing, contributions to CSF-ICE 
  Pauline Colinet        : FMM embedding                                 
  Dipayan Datta          : RHF DLPNO-CCSD density                        
  Achintya Kumar Dutta   : EOM-CC, STEOM-CC                              
  Nicolas Foglia         : Exact transition moments, OPA infrastructure, MCD improvements    
  Dmitry Ganyushin       : Spin-Orbit,Spin-Spin,Magnetic field MRCI      
  Miquel Garcia-Rates    : C-PCM and meta-GGA Hessian, CCSD/C-PCM, Gaussian charge scheme 
  Tiago L. C. Gouveia    : GS-ROHF, GS-ROCIS                             
  Yang Guo               : DLPNO-NEVPT2, F12-NEVPT2, CIM, IAO-localization        
  Andreas Hansen         : Spin unrestricted coupled pair/coupled cluster methods 
  Ingolf Harden          : AUTO-CI MPn and infrastructure                
  Benjamin Helmich-Paris : MC-RPA, TRAH-(SCF,CASSCF), AVAS, COSX integrals, SCF dyn. polar. 
  Lee Huntington         : MR-EOM, pCC                                   
  Robert Izsak           : Overlap fitted RIJCOSX, COSX-SCS-MP3, EOM     
  Riya Kayal             : Wick's Theorem for AUTO-CI, AUTO-CI UHF-CCSDT 
  Emily Kempfer          : AUTO-CI, RHF CISDT and CCSDT                  
  Christian Kollmar      : KDIIS, OOCD, Brueckner-CCSD(T), CCSD density, CASPT2, CASPT2-K, improved NEVPT2 
  Axel Koslowski         : Symmetry handling                             
  Simone Kossmann        : meta-GGA functionals, TD-DFT gradient, OOMP2, (MP2 Hessian; deprecated post 5.0) 
  Lucas Lang             : DCDCAS                                        
  Marvin Lechner         : AUTO-CI (C++ implementation), FIC-MRCC        
  Spencer Leger          : CASSCF response                               
  Dagmar Lenk            : GEPOL surface, SMD, ORCA-2-JSON               
  Dimitrios Liakos       : Extrapolation schemes; Compound Job, initial MDCI parallelization 
  Dimitrios Manganas     : Further ROCIS development; embedding schemes. LFT, Crystal Embedding 
  Dimitrios Pantazis     : SARC Basis sets                               
  Anastasios Papadopoulos: AUTO-CI, single reference methods and gradients 
  Taras Petrenko         : pre 6.0 DFT Hessian and TD-DFT gradient, (ASA, deprecated), ECA, 1-Electron XAS/XES, NRVS 
  Peter Pinski           : DLPNO-MP2, DLPNO-MP2 Gradient                 
  Christoph Reimann      : Effective Core Potentials                     
  Marius Retegan         : Local ZFS, SOC                                
  Christoph Riplinger    : Optimizer, TS searches, QM/MM, DLPNO-CCSD(T), (RO)-DLPNO pert. Triples 
  Michael Roemelt        : Original ROCIS implementation                 
  Masaaki Saitow         : Open-shell DLPNO-CCSD energy and density      
  Barbara Sandhoefer     : DKH picture change effects                    
  Kantharuban Sivalingam : CASSCF convergence/infrastructure, NEVPT2 and variants, FIC-MRCI 
  Bernardo de Souza      : ESD, SOC TD-DFT                               
  Georgi L. Stoychev     : AutoAux, RI-MP2 NMR, DLPNO-MP2 response, X2C  
  Van Anh Tran           : RI-MP2 g-tensors                              
  Willem Van den Heuvel  : Paramagnetic NMR                              
  Zikuan Wang            : NOTCH, Electric field optimization            
  Frank Wennmohs         : Technical directorship and infrastructure     
  Hang Xu                : AUTO-CI-Response properties                   
                                                                         
[FACCTs GmbH]                                                            
  Markus Bursch, Miquel Garcia-Rates, Christoph Riplinger, Bernardo de Souza, Georgi L. Stoychev 
                                                                 
  APM, Basis sets (HGBS, AHGBS, def-TZVP (Ac-Lr), def2-XVPD (La-Lu)), CI-OPT, improved COSX, DLPNO-Multilevel,           
  DOCKER, DRACO, updates on ESD, GOAT, IRC, LR-CPCM, MBIS, meta-GGA TD-DFT gradient, ML-optimized integration grids, 
  MM, NACMEs, nearIR, NEB, NEB-TS, NL-DFT gradient (VV10), 2- and 3-layer-ONIOM, interface openCOSMO-RS, QMMM,   
  Crystal-QMMM, SF, symmetry and pop. for TD-DFT, r2SCAN hybrids, SOLVATOR                                   
                                                                         
[Other institutions]                                                     
  V. Asgeirsson          : NEB                                           
  Christoph Bannwarth    : sTDA-DFT, sTD-DFT, PBEh-3c, B97-3c, D3        
  Sebastian Ehlert       : rSCAN, r2SCAN, r2SCAN-3c, D4, dhf basis sets  
  Marvin Friede          : D4 for Fr, Ra, Ac-Lr                          
  Lars Goerigk           : TD-DFT with DH, B97 family of functionals     
  Stefan Grimme          : VdW corrections, initial TS optimization, DFT functionals, gCP, sTDA/sTD-DF 
  Waldemar Hujo          : DFT-NL                                        
  H. Jonsson             : NEB                                           
  Holger Kruse           : gCP                                           
  Marcel Mueller         : wB97X-3c, vDZP basis set                      
  Hagen Neugebauer       : wr2SCAN                                       
  Tobias Risthaus        : range-separated hybrid DFT                    
  Lukas Wittmann         : regularized MP2, r2SCAN double-hybrids, wr2SCAN        
                                                                         
We gratefully acknowledge several colleagues who have allowed us to      
interface, adapt or use parts of their codes:                            
  Ed Valeev, F. Pavosevic, A. Kumar             : LibInt (2-el integral package), F12 methods 
  Garnet Chan, S. Sharma, J. Yang, R. Olivares  : DMRG                   
  Ulf Ekstrom                                   : XCFun DFT Library      
  Mihaly Kallay                                 : mrcc  (arbitrary order and MRCC methods)
  Frank Weinhold                                : gennbo (NPA and NBO analysis)           
  Simon Mueller                                 : openCOSMO-RS                            
  Christopher J. Cramer and Donald G. Truhlar   : smd solvation model                     
  S Lehtola, MJT Oliveira, MAL Marques          : LibXC Library                           
  Liviu Ungur et al                             : ANISO software                          


 Your calculation uses the libint2 library for the computation of 2-el integrals
 For citations please refer to: http://libint.valeyev.net

 Your ORCA version has been built with support for libXC version: 6.2.2
 For citations please refer to: https://libxc.gitlab.io

 This ORCA versions uses:
   CBLAS   interface :  Fast vector & matrix operations
   LAPACKE interface :  Fast linear algebra routines
   SCALAPACK package :  Parallel linear algebra routines
   Shared memory     :  Shared parallel matrices
   BLAS/LAPACK       :  OpenBLAS 0.3.27  USE64BITINT DYNAMIC_ARCH NO_AFFINITY Zen SINGLE_THREADED
        Core in use  :  Zen
   Copyright (c) 2011-2014, The OpenBLAS Project


Your calculation utilizes the geometrical counterpoise correction gCP
Please cite in your paper:
H.Kruse, S. Grimme J.Chem.Phys., 136, (2012), 154101 
   

Your calculation utilizes the atom-pairwise dispersion correction
based on EEQ partial charges (D4)


================================================================================

----- Orbital basis set information -----
Your calculation utilizes the basis: def2-SV(P)
   F. Weigend and R. Ahlrichs, Phys. Chem. Chem. Phys. 7, 3297 (2005).

----- AuxJ basis set information -----
Your calculation utilizes the auxiliary basis: def2/J
   F. Weigend, Phys. Chem. Chem. Phys. 8, 1057 (2006).

================================================================================
                                        WARNINGS
                       Please study these warnings very carefully!
================================================================================


================================================================================
                                       INPUT FILE
================================================================================
NAME = sp.inp
|  1> ! pbe def2-sv(p) def2/J RI DEFGRID1 loosescf d4 GCP(DFT/SV(P)) printgap
|  2> %output
|  3>     printlevel normal
|  4> end
|  5> * xyz 0 1
|  6> C 2.8634188494 -0.7326800717 -0.1142027858
|  7> C 1.9748713367 0.4894487344 0.0875496045
|  8> C 0.4972455729 0.2123825623 0.0458962627
|  9> C -0.0597009774 -1.0460168659 0.2359996628
| 10> C -1.4374720762 -1.1940248467 0.1937257908
| 11> C -2.2172739259 -0.0730072764 -0.0355991462
| 12> N -1.7042812327 1.1326348359 -0.217293593
| 13> C -0.3927273728 1.2627430547 -0.1779531196
| 14> H 2.6015524613 -1.2493355214 -1.0351761404
| 15> H 2.7716288922 -1.427973575 0.7168377651
| 16> H 3.9043361007 -0.4239096906 -0.1788101673
| 17> H 2.2045859393 1.2328781488 -0.6805831527
| 18> H 2.2095359971 0.9477648294 1.0541264864
| 19> H 0.5659119227 -1.9074984718 0.4146134702
| 20> H -1.8928846955 -2.1622161493 0.3365992976
| 21> H -3.2967586953 -0.1346268353 -0.0776512846
| 22> H -0.021864578 2.2687538135 -0.3356677933
| 23> *
| 24> 
| 25>                          ****END OF INPUT****
================================================================================

                       ****************************
                       * Single Point Calculation *
                       ****************************

---------------------------------
CARTESIAN COORDINATES (ANGSTROEM)
---------------------------------
  C      2.863419   -0.732680   -0.114203
  C      1.974871    0.489449    0.087550
  C      0.497246    0.212383    0.045896
  C     -0.059701   -1.046017    0.236000
  C     -1.437472   -1.194025    0.193726
  C     -2.217274   -0.073007   -0.035599
  N     -1.704281    1.132635   -0.217294
  C     -0.392727    1.262743   -0.177953
  H      2.601552   -1.249336   -1.035176
  H      2.771629   -1.427974    0.716838
  H      3.904336   -0.423910   -0.178810
  H      2.204586    1.232878   -0.680583
  H      2.209536    0.947765    1.054126
  H      0.565912   -1.907498    0.414613
  H     -1.892885   -2.162216    0.336599
  H     -3.296759   -0.134627   -0.077651
  H     -0.021865    2.268754   -0.335668

----------------------------
CARTESIAN COORDINATES (A.U.)
----------------------------
  NO LB      ZA    FRAG     MASS         X           Y           Z
   0 C     6.0000    0    12.011    5.411077   -1.384565   -0.215812
   1 C     6.0000    0    12.011    3.731966    0.924924    0.165445
   2 C     6.0000    0    12.011    0.939658    0.401345    0.086731
   3 C     6.0000    0    12.011   -0.112818   -1.976685    0.445975
   4 C     6.0000    0    12.011   -2.716429   -2.256380    0.366089
   5 C     6.0000    0    12.011   -4.190040   -0.137964   -0.067273
   6 N     7.0000    0    14.007   -3.220625    2.140370   -0.410625
   7 C     6.0000    0    12.011   -0.742147    2.386239   -0.336283
   8 H     1.0000    0     1.008    4.916222   -2.360902   -1.956199
   9 H     1.0000    0     1.008    5.237620   -2.698479    1.354627
  10 H     1.0000    0     1.008    7.378126   -0.801073   -0.337902
  11 H     1.0000    0     1.008    4.166064    2.329802   -1.286116
  12 H     1.0000    0     1.008    4.175418    1.791016    1.992010
  13 H     1.0000    0     1.008    1.069419   -3.604650    0.783506
  14 H     1.0000    0     1.008   -3.577034   -4.085996    0.636080
  15 H     1.0000    0     1.008   -6.229971   -0.254408   -0.146740
  16 H     1.0000    0     1.008   -0.041318    4.287323   -0.634320

--------------------------------
INTERNAL COORDINATES (ANGSTROEM)
--------------------------------
 C      0   0   0     0.000000000000     0.00000000     0.00000000
 C      1   0   0     1.524407927038     0.00000000     0.00000000
 C      2   1   0     1.503954308631   114.91771724     0.00000000
 C      3   2   1     1.389207645932   123.84716918    19.70920908
 C      4   3   2     1.386342902504   119.40413735   179.24281048
 C      5   4   3     1.384688139780   118.57421121   359.86696537
 N      6   5   4     1.322780132231   122.83599682     0.06526026
 C      7   6   5     1.318578533446   118.13722973     0.06825869
 H      1   2   3     1.087979218002   110.63726071    54.24702347
 H      1   2   3     1.087422111792   111.23923185   293.13975843
 H      1   2   3     1.087668141504   109.76098423   173.77298097
 H      2   1   3     1.093381921163   109.24877446   238.20548634
 H      2   1   3     1.095167573662   109.11218045   121.67795773
 H      4   3   2     1.079557756801   120.87493389   359.17461008
 H      5   4   3     1.079447956686   120.73093999   179.87458418
 H      6   5   4     1.082059480689   121.47685246   180.02044598
 H      8   7   6     1.083730029891   115.31796463   179.80293554

---------------------------
INTERNAL COORDINATES (A.U.)
---------------------------
 C      0   0   0     0.000000000000     0.00000000     0.00000000
 C      1   0   0     2.880713498481     0.00000000     0.00000000
 C      2   1   0     2.842061761244   114.91771724     0.00000000
 C      3   2   1     2.625221993960   123.84716918    19.70920908
 C      4   3   2     2.619808413438   119.40413735   179.24281048
 C      5   4   3     2.616681365073   118.57421121   359.86696537
 N      6   5   4     2.499692185309   122.83599682     0.06526026
 C      7   6   5     2.491752314281   118.13722973     0.06825869
 H      1   2   3     2.055982761422   110.63726071    54.24702347
 H      1   2   3     2.054929983257   111.23923185   293.13975843
 H      1   2   3     2.055394912034   109.76098423   173.77298097
 H      2   1   3     2.066192390779   109.24877446   238.20548634
 H      2   1   3     2.069566784972   109.11218045   121.67795773
 H      4   3   2     2.040068506105   120.87493389   359.17461008
 H      5   4   3     2.039861013957   120.73093999   179.87458418
 H      6   5   4     2.044796079116   121.47685246   180.02044598
 H      8   7   6     2.047952959601   115.31796463   179.80293554

---------------------
BASIS SET INFORMATION
---------------------
There are 3 groups of distinct atoms

 Group   1 Type C   : 7s4p1d contracted to 3s2p1d pattern {511/31/1}
 Group   2 Type N   : 7s4p1d contracted to 3s2p1d pattern {511/31/1}
 Group   3 Type H   : 4s contracted to 2s pattern {31}

Atom   0C    basis set group =>   1
Atom   1C    basis set group =>   1
Atom   2C    basis set group =>   1
Atom   3C    basis set group =>   1
Atom   4C    basis set group =>   1
Atom   5C    basis set group =>   1
Atom   6N    basis set group =>   2
Atom   7C    basis set group =>   1
Atom   8H    basis set group =>   3
Atom   9H    basis set group =>   3
Atom  10H    basis set group =>   3
Atom  11H    basis set group =>   3
Atom  12H    basis set group =>   3
Atom  13H    basis set group =>   3
Atom  14H    basis set group =>   3
Atom  15H    basis set group =>   3
Atom  16H    basis set group =>   3
---------------------------------
AUXILIARY/J BASIS SET INFORMATION
---------------------------------
There are 3 groups of distinct atoms

 Group   1 Type C   : 12s5p4d2f1g contracted to 6s4p3d1f1g pattern {711111/2111/211/2/1}
 Group   2 Type N   : 12s5p4d2f1g contracted to 6s4p3d1f1g pattern {711111/2111/211/2/1}
 Group   3 Type H   : 5s2p1d contracted to 3s1p1d pattern {311/2/1}

Atom   0C    basis set group =>   1
Atom   1C    basis set group =>   1
Atom   2C    basis set group =>   1
Atom   3C    basis set group =>   1
Atom   4C    basis set group =>   1
Atom   5C    basis set group =>   1
Atom   6N    basis set group =>   2
Atom   7C    basis set group =>   1
Atom   8H    basis set group =>   3
Atom   9H    basis set group =>   3
Atom  10H    basis set group =>   3
Atom  11H    basis set group =>   3
Atom  12H    basis set group =>   3
Atom  13H    basis set group =>   3
Atom  14H    basis set group =>   3
Atom  15H    basis set group =>   3
Atom  16H    basis set group =>   3
------------------------------------------------------------------------------
                             ORCA STARTUP CALCULATIONS
                           -- RI-GTO INTEGRALS CHOSEN --
------------------------------------------------------------------------------
------------------------------------------------------------------------------
                   ___                                                        
                  /   \      - P O W E R E D   B Y -                         
                 /     \                                                     
                 |  |  |   _    _      __       _____    __    __             
                 |  |  |  | |  | |    /  \     |  _  \  |  |  /  |          
                  \  \/   | |  | |   /    \    | | | |  |  | /  /          
                 / \  \   | |__| |  /  /\  \   | |_| |  |  |/  /          
                |  |  |   |  __  | /  /__\  \  |    /   |      \           
                |  |  |   | |  | | |   __   |  |    \   |  |\   \          
                \     /   | |  | | |  |  |  |  | |\  \  |  | \   \       
                 \___/    |_|  |_| |__|  |__|  |_| \__\ |__|  \__/        
                                                                              
                      - O R C A' S   B I G   F R I E N D -                    
                                      &                                       
                       - I N T E G R A L  F E E D E R -                       
                                                                              
 v1 FN, 2020, v2 2021, v3 2022-2024                                           
------------------------------------------------------------------------------


----------------------
SHARK INTEGRAL PACKAGE
----------------------

Number of atoms                             ...     17
Number of basis functions                   ...    130
Number of shells                            ...     66
Maximum angular momentum                    ...      2
Integral batch strategy                     ... SHARK/LIBINT Hybrid
RI-J (if used) integral strategy            ... SPLIT-RIJ (Revised 2003 algorithm where possible)
Printlevel                                  ...      1
Contraction scheme used                     ... SEGMENTED contraction
Prescreening option                         ... SCHWARTZ
   Thresh                                   ... 1.000e-09
   Tcut                                     ... 1.000e-10
   Tpresel                                  ... 1.000e-10 
Coulomb Range Separation                    ... NOT USED
Exchange Range Separation                   ... NOT USED
Multipole approximations                    ... NOT USED
Finite Nucleus Model                        ... NOT USED
CABS basis                                  ... NOT available
Auxiliary Coulomb fitting basis             ... AVAILABLE
   # of basis functions in Aux-J            ...    491
   # of shells in Aux-J                     ...    165
   Maximum angular momentum in Aux-J        ...      4
Auxiliary J/K fitting basis                 ... NOT available
Auxiliary Correlation fitting basis         ... NOT available
Auxiliary 'external' fitting basis          ... NOT available

Checking pre-screening integrals            ... done (  0.0 sec) Dimension = 66
Check shell pair data                       ... done (  0.0 sec)
Shell pair information
Shell pair cut-off parameter TPreSel        ...   1.0e-10
Total number of shell pairs                 ...      2211
Shell pairs after pre-screening             ...      2093
Total number of primitive shell pairs       ...      8909
Primitive shell pairs kept                  ...      6024
          la=0 lb=0:    838 shell pairs
          la=1 lb=0:    650 shell pairs
          la=1 lb=1:    135 shell pairs
          la=2 lb=0:    312 shell pairs
          la=2 lb=1:    124 shell pairs
          la=2 lb=2:     34 shell pairs

Calculating one electron integrals          ... done (  0.0 sec)
Calculating RI/J V-Matrix + Cholesky decomp.... done (  0.0 sec)
Calculating Nuclear repulsion               ... done (  0.0 sec) ENN=    344.944651611394 Eh

Diagonalization of the overlap matrix:
Smallest eigenvalue                        ... 6.729e-04
Time for diagonalization                   ...    0.002 sec
Threshold for overlap eigenvalues          ... 1.000e-07
Number of eigenvalues below threshold      ... 0
Time for construction of square roots      ...    0.003 sec
Total time needed                          ...    0.005 sec

-------------------
DFT GRID GENERATION
-------------------

General Integration Accuracy     IntAcc      ... 4.159
Radial Grid Type                 RadialGrid  ... OptM3 with GC (2021)
Angular Grid (max. ang.)         AngularGrid ... 3 (Lebedev-194)
Angular grid pruning method      GridPruning ... 4 (adaptive)
Weight generation scheme         WeightScheme... mBecke (2022)
Basis function cutoff            BFCut       ... 1.0000e-10
Integration weight cutoff        WCut        ... 1.0000e-14
Partially contracted basis set               ... off
Rotationally invariant grid construction     ... off
Angular grids for H and He will be reduced by one unit

Total number of grid points                  ...    38787
Total number of batches                      ...      613
Average number of points per batch           ...       63
Average number of grid points per atom       ...     2282
Initializing property integral containers    ... done (  0.0 sec)

SHARK setup successfully completed in   0.3 seconds

Maximum memory used throughout the entire STARTUP-calculation: 19.6 MB
-------------------------------------------------------------------------------
                                 ORCA GUESS
                   Start orbitals & Density for SCF / CASSCF
-------------------------------------------------------------------------------

------------
SCF SETTINGS
------------
Hamiltonian:
 Density Functional     Method          .... DFT(GTOs)
 Exchange Functional    Exchange        .... PBE
   PBE kappa parameter   XKappa         ....  0.804000
   PBE mue parameter    XMuePBE         ....  0.219520
 Correlation Functional Correlation     .... PBE
   PBE beta parameter  CBetaPBE         ....  0.066725
 LDA part of GGA corr.  LDAOpt          .... PW91-LDA
 Gradients option       PostSCFGGA      .... off
   NL short-range parameter             ....  6.400000
 RI-approximation to the Coulomb term is turned on
   Number of AuxJ basis functions       .... 491


General Settings:
 Integral files         IntName         .... sp
 Hartree-Fock type      HFTyp           .... RHF
 Total Charge           Charge          ....    0
 Multiplicity           Mult            ....    1
 Number of Electrons    NEL             ....   58
 Basis Dimension        Dim             ....  130
 Nuclear Repulsion      ENuc            ....    344.9446516114 Eh

Convergence Acceleration:
 AO-DIIS                CNVDIIS         .... on
   Start iteration      DIISMaxIt       ....    12
   Startup error        DIISStart       ....  0.200000
   # of expansion vecs  DIISMaxEq       ....     5
   Bias factor          DIISBfac        ....   1.050
   Max. coefficient     DIISMaxC        ....  10.000
 MO-DIIS                CNVKDIIS        .... off
 Trust-Rad. Augm. Hess. CNVTRAH         .... auto
   Auto Start mean grad. ratio tolernc. ....  1.125000
   Auto Start start iteration           ....    50
   Auto Start num. interpolation iter.  ....    10
   Max. Number of Micro iterations      ....    24
   Max. Number of Macro iterations      .... Maxiter - #DIIS iter
   Number of Davidson start vectors     ....     2
   Converg. threshold    (grad. norm)   ....   1.000e-04
   Grad. Scal. Fac. for Micro threshold ....   0.100
   Minimum threshold for Micro iter.    ....   1.000e-02
   NR start threshold (gradient norm)   ....   1.000e-04
   Initial trust radius                 ....   0.400
   Minimum AH scaling param. (alpha)    ....   1.000
   Maximum AH scaling param. (alpha)    .... 1000.000
   Quad. conv. algorithm                .... NR
   White noise on init. David. guess    .... on
   Maximum white noise                  ....   0.010
   Pseudo random numbers                .... off
   Inactive MOs                         .... canonical
   Orbital update algorithm             .... Taylor
   Preconditioner                       .... Diag
   Full preconditioner red. dimension   ....   250
 SOSCF                  CNVSOSCF        .... on
   Start iteration      SOSCFMaxIt      ....   150
   Startup grad/error   SOSCFStart      ....  0.003300
   Hessian update       SOSCFHessUp     .... L-BFGS
 Level Shifting         CNVShift        .... on
   Level shift para.    LevelShift      ....    0.2500
   Turn off err/grad.   ShiftErr        ....    0.0010
 Zerner damping         CNVZerner       .... off
 Static damping         CNVDamp         .... on
   Fraction old density DampFac         ....    0.7000
   Max. Damping (<1)    DampMax         ....    0.9800
   Min. Damping (>=0)   DampMin         ....    0.0000
   Turn off err/grad.   DampErr         ....    0.1000

SCF Procedure:
 Maximum # iterations   MaxIter         ....   125
 SCF integral mode      SCFMode         .... Direct
   Integral package                     .... SHARK and LIBINT hybrid scheme
 Reset frequency        DirectResetFreq ....    20
 Integral Threshold     Thresh          ....  1.000e-09 Eh
 Primitive CutOff       TCut            ....  1.000e-10 Eh

Convergence Tolerance:
 Convergence Check Mode ConvCheckMode   .... Total+1el-Energy
 Convergence forced     ConvForced      .... 0
 Energy Change          TolE            ....  1.000e-05 Eh
 1-El. energy change                    ....  1.000e-02 Eh
 Orbital Gradient       TolG            ....  1.000e-04
 Orbital Rotation angle TolX            ....  1.000e-04
 DIIS Error             TolErr          ....  5.000e-04

------------------------------
INITIAL GUESS: MODEL POTENTIAL
------------------------------
Loading Hartree-Fock densities                     ... done
Calculating cut-offs                               ... done
Initializing the effective Hamiltonian             ... done
Setting up the integral package (SHARK)            ... done
Starting the Coulomb interaction                   ... done (   0.1 sec)
Making the grid                                    ... done (   0.2 sec)
Mapping shells                                     ... done
Starting the XC term evaluation                    ... done (   0.1 sec)
  promolecular density results
     # of electrons  =     57.993057153
     EX              =    -45.001861472
     EC              =     -1.910581832
     EX+EC           =    -46.912443304
Transforming the Hamiltonian                       ... done (   0.0 sec)
Diagonalizing the Hamiltonian                      ... done (   0.0 sec)
Back transforming the eigenvectors                 ... done (   0.0 sec)
Now organizing SCF variables                       ... done
                      ------------------
                      INITIAL GUESS DONE (   0.4 sec)
                      ------------------
             **** ENERGY FILE WAS UPDATED (sp.en.tmp) ****
Finished Guess after   0.5 sec
Maximum memory used throughout the entire GUESS-calculation: 15.2 MB

-------------------------------------------------------------------------------------------
                                      ORCA LEAN-SCF
                              memory conserving SCF solver
-------------------------------------------------------------------------------------------

----------------------------------------D-I-I-S--------------------------------------------
Iteration    Energy (Eh)           Delta-E    RMSDP     MaxDP     DIISErr   Damp  Time(sec)
-------------------------------------------------------------------------------------------
               ***  Starting incremental Fock matrix formation  ***
    1    -326.0622806647942298     0.00e+00  4.01e-03  8.11e-02  1.58e-01  0.700   0.4
    2    -326.1411647797447131    -7.89e-02  2.97e-03  4.69e-02  7.56e-02  0.700   0.4
                               ***Turning on AO-DIIS***
    3    -326.1705107583334211    -2.93e-02  1.26e-03  1.33e-02  2.21e-02  0.700   0.4
    4    -326.1875626325012263    -1.71e-02  1.95e-03  2.66e-02  1.06e-02  0.000   0.3
    5    -326.2254062849073080    -3.78e-02  5.18e-04  5.66e-03  4.96e-03  0.000   0.3
                              *** Initializing SOSCF ***
---------------------------------------S-O-S-C-F--------------------------------------
Iteration    Energy (Eh)           Delta-E    RMSDP     MaxDP     MaxGrad    Time(sec)
--------------------------------------------------------------------------------------
    6    -326.2257298586581555    -3.24e-04  1.72e-04  2.11e-03  1.50e-03     0.3
               *** Restarting incremental Fock matrix formation ***
    7    -326.2257526909667149    -2.28e-05  1.26e-04  2.12e-03  4.46e-04     0.4
    8    -326.2257464721317319     6.22e-06  6.39e-05  1.35e-03  9.13e-04     0.3
                 **** Energy Check signals convergence ****

               *****************************************************
               *                     SUCCESS                       *
               *           SCF CONVERGED AFTER   8 CYCLES          *
               *****************************************************

             **** ENERGY FILE WAS UPDATED (sp.en.tmp) ****

----------------
TOTAL SCF ENERGY
----------------

Total Energy       :       -326.22574647213173 Eh           -8877.05386 eV

Components:
Nuclear Repulsion  :        344.94465161139408 Eh            9386.42117 eV
Electronic Energy  :       -671.17039808352592 Eh          -18263.47503 eV
One Electron Energy:      -1122.60917293417583 Eh          -30547.74861 eV
Two Electron Energy:        451.43877485064996 Eh           12284.27358 eV

Virial components:
Potential Energy   :       -649.62542870529887 Eh          -17677.20661 eV
Kinetic Energy     :        323.39968223316714 Eh            8800.15274 eV
Virial Ratio       :          2.00873861167534

DFT components:
N(Alpha)           :       29.000133631565 electrons
N(Beta)            :       29.000133631565 electrons
N(Total)           :       58.000267263130 electrons
E(X)               :      -45.900087607168 Eh       
E(C)               :       -1.923828508136 Eh       
E(XC)              :      -47.823916115304 Eh       

---------------
SCF CONVERGENCE
---------------

  Last Energy change         ...   -6.2188e-06  Tolerance :   1.0000e-05
  Last MAX-Density change    ...    1.3525e-03  Tolerance :   1.0000e-03
  Last RMS-Density change    ...    6.3911e-05  Tolerance :   1.0000e-04
  Last DIIS Error            ...    1.5050e-03  Tolerance :   5.0000e-04
  Last Orbital Gradient      ...    9.1316e-04  Tolerance :   1.0000e-04
  Last Orbital Rotation      ...    1.2045e-03  Tolerance :   1.0000e-04


----------------
ORBITAL ENERGIES
----------------

  NO   OCC          E(Eh)            E(eV) 
   0   2.0000     -13.975190      -380.2842 
   1   2.0000      -9.915856      -269.8242 
   2   2.0000      -9.915291      -269.8088 
   3   2.0000      -9.910307      -269.6732 
   4   2.0000      -9.906646      -269.5736 
   5   2.0000      -9.901872      -269.4436 
   6   2.0000      -9.899137      -269.3692 
   7   2.0000      -9.887268      -269.0462 
   8   2.0000      -0.855068       -23.2676 
   9   2.0000      -0.743108       -20.2210 
  10   2.0000      -0.702647       -19.1200 
  11   2.0000      -0.664331       -18.0774 
  12   2.0000      -0.586876       -15.9697 
  13   2.0000      -0.562837       -15.3156 
  14   2.0000      -0.526569       -14.3287 
  15   2.0000      -0.469677       -12.7806 
  16   2.0000      -0.440351       -11.9825 
  17   2.0000      -0.415697       -11.3117 
  18   2.0000      -0.408367       -11.1122 
  19   2.0000      -0.384184       -10.4542 
  20   2.0000      -0.358788        -9.7631 
  21   2.0000      -0.356572        -9.7028 
  22   2.0000      -0.339135        -9.2283 
  23   2.0000      -0.331703        -9.0261 
  24   2.0000      -0.318198        -8.6586 
  25   2.0000      -0.305944        -8.3251 
  26   2.0000      -0.258310        -7.0290 
  27   2.0000      -0.229512        -6.2454 
  28   2.0000      -0.198326        -5.3967 
  29   0.0000      -0.050866        -1.3841 
  30   0.0000      -0.042282        -1.1505 
  31   0.0000       0.038513         1.0480 
  32   0.0000       0.055144         1.5005 
  33   0.0000       0.071153         1.9362 
  34   0.0000       0.078656         2.1403 
  35   0.0000       0.098345         2.6761 
  36   0.0000       0.108300         2.9470 
  37   0.0000       0.113562         3.0902 
  38   0.0000       0.116808         3.1785 
  39   0.0000       0.141865         3.8603 
*Only the first 10 virtual orbitals were printed.

                    ********************************
                    * MULLIKEN POPULATION ANALYSIS *
                    ********************************

-----------------------
MULLIKEN ATOMIC CHARGES
-----------------------
   0 C :   -0.281198
   1 C :   -0.142829
   2 C :    0.001173
   3 C :   -0.075031
   4 C :   -0.064484
   5 C :   -0.060464
   6 N :   -0.048544
   7 C :   -0.105130
   8 H :    0.110139
   9 H :    0.112773
  10 H :    0.108776
  11 H :    0.099392
  12 H :    0.110702
  13 H :    0.054600
  14 H :    0.058851
  15 H :    0.067004
  16 H :    0.054268
Sum of atomic charges:   -0.0000000

--------------------------------
MULLIKEN REDUCED ORBITAL CHARGES
--------------------------------
  0 C s       :     3.082706  s :     3.082706
      pz      :     1.068449  p :     3.169316
      px      :     1.057585
      py      :     1.043282
      dz2     :     0.005215  d :     0.029176
      dxz     :     0.001535
      dyz     :     0.010375
      dx2y2   :     0.007372
      dxy     :     0.004679

  1 C s       :     2.993955  s :     2.993955
      pz      :     1.051421  p :     3.112295
      px      :     0.993829
      py      :     1.067045
      dz2     :     0.005777  d :     0.036579
      dxz     :     0.005171
      dyz     :     0.010074
      dx2y2   :     0.008911
      dxy     :     0.006647

  2 C s       :     3.056065  s :     3.056065
      pz      :     0.970570  p :     2.902410
      px      :     0.990900
      py      :     0.940940
      dz2     :     0.002949  d :     0.040353
      dxz     :     0.006739
      dyz     :     0.005739
      dx2y2   :     0.011469
      dxy     :     0.013456

  3 C s       :     3.219828  s :     3.219828
      pz      :     0.973031  p :     2.820571
      px      :     0.912723
      py      :     0.934818
      dz2     :     0.002992  d :     0.034632
      dxz     :     0.005189
      dyz     :     0.003788
      dx2y2   :     0.009287
      dxy     :     0.013376

  4 C s       :     3.179293  s :     3.179293
      pz      :     0.994098  p :     2.851507
      px      :     0.968531
      py      :     0.888878
      dz2     :     0.003155  d :     0.033683
      dxz     :     0.005516
      dyz     :     0.002873
      dx2y2   :     0.010220
      dxy     :     0.011919

  5 C s       :     3.173467  s :     3.173467
      pz      :     0.965216  p :     2.832387
      px      :     0.916476
      py      :     0.950695
      dz2     :     0.004300  d :     0.054610
      dxz     :     0.002928
      dyz     :     0.009264
      dx2y2   :     0.022622
      dxy     :     0.015496

  6 N s       :     3.424356  s :     3.424356
      pz      :     1.103636  p :     3.594874
      px      :     1.163845
      py      :     1.327394
      dz2     :     0.003217  d :     0.029313
      dxz     :     0.004858
      dyz     :     0.004523
      dx2y2   :     0.010609
      dxy     :     0.006108

  7 C s       :     3.227001  s :     3.227001
      pz      :     0.968260  p :     2.824001
      px      :     0.947652
      py      :     0.908089
      dz2     :     0.003986  d :     0.054128
      dxz     :     0.009437
      dyz     :     0.002813
      dx2y2   :     0.016940
      dxy     :     0.020952

  8 H s       :     0.889861  s :     0.889861

  9 H s       :     0.887227  s :     0.887227

 10 H s       :     0.891224  s :     0.891224

 11 H s       :     0.900608  s :     0.900608

 12 H s       :     0.889298  s :     0.889298

 13 H s       :     0.945400  s :     0.945400

 14 H s       :     0.941149  s :     0.941149

 15 H s       :     0.932996  s :     0.932996

 16 H s       :     0.945732  s :     0.945732


------------------------
MULLIKEN OVERLAP CHARGES
------------------------
B(  0-C ,  1-C ) :   0.8607 B(  0-C ,  2-C ) :  -0.0841 B(  0-C ,  8-H ) :   0.7693 
B(  0-C ,  9-H ) :   0.7373 B(  0-C , 10-H ) :   0.7288 B(  1-C ,  2-C ) :   0.6266 
B(  1-C ,  3-C ) :  -0.2491 B(  1-C ,  7-C ) :  -0.1523 B(  1-C ,  8-H ) :  -0.0550 
B(  1-C , 11-H ) :   0.6829 B(  1-C , 12-H ) :   0.6433 B(  1-C , 13-H ) :  -0.0641 
B(  2-C ,  3-C ) :   0.7463 B(  2-C ,  4-C ) :   0.1207 B(  2-C ,  5-C ) :  -0.1845 
B(  2-C ,  7-C ) :   0.7888 B(  2-C , 13-H ) :  -0.1421 B(  2-C , 16-H ) :  -0.1860 
B(  3-C ,  4-C ) :   0.6499 B(  3-C ,  5-C ) :   0.0647 B(  3-C ,  6-N ) :  -0.1422 
B(  3-C , 13-H ) :   0.8562 B(  3-C , 14-H ) :  -0.1562 B(  4-C ,  5-C ) :   0.7497 
B(  4-C ,  7-C ) :  -0.1639 B(  4-C , 13-H ) :  -0.1600 B(  4-C , 14-H ) :   0.8058 
B(  4-C , 15-H ) :  -0.1725 B(  5-C ,  6-N ) :   1.0376 B(  5-C ,  7-C ) :  -0.1151 
B(  5-C , 14-H ) :  -0.1196 B(  5-C , 15-H ) :   0.8087 B(  6-N ,  7-C ) :   1.0834 
B(  6-N , 15-H ) :  -0.0979 B(  6-N , 16-H ) :  -0.0932 B(  7-C , 16-H ) :   0.8074 
B(  8-H ,  9-H ) :  -0.0599 B( 11-H , 12-H ) :  -0.0519 


                     *******************************
                     * LOEWDIN POPULATION ANALYSIS *
                     *******************************

----------------------
LOEWDIN ATOMIC CHARGES
----------------------
   0 C :   -0.340048
   1 C :   -0.220503
   2 C :   -0.059732
   3 C :   -0.106151
   4 C :   -0.139957
   5 C :   -0.087543
   6 N :   -0.071527
   7 C :   -0.082643
   8 H :    0.122412
   9 H :    0.120045
  10 H :    0.124560
  11 H :    0.128920
  12 H :    0.134627
  13 H :    0.125952
  14 H :    0.127181
  15 H :    0.113176
  16 H :    0.111230

-------------------------------
LOEWDIN REDUCED ORBITAL CHARGES
-------------------------------
  0 C s       :     2.943123  s :     2.943123
      pz      :     1.126109  p :     3.326319
      px      :     1.103906
      py      :     1.096304
      dz2     :     0.013431  d :     0.070606
      dxz     :     0.003190
      dyz     :     0.023966
      dx2y2   :     0.016861
      dxy     :     0.013158

  1 C s       :     2.897085  s :     2.897085
      pz      :     1.104552  p :     3.234422
      px      :     1.043322
      py      :     1.086547
      dz2     :     0.014731  d :     0.088997
      dxz     :     0.010647
      dyz     :     0.023085
      dx2y2   :     0.022194
      dxy     :     0.018341

  2 C s       :     2.861113  s :     2.861113
      pz      :     0.953843  p :     3.090250
      px      :     1.047059
      py      :     1.089348
      dz2     :     0.007792  d :     0.108369
      dxz     :     0.012582
      dyz     :     0.012821
      dx2y2   :     0.035873
      dxy     :     0.039300

  3 C s       :     2.893432  s :     2.893432
      pz      :     0.971867  p :     3.121334
      px      :     1.079163
      py      :     1.070303
      dz2     :     0.006825  d :     0.091385
      dxz     :     0.011091
      dyz     :     0.007690
      dx2y2   :     0.028901
      dxy     :     0.036879

  4 C s       :     2.900502  s :     2.900502
      pz      :     0.988326  p :     3.148555
      px      :     1.088453
      py      :     1.071776
      dz2     :     0.007327  d :     0.090900
      dxz     :     0.012306
      dyz     :     0.005730
      dx2y2   :     0.031492
      dxy     :     0.034045

  5 C s       :     2.890263  s :     2.890263
      pz      :     0.960762  p :     3.063550
      px      :     1.061196
      py      :     1.041593
      dz2     :     0.009446  d :     0.133730
      dxz     :     0.004805
      dyz     :     0.019645
      dx2y2   :     0.057907
      dxy     :     0.041927

  6 N s       :     3.208476  s :     3.208476
      pz      :     1.098387  p :     3.799763
      px      :     1.294073
      py      :     1.407303
      dz2     :     0.006638  d :     0.063288
      dxz     :     0.009062
      dyz     :     0.007119
      dx2y2   :     0.025862
      dxy     :     0.014607

  7 C s       :     2.890743  s :     2.890743
      pz      :     0.964956  p :     3.058400
      px      :     1.031154
      py      :     1.062290
      dz2     :     0.009015  d :     0.133499
      dxz     :     0.018840
      dyz     :     0.005159
      dx2y2   :     0.045522
      dxy     :     0.054964

  8 H s       :     0.877588  s :     0.877588

  9 H s       :     0.879955  s :     0.879955

 10 H s       :     0.875440  s :     0.875440

 11 H s       :     0.871080  s :     0.871080

 12 H s       :     0.865373  s :     0.865373

 13 H s       :     0.874048  s :     0.874048

 14 H s       :     0.872819  s :     0.872819

 15 H s       :     0.886824  s :     0.886824

 16 H s       :     0.888770  s :     0.888770


---------------------------------
LOEWDIN BOND ORDERS (THRESH 0.050000)
---------------------------------
B(  0-C ,  1-C ) :   1.1256 B(  0-C ,  2-C ) :   0.0546 B(  0-C ,  8-H ) :   0.9396 
B(  0-C ,  9-H ) :   0.9376 B(  0-C , 10-H ) :   0.9358 B(  1-C ,  2-C ) :   1.0632 
B(  1-C ,  3-C ) :   0.0682 B(  1-C ,  7-C ) :   0.0764 B(  1-C , 11-H ) :   0.8938 
B(  1-C , 12-H ) :   0.8888 B(  2-C ,  3-C ) :   1.4485 B(  2-C ,  4-C ) :   0.0882 
B(  2-C ,  5-C ) :   0.1224 B(  2-C ,  6-N ) :   0.0873 B(  2-C ,  7-C ) :   1.4246 
B(  3-C ,  4-C ) :   1.4974 B(  3-C ,  5-C ) :   0.0907 B(  3-C ,  6-N ) :   0.1094 
B(  3-C ,  7-C ) :   0.0914 B(  3-C , 13-H ) :   0.8800 B(  4-C ,  5-C ) :   1.5063 
B(  4-C ,  6-N ) :   0.0877 B(  4-C ,  7-C ) :   0.1304 B(  4-C , 14-H ) :   0.8854 
B(  5-C ,  6-N ) :   1.6175 B(  5-C ,  7-C ) :   0.1075 B(  5-C , 15-H ) :   0.8963 
B(  6-N ,  7-C ) :   1.6537 B(  7-C , 16-H ) :   0.8900 

------------------------------------------
LOEWDIN REDUCED ORBITAL POPULATIONS PER MO
-------------------------------------------
THRESHOLD FOR PRINTING IS 0.1%%
                      0         1         2         3         4         5   
                 -13.97519  -9.91586  -9.91529  -9.91031  -9.90665  -9.90187
                   2.00000   2.00000   2.00000   2.00000   2.00000   2.00000
                  --------  --------  --------  --------  --------  --------
 1 C  s               0.0       0.0       0.0       0.0       0.0      99.6
 1 C  px              0.0       0.0       0.0       0.1       0.0       0.0
 2 C  s               0.0       0.1       0.0      99.4       0.1       0.0
 2 C  px              0.0       0.1       0.0       0.0       0.0       0.1
 2 C  py              0.0       0.1       0.0       0.0       0.1       0.0
 3 C  s               0.0       0.0       0.0       0.1      99.4       0.0
 3 C  py              0.0       0.0       0.0       0.1       0.0       0.0
 4 C  px              0.0       0.0       0.0       0.0       0.1       0.0
 5 C  s               0.0       0.0      99.5       0.0       0.0       0.0
 6 N  s              99.8       0.0       0.0       0.0       0.0       0.0
 6 N  px              0.0       0.2       0.0       0.0       0.0       0.0
 6 N  py              0.0       0.0       0.2       0.0       0.0       0.0
 7 C  s               0.0      99.5       0.0       0.1       0.0       0.0

                      6         7         8         9        10        11   
                  -9.89914  -9.88727  -0.85507  -0.74311  -0.70265  -0.66433
                   2.00000   2.00000   2.00000   2.00000   2.00000   2.00000
                  --------  --------  --------  --------  --------  --------
 0 C  s               0.0      99.7       0.0       6.2       4.9      17.6
 0 C  px              0.0       0.0       0.0       1.0       0.2       0.0
 0 C  py              0.0       0.0       0.0       0.9       0.5       0.4
 1 C  s               0.0       0.0       0.4      15.4       7.5       5.9
 1 C  px              0.0       0.0       0.4       1.0       0.0       5.1
 1 C  py              0.0       0.1       0.0       0.7       0.1       1.3
 2 C  s               0.0       0.0       4.4      19.3       0.5       5.9
 2 C  pz              0.0       0.0       0.0       0.0       0.1       0.0
 2 C  px              0.0       0.0       1.9       0.9       2.3       5.0
 2 C  py              0.0       0.0       0.2       0.8       5.4       0.4
 2 C  dz2             0.0       0.0       0.1       0.2       0.0       0.0
 2 C  dxy             0.0       0.0       0.0       0.1       0.1       0.0
 3 C  s               0.0       0.0       2.9      13.2      10.9       1.6
 3 C  px              0.1       0.0       0.4       0.3       5.1       0.6
 3 C  py              0.0       0.0       0.9       1.7       0.5       1.4
 3 C  dz2             0.0       0.0       0.0       0.1       0.1       0.0
 3 C  dx2y2           0.0       0.0       0.0       0.0       0.1       0.1
 4 C  s              99.5       0.0       4.1       2.4      21.9       2.0
 4 C  px              0.0       0.0       0.0       2.8       0.5       2.8
 4 C  py              0.0       0.0       2.3       0.0       0.3       0.4
 4 C  dz2             0.0       0.0       0.1       0.0       0.2       0.0
 5 C  s               0.0       0.0      13.5       1.1       4.8       9.5
 5 C  pz              0.0       0.0       0.0       0.1       0.2       0.0
 5 C  px              0.0       0.0       3.0       0.1       0.5       0.2
 5 C  py              0.1       0.0       3.2       2.9       6.3       0.1
 5 C  dz2             0.0       0.0       0.2       0.0       0.0       0.1
 5 C  dx2y2           0.0       0.0       0.1       0.0       0.0       0.0
 5 C  dxy             0.0       0.0       0.2       0.1       0.3       0.0
 6 N  s               0.0       0.0      32.1       6.3       3.0       0.4
 6 N  pz              0.0       0.0       0.1       0.0       0.0       0.0
 6 N  px              0.0       0.0       1.6       0.1       2.1       5.6
 6 N  py              0.0       0.0       2.8       0.4       1.1       2.8
 6 N  dz2             0.0       0.0       0.1       0.0       0.0       0.0
 6 N  dx2y2           0.0       0.0       0.0       0.0       0.1       0.2
 7 C  s               0.0       0.0      14.0       0.5       5.4       9.3
 7 C  pz              0.0       0.0       0.0       0.1       0.0       0.0
 7 C  px              0.0       0.0       4.8       6.8       0.3       1.1
 7 C  py              0.0       0.0       1.3       1.6       0.3       0.3
 7 C  dz2             0.0       0.0       0.3       0.0       0.1       0.1
 7 C  dx2y2           0.0       0.0       0.3       0.1       0.1       0.0
 7 C  dxy             0.0       0.0       0.0       0.2       0.0       0.1
 8 H  s               0.0       0.1       0.0       1.2       0.9       3.7
 9 H  s               0.0       0.1       0.0       1.2       0.9       3.8
10 H  s               0.0       0.1       0.0       1.0       1.0       4.1
11 H  s               0.0       0.0       0.1       2.7       1.7       1.2
12 H  s               0.0       0.0       0.1       2.7       1.5       1.3
13 H  s               0.0       0.0       0.3       2.5       1.7       0.1
14 H  s               0.1       0.0       0.4       0.4       4.0       0.5
15 H  s               0.0       0.0       1.4       0.2       0.9       2.4
16 H  s               0.0       0.0       1.5       0.1       1.3       1.9

                     12        13        14        15        16        17   
                  -0.58688  -0.56284  -0.52657  -0.46968  -0.44035  -0.41570
                   2.00000   2.00000   2.00000   2.00000   2.00000   2.00000
                  --------  --------  --------  --------  --------  --------
 0 C  s              12.2       0.9       4.9       0.0       0.2       0.0
 0 C  pz              0.0       0.0       0.2       0.0       0.9      20.2
 0 C  px              0.8       0.4       1.5       0.5       3.3       2.5
 0 C  py              2.1       0.0       4.3       2.4       0.0       0.1
 1 C  s               5.8       0.0       8.1       1.0       0.1       0.0
 1 C  pz              0.0       0.1       0.3       0.0       1.8      30.1
 1 C  px              4.0       0.9       0.5       3.4       0.4       1.2
 1 C  py              4.5       0.6       3.0       1.1       4.6       0.4
 2 C  s               2.7       1.5       3.9       0.2       0.2       0.1
 2 C  pz              0.0       0.4       0.2       0.0       1.0       6.3
 2 C  px              3.7       0.4       6.1       3.0       1.6       1.5
 2 C  py              4.2      11.7       0.6       0.0      11.2       0.6
 2 C  dx2y2           0.1       0.0       0.1       0.2       0.0       0.0
 2 C  dxy             0.0       0.1       0.1       0.1       0.0       0.0
 3 C  s               4.8       4.7       2.1       1.1       0.4       0.1
 3 C  pz              0.0       0.0       0.3       0.3       0.0       1.6
 3 C  px              0.1       8.9       0.5       8.4       6.5       0.1
 3 C  py              1.4       0.8       9.0       6.9       6.1       0.0
 3 C  dx2y2           0.0       0.1       0.2       0.0       0.0       0.0
 4 C  s               0.0      10.1       1.1       0.2       0.0       0.1
 4 C  pz              0.1       0.0       0.2       0.1       0.1       0.3
 4 C  px              6.3       3.3       3.3       2.6      12.0       0.4
 4 C  py              1.2       0.7       4.8       5.6       2.5       0.4
 5 C  s               7.1       0.1       2.8       2.2       0.1       0.1
 5 C  pz              0.0       0.4       0.0       0.0       0.5       0.2
 5 C  px              1.1       0.4       0.6      15.0       0.1       0.6
 5 C  py              0.3      13.4       0.6       0.0      12.9       0.1
 5 C  dxy             0.0       0.2       0.0       0.0       0.0       0.0
 6 N  s               0.8       1.7       3.2       0.4       0.0       0.2
 6 N  pz              0.0       0.0       0.0       0.1       0.0       0.6
 6 N  px              4.2       7.6       0.8       1.4      10.0       0.2
 6 N  py              2.4       3.5       2.1       2.1       4.1       0.0
 6 N  dx2y2           0.1       0.1       0.0       0.0       0.1       0.0
 6 N  dxy             0.0       0.0       0.0       0.2       0.0       0.0
 7 C  s               0.3       9.0       0.6       2.1       0.3       0.3
 7 C  pz              0.1       0.1       0.2       0.2       0.0       1.5
 7 C  px              5.6       0.5       7.2       1.0      12.9       0.6
 7 C  py              0.4       2.5       3.6       9.1       0.2       0.4
 7 C  dx2y2           0.0       0.0       0.3       0.0       0.1       0.0
 8 H  s               4.2       0.2       2.9       0.4       0.3       5.9
 9 H  s               4.6       0.1       2.5       0.5       0.0       5.0
10 H  s               4.1       0.6       2.2       0.2       1.6       0.6
11 H  s               2.4       0.3       4.0       1.1       1.8       4.2
12 H  s               2.2       0.1       4.7       1.2       0.1      11.0
13 H  s               2.6       2.5       2.9       8.1       0.5       0.1
14 H  s               0.0       5.4       1.4       2.2       0.0       0.5
15 H  s               3.1       0.1       1.7       8.6       0.0       0.5
16 H  s               0.0       5.4       0.0       6.4       0.9       0.6

                     18        19        20        21        22        23   
                  -0.40837  -0.38418  -0.35879  -0.35657  -0.33914  -0.33170
                   2.00000   2.00000   2.00000   2.00000   2.00000   2.00000
                  --------  --------  --------  --------  --------  --------
 0 C  s               0.1       0.0       0.0       0.1       0.1       0.1
 0 C  pz              1.1       0.2       9.3       0.1       0.1       3.7
 0 C  px              1.7       7.7       0.5       1.6      26.0       2.2
 0 C  py              5.4       6.2       0.2       1.6       0.2      21.3
 0 C  dz2             0.1       0.1       0.0       0.0       0.1       0.2
 0 C  dx2y2           0.0       0.0       0.0       0.0       0.4       0.0
 0 C  dxy             0.0       0.0       0.0       0.1       0.1       0.1
 1 C  s               0.0       0.0       0.0       0.1       0.3       0.0
 1 C  pz              2.0       0.1       0.1       0.1       0.1       2.2
 1 C  px              9.2       4.4       0.6       0.0       5.0       5.9
 1 C  py              2.3       0.8       0.9       6.4       1.4      15.7
 1 C  dz2             0.0       0.0       0.0       0.0       0.0       0.2
 1 C  dx2y2           0.1       0.0       0.0       0.0       0.3       0.0
 1 C  dxy             0.0       0.0       0.0       0.0       0.1       0.2
 2 C  s               1.6       1.1       0.0       0.3       0.8       0.0
 2 C  pz              0.2       0.0       8.9       0.4       0.2       0.2
 2 C  px              2.8       5.8       0.1       0.2       5.5       0.7
 2 C  py              3.0       0.7       0.2       3.7       2.6       0.1
 2 C  dxz             0.0       0.0       0.1       0.0       0.0       0.0
 2 C  dx2y2           0.3       0.0       0.0       0.0       0.1       0.1
 2 C  dxy             0.1       0.0       0.0       0.3       0.3       0.5
 3 C  s               2.9       0.0       0.0       0.1       0.0       0.1
 3 C  pz              0.1       0.0       8.1       0.3       0.1       0.4
 3 C  px              0.3       1.5       0.1      10.9       2.4       2.7
 3 C  py              0.3       1.5       0.1      13.1       1.2       0.6
 3 C  dx2y2           0.0       0.4       0.0       0.1       0.0       0.0
 3 C  dxy             0.2       0.2       0.0       0.9       0.1       0.1
 4 C  s               1.6       0.2       0.0       0.6       0.3       0.0
 4 C  pz              0.5       0.4       9.1       0.4       0.4       0.8
 4 C  px              0.9       2.4       0.2       5.9       2.2       2.4
 4 C  py             13.5      14.6       0.7       1.4       0.1       0.1
 4 C  dx2y2           0.3       0.0       0.0       0.1       0.2       0.2
 4 C  dxy             0.2       0.3       0.0       0.5       0.0       0.0
 5 C  s               2.0       0.4       0.0       0.4       0.1       0.1
 5 C  pz              0.0       0.0      15.6       0.0       0.5       1.7
 5 C  px              3.0      10.8       0.0       3.3       7.5       4.1
 5 C  py              2.5       0.1       0.2       3.1       0.0       0.6
 5 C  dxz             0.0       0.0       0.1       0.0       0.0       0.0
 5 C  dx2y2           0.4       0.0       0.0       0.0       0.5       0.2
 5 C  dxy             0.1       0.1       0.0       0.0       0.0       0.0
 6 N  s               1.0       0.2       0.0       0.7       0.6       0.3
 6 N  pz              0.1       0.0      21.0       0.0       1.0       2.8
 6 N  px              0.3       0.3       0.0       4.6       1.8       0.9
 6 N  py              1.3       0.8       0.7       3.5       0.2       2.9
 6 N  dx2y2           0.0       0.2       0.0       0.0       0.2       0.1
 6 N  dxy             0.1       0.0       0.0       0.2       0.0       0.0
 7 C  s               0.6       0.1       0.0       0.2       0.8       0.7
 7 C  pz              0.6       0.2      15.1       0.0       1.0       0.4
 7 C  px              0.0       1.4       0.2       0.1       0.2       3.3
 7 C  py              6.0       8.3       0.6       7.9       6.6       0.2
 7 C  dx2y2           0.2       0.0       0.0       0.1       0.0       0.2
 7 C  dxy             0.0       0.2       0.0       0.0       0.1       0.1
 8 H  s               0.2       1.1       3.5       0.0       1.0       7.2
 9 H  s               2.6       2.2       2.2       0.7       0.8       0.8
10 H  s               1.2       5.2       0.3       0.3      15.5       0.0
11 H  s               4.0       0.5       0.1       1.8       0.1       0.8
12 H  s               0.0       0.1       0.0       0.2       0.0       4.4
13 H  s               0.7       0.2       0.1      18.2       0.2       1.4
14 H  s              12.1       9.3       0.0       0.4       0.7       0.7
15 H  s               4.9       4.1       0.1       0.9       6.5       3.3
16 H  s               5.0       5.6       0.0       3.7       3.0       1.9

                     24        25        26        27        28        29   
                  -0.31820  -0.30594  -0.25831  -0.22951  -0.19833  -0.05087
                   2.00000   2.00000   2.00000   2.00000   2.00000   0.00000
                  --------  --------  --------  --------  --------  --------
 0 C  pz             20.3       0.0       0.0       0.1       0.0       0.1
 0 C  px              1.0       3.7       0.1       0.2       0.2       0.1
 0 C  py              2.6       6.3       0.0       0.1       0.2       0.0
 0 C  dz2             0.0       0.1       0.0       0.0       0.0       0.0
 0 C  dyz             0.9       0.0       0.0       0.1       0.0       0.0
 0 C  dx2y2           0.0       0.4       0.0       0.0       0.0       0.0
 1 C  s               0.0       0.2       0.0       0.0       0.1       0.0
 1 C  pz             15.1       0.0       0.6       2.7       0.0       0.1
 1 C  px              1.2       8.1       0.0       0.0       0.8       0.0
 1 C  py              1.8       8.6       0.0       0.0       0.0       0.1
 1 C  dz2             0.0       0.2       0.0       0.0       0.0       0.0
 1 C  dxz             0.0       0.0       0.1       0.3       0.0       0.1
 1 C  dyz             0.8       0.0       0.0       0.2       0.0       0.0
 1 C  dx2y2           0.0       0.5       0.0       0.0       0.0       0.0
 2 C  s               0.1       0.4       0.0       0.0       0.5       0.0
 2 C  pz              1.3       0.1       5.3      22.7       0.1       2.4
 2 C  px              0.6       8.4       0.0       0.1       1.6       0.0
 2 C  py              0.3       5.4       0.1       0.6       2.7       0.1
 2 C  dz2             0.0       0.0       0.0       0.0       0.0       0.1
 2 C  dxz             0.1       0.0       0.0       0.2       0.0       0.0
 2 C  dyz             0.0       0.0       0.5       0.0       0.0       1.3
 2 C  dx2y2           0.0       0.6       0.0       0.0       0.1       0.1
 2 C  dxy             0.1       0.1       0.0       0.0       0.0       0.0
 3 C  pz              0.1       0.2      35.4       1.6       0.0      30.1
 3 C  px              0.4       4.2       0.1       0.0       0.0       0.1
 3 C  py              0.6       6.0       1.1       0.1       0.2       0.9
 3 C  dxz             0.0       0.0       0.1       0.4       0.0       0.3
 3 C  dyz             0.0       0.0       0.0       0.2       0.0       0.1
 3 C  dx2y2           0.0       0.2       0.0       0.0       0.0       0.0
 3 C  dxy             0.0       0.0       0.0       0.0       0.2       0.0
 4 C  s               0.0       0.0       0.0       0.0       0.6       0.0
 4 C  pz              1.4       0.0      19.6      15.7       0.1      12.9
 4 C  px              0.2       4.5       0.0       0.0       1.5       0.0
 4 C  py              0.1       1.6       0.5       0.5       2.4       0.4
 4 C  dxz             0.0       0.0       0.3       0.2       0.0       1.0
 4 C  dx2y2           0.0       0.3       0.0       0.0       0.1       0.0
 4 C  dxy             0.0       0.3       0.0       0.0       0.0       0.0
 5 C  s               0.0       0.1       0.0       0.0       0.4       0.0
 5 C  pz              3.4       0.0       0.8      24.3       0.1       3.4
 5 C  px              0.5       1.8       0.0       0.0       0.4       0.0
 5 C  py              0.1       1.0       0.0       0.7       3.9       0.1
 5 C  dz2             0.0       0.0       0.1       0.0       0.0       0.1
 5 C  dyz             0.0       0.0       0.7       0.1       0.1       1.4
 5 C  dx2y2           0.0       0.4       0.0       0.0       1.0       0.0
 5 C  dxy             0.0       0.0       0.0       0.0       0.8       0.0
 6 N  s               0.2       0.0       0.0       0.0       9.4       0.0
 6 N  pz              2.8       0.1      24.2       0.3       1.7      24.9
 6 N  px              0.1       2.5       0.1       0.0      20.2       0.1
 6 N  py              1.7       0.8       0.8       0.0      36.3       0.8
 6 N  dz2             0.0       0.0       0.0       0.0       0.1       0.0
 6 N  dxz             0.0       0.0       0.0       0.3       0.0       0.1
 6 N  dyz             0.0       0.0       0.0       0.2       0.0       0.0
 7 C  s               0.3       0.1       0.0       0.0       0.3       0.0
 7 C  pz              0.1       0.0       7.0      21.4       0.1      16.4
 7 C  px              0.7       1.2       0.0       0.1       3.5       0.0
 7 C  py              0.0       1.9       0.2       0.6       1.0       0.5
 7 C  dxz             0.1       0.0       0.5       0.1       0.1       1.1
 7 C  dx2y2           0.1       0.6       0.0       0.0       0.1       0.0
 7 C  dxy             0.0       0.1       0.0       0.0       1.8       0.0
 8 H  s               8.8       2.0       0.0       0.3       0.0       0.1
 9 H  s              13.7       2.2       0.0       0.2       0.0       0.1
10 H  s               0.0       5.5       0.1       0.1       0.1       0.0
11 H  s               9.4       5.5       0.4       1.6       0.1       0.1
12 H  s               7.4       2.2       0.7       3.3       0.0       0.2
13 H  s               0.5       0.2       0.0       0.0       0.8       0.0
14 H  s               0.0       4.6       0.0       0.0       0.8       0.0
15 H  s               0.3       2.6       0.0       0.0       2.6       0.0
16 H  s               0.3       4.0       0.0       0.0       2.8       0.0

                     30        31        32        33        34        35   
                  -0.04228   0.03851   0.05514   0.07115   0.07866   0.09834
                   0.00000   0.00000   0.00000   0.00000   0.00000   0.00000
                  --------  --------  --------  --------  --------  --------
 0 C  s               0.1      14.4       0.3       4.7       4.1       0.7
 0 C  pz              0.0       0.1       0.5       1.0       3.3       3.0
 0 C  px              0.1       1.0       0.8       0.7       0.0       1.7
 0 C  py              0.1       1.7       0.5       0.9       0.3       1.1
 0 C  dyz             0.0       0.0       0.0       0.1       0.5       0.1
 0 C  dx2y2           0.0       0.1       0.1       0.3       0.0       0.0
 1 C  s               0.0       4.7       6.1       1.4       2.0       0.6
 1 C  pz              0.1       0.2       0.0       3.3       8.1       0.1
 1 C  px              0.0       0.7       0.0       1.6       0.8       0.6
 1 C  py              0.0       3.4       1.6       1.3       0.2       0.0
 1 C  dz2             0.0       0.3       0.0       0.1       0.1       0.0
 1 C  dxz             0.7       0.0       0.0       0.0       0.1       0.1
 1 C  dyz             0.2       0.0       0.0       0.2       0.8       0.0
 1 C  dx2y2           0.0       0.0       0.0       0.4       0.1       0.0
 1 C  dxy             0.0       0.1       0.1       0.1       0.1       0.1
 2 C  s               0.0       0.1       0.1       0.5       0.1       0.6
 2 C  pz             26.0       0.0       0.1       0.4       3.2       0.1
 2 C  px              0.1       0.2       0.1       0.2       0.0       0.8
 2 C  py              0.8       0.0       0.6       0.3       0.1       0.1
 2 C  dz2             0.0       0.1       0.1       0.0       0.0       0.0
 2 C  dxz             0.2       0.0       0.0       0.2       0.5       0.1
 2 C  dx2y2           0.0       0.3       0.3       0.2       0.0       0.9
 2 C  dxy             0.0       0.1       0.7       0.0       0.0       0.1
 3 C  s               0.0       3.1       1.6       0.0       0.1       1.8
 3 C  pz              1.5       0.1       0.1       0.9       3.1       1.1
 3 C  px              0.0       1.5       0.8       0.1       0.0       1.9
 3 C  py              0.0       0.8       3.3       0.4       0.1       1.0
 3 C  dxz             0.8       0.0       0.0       0.0       0.1       0.0
 3 C  dyz             0.6       0.0       0.0       0.0       0.1       0.0
 3 C  dx2y2           0.0       0.0       0.1       0.0       0.0       0.4
 3 C  dxy             0.0       0.1       0.8       0.2       0.0       0.0
 4 C  s               0.0       0.2       4.2       0.8       0.2       0.1
 4 C  pz             15.9       0.1       0.1       1.6       5.5       0.9
 4 C  px              0.0       0.4       0.7       0.1       0.0       0.3
 4 C  py              0.4       0.5       5.6       1.5       0.1       1.2
 4 C  dxz             0.3       0.0       0.0       0.0       0.0       0.0
 4 C  dyz             0.5       0.0       0.0       0.1       0.1       0.0
 4 C  dx2y2           0.0       0.1       0.3       0.0       0.0       0.1
 4 C  dxy             0.0       0.1       0.6       0.0       0.0       0.0
 5 C  s               0.0       0.3       1.0       1.4       0.2       2.1
 5 C  pz             27.1       0.1       0.0       1.7       5.5       0.5
 5 C  px              0.1       0.1       2.2       1.5       0.2       5.1
 5 C  py              0.8       0.2       0.4       0.3       0.1       0.2
 5 C  dxz             0.3       0.0       0.0       0.1       0.2       0.0
 5 C  dx2y2           0.0       0.1       0.5       0.1       0.0       0.0
 6 N  s               0.0       0.1       0.1       0.1       0.0       0.1
 6 N  pz              1.1       0.2       0.0       1.3       4.4       0.4
 6 N  px              0.0       0.0       0.1       0.2       0.0       0.4
 6 N  py              0.0       0.0       0.3       0.3       0.1       0.2
 6 N  dxz             0.6       0.0       0.0       0.0       0.0       0.0
 6 N  dyz             0.4       0.0       0.0       0.0       0.1       0.0
 6 N  dxy             0.0       0.0       0.0       0.4       0.0       0.0
 7 C  s               0.0       0.4       0.2       2.9       0.6       2.6
 7 C  pz             15.0       0.1       0.0       0.4       3.0       0.1
 7 C  px              0.0       0.3       0.2       0.3       0.1       2.0
 7 C  py              0.5       0.2       0.3       4.7       0.2       3.5
 7 C  dxz             0.4       0.0       0.0       0.1       0.1       0.0
 7 C  dyz             0.4       0.0       0.0       0.0       0.1       0.0
 7 C  dx2y2           0.0       0.0       0.1       0.0       0.0       0.3
 8 H  s               0.1       7.1       0.3       1.6      15.1       2.3
 9 H  s               0.0      13.0       0.9      13.0       0.2       4.6
10 H  s               0.0      11.3       2.5       0.4       2.2       7.7
11 H  s               1.3       8.3       9.9      15.6       2.2       0.0
12 H  s               2.5       9.4       5.9       0.4      26.7       0.5
13 H  s               0.0       9.9      13.2       0.8       0.8       9.1
14 H  s               0.0       1.7      23.8       4.4       0.6       4.2
15 H  s               0.0       0.9       6.8       6.0       1.0      16.4
16 H  s               0.0       1.7       0.4      17.9       2.3      17.4

                     36        37        38        39        40        41   
                   0.10830   0.11356   0.11681   0.14187   0.15146   0.16764
                   0.00000   0.00000   0.00000   0.00000   0.00000   0.00000
                  --------  --------  --------  --------  --------  --------
 0 C  s               0.0       0.6       1.1       0.5       3.4       1.2
 0 C  pz              6.4       4.2       1.2       2.6       4.7       0.2
 0 C  px             11.5       1.7       0.1       1.9       2.9       8.0
 0 C  py              4.9       2.9       0.3       0.2       0.1      14.2
 0 C  dz2             0.9       0.3       0.0       0.0       0.1       1.0
 0 C  dxz             0.2       0.0       0.0       0.6       0.1       0.0
 0 C  dyz             0.2       0.5       0.0       0.0       0.1       0.1
 0 C  dx2y2           0.3       0.1       0.0       0.0       0.3       0.2
 0 C  dxy             0.1       0.0       0.0       0.0       0.8       3.1
 1 C  s               0.3       3.3       2.5       0.7       1.7       3.4
 1 C  pz              0.0       0.7       0.1      11.4       1.1       1.6
 1 C  px              0.2       0.0       0.2       0.2       0.4       2.6
 1 C  py              0.1       0.1       0.4       2.4       0.9      12.8
 1 C  dz2             0.0       0.0       0.0       0.0       0.3       1.5
 1 C  dxz             0.2       0.5       0.0       0.0       0.0       0.0
 1 C  dyz             0.1       0.0       0.0       0.2       0.0       0.2
 1 C  dx2y2           0.7       0.2       0.0       0.0       0.0       0.2
 1 C  dxy             0.2       0.1       0.0       0.2       0.0       2.7
 2 C  s               0.3       0.1       0.2       0.0       0.0       2.0
 2 C  pz              0.5       5.7       0.2       5.1       0.2       1.1
 2 C  px              0.4       0.5       0.2       0.3       0.0       0.1
 2 C  py              0.0       0.4       0.2       0.9       0.8       0.7
 2 C  dz2             0.2       0.0       0.1       0.0       0.0       0.4
 2 C  dxz             0.1       0.1       0.0       0.1       0.1       0.0
 2 C  dx2y2           0.0       0.5       0.1       0.0       0.0       1.2
 2 C  dxy             0.0       0.0       0.0       0.3       0.1       1.5
 3 C  s               0.5       0.2       0.1       1.0       5.7       2.2
 3 C  pz              1.5       7.0       0.1       2.0       0.1       0.2
 3 C  px              0.4       0.4       0.3       0.1       0.5       0.9
 3 C  py              0.2       0.3       0.3       0.4       5.2       2.3
 3 C  dz2             0.1       0.0       0.0       0.0       0.2       0.2
 3 C  dyz             0.0       0.2       0.0       0.3       0.0       0.0
 3 C  dx2y2           0.0       0.1       0.1       0.1       0.0       0.4
 3 C  dxy             0.0       0.0       0.0       0.1       0.0       0.1
 4 C  s               0.1       0.2       4.7       0.5       2.7       0.1
 4 C  pz              0.9       6.5       0.0       1.4       0.0       0.2
 4 C  px              0.0       0.0       1.0       0.1       0.3       0.6
 4 C  py              0.1       0.1       2.9       0.1       1.1       0.1
 4 C  dz2             0.0       0.1       0.2       0.0       0.3       0.0
 4 C  dxz             0.0       0.1       0.0       0.0       0.0       0.0
 4 C  dyz             0.0       0.2       0.0       0.1       0.0       0.0
 4 C  dx2y2           0.0       0.0       0.0       0.1       0.4       0.4
 4 C  dxy             0.0       0.0       0.1       0.0       0.2       0.3
 5 C  s               0.2       0.6       6.7       0.0       0.6       1.2
 5 C  pz              1.0       5.5       0.1       1.6       0.1       0.2
 5 C  px              0.4       1.4       4.3       0.1       0.2       0.6
 5 C  py              0.0       0.1       0.1       0.4       0.9       1.4
 5 C  dz2             0.0       0.0       0.3       0.0       0.0       0.4
 5 C  dxz             0.0       0.2       0.0       0.1       0.0       0.0
 5 C  dxy             0.0       0.0       0.0       0.1       0.2       0.4
 6 N  s               0.1       0.1       0.1       0.0       0.3       5.3
 6 N  pz              0.8       5.6       0.1       3.1       0.1       0.0
 6 N  px              0.1       0.1       0.1       0.1       0.0       1.1
 6 N  py              0.1       0.1       0.6       0.0       0.0       0.3
 6 N  dxy             0.0       0.0       0.4       0.0       0.0       0.0
 7 C  s               1.1       0.5       0.6       1.6       0.5       2.4
 7 C  pz              0.8       6.0       0.3       4.7       0.5       0.3
 7 C  px              0.1       0.8       0.0       0.3       0.1       6.6
 7 C  py              0.1       1.0       1.8       1.9       1.3       0.2
 7 C  dz2             0.0       0.1       0.1       0.0       0.1       1.0
 7 C  dyz             0.0       0.1       0.0       0.4       0.0       0.1
 7 C  dx2y2           0.0       0.3       0.1       0.0       0.0       2.1
 7 C  dxy             0.0       0.0       0.1       0.0       0.0       0.2
 8 H  s              31.3       2.3       0.2       4.5       0.5       0.6
 9 H  s               0.0       9.4       4.4       1.0      16.7       2.0
10 H  s              26.7      10.1       1.2       4.9       1.8       0.8
11 H  s               0.2       0.8       2.4      25.1       0.3       1.3
12 H  s               0.4       5.5       4.2       6.7       4.1       2.1
13 H  s               0.9       0.5       0.2       2.0      22.8       0.1
14 H  s               0.0       0.2      21.3       0.4       9.9       0.0
15 H  s               1.2       4.4      27.3       0.4       1.5       0.9
16 H  s               2.4       5.9       5.8       6.3       2.6       0.1

                     42        43        44        45        46        47   
                   0.19901   0.21775   0.26113   0.26891   0.29966   0.31661
                   0.00000   0.00000   0.00000   0.00000   0.00000   0.00000
                  --------  --------  --------  --------  --------  --------
 0 C  s               0.0       0.2       0.6       0.1       0.0       0.9
 0 C  pz              0.4       0.0       0.4       0.1       0.1       0.1
 0 C  px              1.7       1.2       2.3       0.5       0.2       5.0
 0 C  py              1.3       3.3       6.3       1.0       0.5       5.2
 0 C  dz2             0.0       0.4       1.0       0.4       0.0       0.4
 0 C  dyz             0.0       0.1       0.3       0.0       0.0       0.2
 0 C  dx2y2           0.5       0.9       0.0       0.1       0.2       0.3
 0 C  dxy             1.6       0.2       0.4       0.0       0.0       1.6
 1 C  s               3.1       0.2       0.2       0.9       0.4       0.9
 1 C  pz              0.5       0.2       1.1       0.0       0.1       0.0
 1 C  px             13.0      12.8       2.7       4.3       0.7       1.1
 1 C  py              6.8       1.2       1.7       0.0       2.7       3.8
 1 C  dz2             2.9       0.4       0.1       0.1       0.3       0.0
 1 C  dyz             0.1       0.0       0.2       0.0       0.0       0.0
 1 C  dx2y2           1.9       1.8       0.0       0.5       1.2       0.1
 1 C  dxy             0.4       1.2       0.5       0.1       0.1       1.1
 2 C  s               6.9       9.5       7.7       4.7       3.7       1.2
 2 C  pz              0.0       0.2       0.1       0.0       0.2       0.2
 2 C  px              7.8       2.5       4.1       3.5       0.5       0.0
 2 C  py              0.4       0.1       0.3       2.1      10.6       3.5
 2 C  dz2             1.3       0.6       1.9       0.1       0.4       0.0
[...]
 4 C  s               0.0       0.1       0.0       0.1       1.0       0.0
 4 C  px              0.8       0.0       0.5       3.9       0.2       0.0
 4 C  py              0.2       0.0       0.0       0.8       0.6       0.0
 4 C  dz2             0.5       0.1       0.2       0.4       1.5       0.3
 4 C  dxz             0.0       0.9       0.2       0.0       1.0       4.3
 4 C  dyz             0.0       0.5       0.3       0.6       0.1       1.0
 4 C  dx2y2           0.0       0.0       2.1      21.2       5.1       0.0
 4 C  dxy             1.1       0.0       5.9       5.5      14.4       0.5
 5 C  s               0.7       0.0       2.8       0.6       0.6       0.0
 5 C  pz              0.0       0.5       0.0       0.1       0.1       0.1
 5 C  px              0.3       0.0       0.9       0.4       0.3       0.0
 5 C  py              0.0       0.1       0.1       1.7       1.6       0.0
 5 C  dz2             1.0       0.4       3.3       0.0       0.4       1.2
 5 C  dxz             0.3       5.4       0.0       0.5       0.0       0.0
 5 C  dyz             1.9       6.1       0.0       0.0       0.4      14.2
 5 C  dx2y2           2.5       0.7       4.1       1.0      12.8       0.3
 5 C  dxy             0.1       0.2       0.6      14.7       1.0       0.0
 6 N  s               0.3       0.0       2.8       2.1       0.3       0.0
 6 N  pz              0.1       2.2       0.1       0.0       0.0       0.0
 6 N  px              0.3       0.0       0.6       0.4       1.5       0.0
 6 N  py              0.5       0.0       1.4       0.9       0.4       0.0
 6 N  dz2             2.2       3.9      28.8       3.9       2.6       0.3
 6 N  dxz             1.0      15.2       0.9       0.2       0.1      32.5
 6 N  dyz             1.8      31.6       4.9       0.3       0.1      16.0
 6 N  dx2y2           0.0       0.7       1.6       0.2       0.5       1.2
 6 N  dxy             0.1       1.9      10.7       2.2       0.6       0.5
 7 C  s               1.3       0.2       1.2       0.1       1.0       0.0
 7 C  pz              0.1       0.4       0.0       0.0       0.0       0.1
 7 C  px              0.8       0.1       0.2       1.2       0.0       0.0
 7 C  py              0.7       0.2       0.4       0.4       0.1       0.0
 7 C  dz2             5.2       0.9       2.1       0.0       1.5       0.2
 7 C  dxz             0.1       9.7       0.1       0.2       0.1      15.0
 7 C  dyz             1.2       1.8       0.3       0.2       0.0       0.9
 7 C  dx2y2           0.1       0.8       0.7       2.0      10.8       0.0
 7 C  dxy             5.3       0.0       3.5       9.5       3.2       0.4
12 H  s               0.3       0.1       0.0       0.0       0.0       0.0
13 H  s               0.1       0.0       0.2       0.0       0.1       0.0
14 H  s               0.2       0.0       0.0       0.0       0.9       0.0
15 H  s               0.1       0.0       0.5       0.0       0.7       0.0
16 H  s               0.0       0.0       0.5       0.1       0.5       0.0

                    126       127       128       129   
                   2.81509   2.83452   3.17993   3.38491
                   0.00000   0.00000   0.00000   0.00000
                  --------  --------  --------  --------
 0 C  s               0.0       0.1       0.0       0.0
 0 C  py              0.0       0.2       0.0       0.0
 0 C  dyz             0.0       0.2       0.0       0.0
 0 C  dx2y2           0.0       1.8       0.1       0.0
 0 C  dxy             0.4       0.3       0.0       0.0
 1 C  s               0.4       0.1       0.0       0.1
 1 C  px              1.2       0.1       0.0       0.3
 1 C  dz2             0.5       0.3       0.0       0.0
 1 C  dx2y2           4.6       1.3       0.2       0.6
 1 C  dxy             0.9       8.2       0.5       0.2
 2 C  s               0.1       0.3       0.0       0.5
 2 C  px              0.6       0.0       0.2       0.2
 2 C  py              1.0       2.3       0.5       0.0
 2 C  dz2             0.4       0.1       0.0       0.1
 2 C  dxz             0.0       0.7       0.1       0.0
 2 C  dyz             0.3       0.0       0.0       0.5
 2 C  dx2y2          17.5       2.3       0.4      10.0
 2 C  dxy             0.9      30.7       3.3       1.1
 3 C  s               0.8       0.2       0.0       0.6
 3 C  px              0.0       2.0       0.4       0.0
 3 C  py              0.3       2.3       0.2       0.0
 3 C  dz2             0.3       0.0       0.0       0.4
 3 C  dxz             0.3       0.2       0.0       0.1
 3 C  dyz             0.0       0.8       0.0       0.0
 3 C  dx2y2           1.8      18.6       1.2       1.0
 3 C  dxy            14.3       0.8       0.1       7.7
 4 C  s               0.0       0.9       0.0       0.9
 4 C  px              0.7       1.5       0.5       0.0
 4 C  py              0.4       0.0       0.2       0.1
 4 C  dz2             0.0       0.1       0.0       0.5
 4 C  dxz             0.2       0.0       0.0       0.3
 4 C  dx2y2           1.0       2.6       1.4       4.0
 4 C  dxy             2.8       1.3       0.5       5.4
 5 C  s               0.7       1.2       1.5       1.4
 5 C  px              0.1       0.4       0.3       0.0
 5 C  py              1.6       0.2       3.6       0.1
 5 C  dz2             1.1       0.3       0.2       0.8
 5 C  dxz             0.0       0.0       0.2       0.0
 5 C  dyz             0.4       0.0       0.0       0.8
 5 C  dx2y2           1.0       0.1       0.6      11.9
 5 C  dxy             0.4       0.3       7.1       0.6
 6 N  s               2.6       0.2       0.0       1.8
 6 N  px              0.1       0.5       4.3       0.1
 6 N  py              0.3       0.4       2.1       0.1
 6 N  dz2            18.5       0.1       0.1       3.2
 6 N  dxz             0.0       0.2       0.5       0.4
 6 N  dyz             0.7       0.4       1.1       0.0
 6 N  dx2y2           1.7       7.4      47.5       2.5
 6 N  dxy            11.6       1.1       4.5      23.6
 7 C  s               1.0       2.2       1.7       1.4
 7 C  px              2.0       0.0       4.5       0.2
 7 C  py              0.0       1.3       0.0       0.0
 7 C  dz2             1.7       0.3       0.2       1.1
 7 C  dxz             0.0       0.0       0.0       0.4
 7 C  dyz             0.3       0.2       0.1       0.0
 7 C  dx2y2           0.6       1.2       5.6       6.8
 7 C  dxy             0.4       0.8       3.9       6.7
13 H  s               0.8       0.0       0.0       0.3
14 H  s               0.3       0.0       0.0       0.3
15 H  s               0.0       0.0       0.0       0.3
16 H  s               0.1       0.0       0.0       0.3


                      *****************************
                      * MAYER POPULATION ANALYSIS *
                      *****************************

  NA   - Mulliken gross atomic population
  ZA   - Total nuclear charge
  QA   - Mulliken gross atomic charge
  VA   - Mayer's total valence
  BVA  - Mayer's bonded valence
  FA   - Mayer's free valence

  ATOM       NA         ZA         QA         VA         BVA        FA
  0 C      6.2812     6.0000    -0.2812     4.0628     4.0628    -0.0000
  1 C      6.1428     6.0000    -0.1428     4.0495     4.0495     0.0000
  2 C      5.9988     6.0000     0.0012     3.9760     3.9760    -0.0000
  3 C      6.0750     6.0000    -0.0750     3.9088     3.9088     0.0000
  4 C      6.0645     6.0000    -0.0645     3.8305     3.8305    -0.0000
  5 C      6.0605     6.0000    -0.0605     4.0153     4.0153    -0.0000
  6 N      7.0485     7.0000    -0.0485     3.2378     3.2378    -0.0000
  7 C      6.1051     6.0000    -0.1051     4.0209     4.0209     0.0000
  8 H      0.8899     1.0000     0.1101     0.9535     0.9535    -0.0000
  9 H      0.8872     1.0000     0.1128     0.9484     0.9484    -0.0000
 10 H      0.8912     1.0000     0.1088     0.9499     0.9499    -0.0000
 11 H      0.9006     1.0000     0.0994     0.9497     0.9497    -0.0000
 12 H      0.8893     1.0000     0.1107     0.9415     0.9415    -0.0000
 13 H      0.9454     1.0000     0.0546     0.9675     0.9675     0.0000
 14 H      0.9411     1.0000     0.0589     0.9541     0.9541    -0.0000
 15 H      0.9330     1.0000     0.0670     0.9559     0.9559     0.0000
 16 H      0.9457     1.0000     0.0543     0.9674     0.9674     0.0000

  Mayer bond orders larger than 0.100000
B(  0-C ,  1-C ) :   1.1838 B(  0-C ,  8-H ) :   0.9539 B(  0-C ,  9-H ) :   0.9393 
B(  0-C , 10-H ) :   0.9477 B(  1-C ,  2-C ) :   1.0542 B(  1-C , 11-H ) :   0.9113 
B(  1-C , 12-H ) :   0.8979 B(  2-C ,  3-C ) :   1.4406 B(  2-C ,  7-C ) :   1.3505 
B(  3-C ,  4-C ) :   1.3946 B(  3-C , 13-H ) :   0.9484 B(  4-C ,  5-C ) :   1.3879 
B(  4-C , 14-H ) :   0.9452 B(  5-C ,  6-N ) :   1.5394 B(  5-C , 15-H ) :   0.9533 
B(  6-N ,  7-C ) :   1.5740 B(  7-C , 16-H ) :   0.9547 

-------
TIMINGS
-------

Total SCF time: 0 days 0 hours 0 min 6 sec 

Total time                  ....       6.573 sec
Sum of individual times     ....       6.542 sec  ( 99.5%)

SCF preparation             ....       1.072 sec  ( 16.3%)
Fock matrix formation       ....       2.678 sec  ( 40.7%)
  Startup                   ....       0.007 sec  (  0.3% of F)
  Split-RI-J                ....       1.149 sec  ( 42.9% of F)
  XC integration            ....       1.444 sec  ( 53.9% of F)
    Basis function eval.    ....       0.594 sec  ( 41.1% of XC)
    Density eval.           ....       0.292 sec  ( 20.2% of XC)
    XC-Functional eval.     ....       0.111 sec  (  7.7% of XC)
    XC-Potential eval.      ....       0.322 sec  ( 22.3% of XC)
Diagonalization             ....       0.000 sec  (  0.0%)
Density matrix formation    ....       0.026 sec  (  0.4%)
Total Energy calculation    ....       0.001 sec  (  0.0%)
Population analysis         ....       2.689 sec  ( 40.9%)
Orbital Transformation      ....       0.011 sec  (  0.2%)
Orbital Orthonormalization  ....       0.000 sec  (  0.0%)
DIIS solution               ....       0.052 sec  (  0.8%)
  MO trafo                  ....       0.000 sec  (  0.0 % of DIIS)
  Orb grad                  ....       0.000 sec  (  0.0 % of DIIS)
  Energy W gradient         ....       0.000 sec  (  0.0 % of DIIS)
  DIIS error                ....       0.002 sec  (  3.7 % of DIIS)
  DIIS work                 ....       0.043 sec  ( 84.3 % of DIIS)
  Form Q                    ....       0.000 sec  (  0.0 % of DIIS)
  Form QpQm                 ....       0.000 sec  (  0.0 % of DIIS)
  Exp/Cayley                ....       0.000 sec  (  0.0 % of DIIS)
  Orb update                ....       0.000 sec  (  0.0 % of DIIS)
  Wake-sleep                ....       0.001 sec  (  1.6 % of DIIS)
SOSCF solution              ....       0.014 sec  (  0.2%)
  MO trafo                  ....       0.009 sec  ( 61.4 % of SOSCF)
  Orb grad                  ....       0.000 sec  (  1.0 % of SOSCF)
  Rot update                ....       0.001 sec  ( 10.2 % of SOSCF)
  Step                      ....       0.004 sec  ( 27.2 % of SOSCF)
Finished LeanSCF after   9.4 sec

Maximum memory used throughout the entire LEANSCF-calculation: 12.5 MB


-------------------------------------------------------------------------------
                          DFT DISPERSION CORRECTION                            
                                                                               
                                DFTD4 V3.4.0                                   
-------------------------------------------------------------------------------
The PBE functional is recognized
Active option DFTDOPT                   ...         5   

-------------------------   ----------------
Dispersion correction           -0.016217148
-------------------------   ----------------

------------------   -----------------
gCP correction             0.065775877
------------------   -----------------

-------------------------   --------------------
FINAL SINGLE POINT ENERGY      -326.176187742930
-------------------------   --------------------


------------------------------------------------------------------------------
                              ORCA PROPERTY CALCULATIONS
------------------------------------------------------------------------------

GBWName                                 ... sp.gbw
Number of atoms                         ...     17
Number of basis functions               ...    130
Max core memory                         ...   1024 MB

Electric properties:
Dipole moment                           ... YES
Quadrupole moment                       ...  NO
Static polarizability (Dipole/Dipole)   ...  NO
Static polarizability (Dipole/Quad.)    ...  NO
Static polarizability (Quad./Quad.)     ...  NO
Static polarizability (Velocity)        ...  NO

Atomic electric properties:
Dipole moment                           ...  NO
Quadrupole moment                       ...  NO
Static polarizability                   ...  NO

Choice of electric origin               ... Center of mass
Position of electric origin             ...     0.000007     0.000001    -0.000001

General magnetic properties:
Magnetizability                         ...  NO

EPR properties:
g-Tensor (aka g-matrix)                 ...  NO
Zero-Field splitting spin-orbit         ...  NO
Zero-field splitting spin-spin          ...  NO
Hyperfine couplings                     ...  NO (   0 nuclei)
Quadrupole couplings                    ...  NO (   0 nuclei)
Contact density                         ...  NO (   0 nuclei)

NMR properties:
Chemical shifts                         ...  NO (   0 nuclei)
Spin-rotation constants                 ...  NO (   0 nuclei)
Spin-spin couplings                     ...  NO (   0 nuclei,    0 pairs)

Choice of magnetic origin               ... GIAO
Position of magnetic origin             ...     0.000000     0.000000     0.000000

Properties with geometric perturbations:
SCF Hessian                             ...  NO
IR spectrum                             ...  NO
VCD spectrum                            ...  NO
X-ray spectroscopy properties:
SCF XES/XAS/RIXS spectra                ...  NO


-------------
DIPOLE MOMENT
-------------

Method             : SCF
Type of density    : Electron Density
Multiplicity       :   1
Irrep              :   0
Energy             :  -326.2257464721317319 Eh
Relativity type    : 
Basis              : AO
                                X                 Y                 Z
Electronic contribution:     -7.771128134       2.092699234      -0.050114615
Nuclear contribution   :      8.477368628      -2.673352436       0.199847289
                        -----------------------------------------
Total Dipole Moment    :      0.706240494      -0.580653201       0.149732674
                        -----------------------------------------
Magnitude (a.u.)       :      0.926473771
Magnitude (Debye)      :      2.354909179



--------------------
Rotational spectrum 
--------------------
 
Rotational constants in cm-1:             0.166872             0.050156             0.039378 
Rotational constants in MHz :          5002.691831          1503.653545          1180.515469 

Dipole components along the rotational axes: 
x,y,z [a.u.] :     0.760046    -0.524172     0.076991 
x,y,z [Debye]:     1.931883    -1.332340     0.195695 

 

Dipole moment calculation done in   1.1 sec 

Maximum memory used throughout the entire PROP-calculation: 8.0 MB

--------------------------------
SUGGESTED CITATIONS FOR THIS RUN
--------------------------------

Below you find a list of papers that are relevant to this ORCA run
We neither can nor want to force you to cite these papers, but we appreciate if you do
You receive ORCA, which is the product of decades of hard work by many enthusiastic individuals, for free
The only thing we kindly ask in return is that you cite our papers,
We deeply appreciate it, if you show your appreciation for ORCA by not just citing the generic ORCA reference.

Please note that relegating all ORCA citations to the supporting information does *not* help us.
SI sections are not indexed - citations you put there will not count into any citation statistics
But we need these citations in order to attract the funding resources that allow us to do what we are doing

Therefore, if you are a happy ORCA user, please consider citing a few of the papers listed below in the main body of your paper

In addition to the list printed below, the program has created the file sp.bibtex that contains the list in bibtex format
You can import this file easily into all common literature databanks and citation aid programs


List of essential papers. We consider these as the minimum necessary citations

  1. Neese,F.
     Software update: the ORCA program system, version 5.0
     WIRES Comput. Molec. Sci., 2022 12(1)e1606
     doi.org/10.1002/wcms.1606

List of papers to cite with high priority. The work reported in these papers was absolutely
necessary for this run to complete.
Our perspective: the developers of density functionals and basis sets usually get cited in chemistry papers
Good! But without the algorithms to do something with them, the functionals or basis sets would not do anything.
Hence, in our opinion, the algorithm design and method developments papers are equally worthy of getting cited

  1. Neese,F.
     An improvement of the resolution of the identity approximation for the formation of the Coulomb matrix
     J. Comp. Chem., 2003 24(14)1740-1747
     doi.org/10.1002/jcc.10318
  2. Neese,F.
     The SHARK Integral Generation and Digestion System
     J. Comp. Chem., 2022  1-16
     doi.org/10.1002/jcc.26942
  3. Caldeweyher,E.; Bannwarth,C.; Grimme,S.
     Extension of the D3 dispersion coefficient model
     J. Chem. Phys., 2017 147 034112
     doi.org/10.1063/1.4993215
  4. Caldeweyher,E.; Ehlert,S.; Hansen,A.; Neugebauer,H.; Spicher,S.; Bannwarth,C.; Grimme,S.
     A generally applicable atomic-charge dependent London dispersion correction
     J. Chem. Phys., 2019 150 154122
     doi.org/10.1063/1.5090222
  5. Caldeweyher,E.; Mewes,J.; Ehlert,S.; Grimme,S.
     Extension and evaluation of the D4 London-dispersion model for periodic systems
     Phys. Chem. Chem. Phys., 2020 22(16)8499-8512
     doi.org/10.1039/D0CP00502A
  6. Wittmann,L.; Gordiy,I.; Friede,M.; Helmich-Paris,B.; Grimme,S.; Hansen,A.; Bursch,M.
     Extension of the D3 and D4 London Dispersion Corrections to the full Actinides Series
     Phys. Chem. Chem. Phys., 2024 26(32)21379-21394
     doi.org/https://doi.org/10.1039/D4CP01514B 

List of suggested additional citations. These are papers that are important in the 'surrounding' of 
of this run, or papers that preceded the highly important papers. If you like your results we are grateful for a citation.

  1. Neese,F.
     The ORCA program system
     WIRES Comput. Molec. Sci., 2012 2(1)73-78
     doi.org/10.1002/wcms.81
  2. Neese,F.
     Software update: the ORCA program system, version 4.0
     WIRES Comput. Molec. Sci., 2018 8(1)1-6
     doi.org/10.1002/wcms.1327
  3. Neese,F.; Wennmohs,F.; Becker,U.; Riplinger,C.
     The ORCA quantum chemistry program package
     J. Chem. Phys., 2020 152 Art. No. L224108
     doi.org/10.1063/5.0004608

List of optional additional citations

  1. Neese,F.
     Approximate second-order SCF convergence for spin unrestricted wavefunctions
     Chem. Phys. Lett., 2000 325(1-3)93-98
     doi.org/10.1016/s0009-2614(00)00662-x

Timings for individual modules:

Sum of individual times          ...       11.395 sec (=   0.190 min)
Startup calculation              ...        0.373 sec (=   0.006 min)   3.3 %
SCF iterations                   ...        9.908 sec (=   0.165 min)  86.9 %
Property calculations            ...        1.115 sec (=   0.019 min)   9.8 %
                             ****ORCA TERMINATED NORMALLY****
TOTAL RUN TIME: 0 days 0 hours 0 minutes 14 seconds 515 msec
