 Entering Gaussian System
 *********************************************
 Gaussian 98:
 frequency output generated by the xtb code
 *********************************************
                         Standard orientation:
 --------------------------------------------------------------------
  Center     Atomic     Atomic              Coordinates (Angstroms)
  Number     Number      Type              X           Y           Z
 --------------------------------------------------------------------
    1          6             0        1.200865   -1.231342   -0.675697
    2          6             0        0.671315   -0.283651    0.406827
    3          6             0        1.593663    0.922498    0.561750
    4          6             0       -0.721692    0.160475   -0.020200
    5          8             0       -0.906579    1.084622   -0.769240
    6          6             0       -1.848057   -0.663947    0.550570
    7          1             0        0.555959   -2.100781   -0.784781
    8          1             0        1.247724   -0.713168   -1.630705
    9          1             0        2.200126   -1.573001   -0.415706
   10          1             0        0.604128   -0.827045    1.354233
   11          1             0        1.593188    1.504925   -0.356092
   12          1             0        2.609803    0.600359    0.776198
   13          1             0        1.251551    1.561973    1.372497
   14          1             0       -2.785396   -0.418567    0.058477
   15          1             0       -1.936821   -0.445112    1.613592
   16          1             0       -1.635785   -1.724649    0.441704
 --------------------------------------------------------------------
     1 basis functions        1 primitive gaussians
     1 alpha electrons        1 beta electrons
 
 Harmonic frequencies (cm**-1), IR intensities (km*mol⁻¹),
 Raman scattering activities (A**4/amu), Raman depolarization ratios,
 reduced masses (AMU), force constants (mDyne/A) and normal coordinates:
                      1                      2                      3
                        a                      a                      a 
 Frequencies --    43.8273               123.7415               180.9126
 Red. masses --    10.4139                 1.2573                 1.6553
 Frc consts  --     0.0000                 0.0000                 0.0000
 IR Inten    --     3.4288                 0.8214                 0.0164
 Raman Activ --     0.0000                 0.0000                 0.0000
 Depolar     --     0.0000                 0.0000                 0.0000
 Atom AN      X      Y      Z        X      Y      Z        X      Y      Z
   1   6    -0.11  -0.22   0.27    -0.05   0.05  -0.10     0.09   0.00  -0.10
   2   6     0.01   0.10   0.05     0.01  -0.01  -0.01    -0.01  -0.07  -0.08
   3   6     0.11   0.07  -0.32     0.04  -0.04   0.05    -0.05  -0.05   0.03
   4   6     0.00   0.06   0.03     0.01  -0.02  -0.01    -0.01  -0.02  -0.02
   5   8    -0.06   0.34   0.39    -0.01   0.00   0.03    -0.01   0.07   0.09
   6   6     0.05  -0.28  -0.36     0.01  -0.01   0.02    -0.02   0.05   0.06
   7   1    -0.04  -0.07   0.15    -0.05   0.05  -0.08     0.18  -0.13   0.13
   8   1    -0.04  -0.14   0.04     0.03   0.05  -0.01    -0.21  -0.06  -0.07
   9   1    -0.03  -0.06   0.09    -0.04  -0.04  -0.02     0.13   0.22  -0.14
  10   1     0.01   0.10   0.05     0.00  -0.02  -0.01    -0.00  -0.03  -0.03
  11   1     0.04  -0.05  -0.14    -0.01   0.02   0.04     0.38  -0.26  -0.14
  12   1     0.03   0.02  -0.07     0.02  -0.02  -0.03    -0.11  -0.00   0.50
  13   1     0.05   0.09  -0.14     0.04  -0.04   0.05    -0.31   0.22  -0.30
  14   1     0.04  -0.13  -0.17     0.09  -0.37  -0.34     0.00  -0.02  -0.01
  15   1    -0.09  -0.10  -0.11    -0.33   0.46  -0.12    -0.02   0.08   0.00
  16   1     0.09  -0.06  -0.10     0.22  -0.01   0.54     0.00   0.01   0.09
                      4                      5                      6
                        a                      a                      a 
 Frequencies --   206.4299               218.6525               274.3030
 Red. masses --     3.0985                 8.8030                 9.3758
 Frc consts  --     0.0000                 0.0000                 0.0000
 IR Inten    --     0.7399                 1.9025                 3.1821
 Raman Activ --     0.0000                 0.0000                 0.0000
 Depolar     --     0.0000                 0.0000                 0.0000
 Atom AN      X      Y      Z        X      Y      Z        X      Y      Z
   1   6     0.22  -0.08   0.03     0.42  -0.18   0.01     0.21  -0.14   0.13
   2   6    -0.03  -0.02  -0.15     0.01  -0.23  -0.15    -0.08   0.07  -0.20
   3   6    -0.03  -0.04  -0.04    -0.35   0.05  -0.17     0.19  -0.20   0.19
   4   6    -0.05   0.01  -0.08    -0.01  -0.10  -0.03    -0.10   0.15  -0.23
   5   8    -0.21   0.12   0.07     0.13   0.17   0.28    -0.48   0.22  -0.11
   6   6     0.04   0.01   0.11    -0.19   0.21   0.04     0.16  -0.00   0.08
   7   1    -0.16   0.18  -0.32     0.22  -0.13   0.03     0.18  -0.15   0.18
   8   1     0.53   0.08   0.09     0.09  -0.09  -0.02    -0.04  -0.17  -0.04
   9   1    -0.13  -0.36   0.30     0.16   0.08   0.04     0.12   0.14   0.06
  10   1    -0.04   0.00  -0.04     0.01  -0.06  -0.04    -0.11   0.03  -0.06
  11   1     0.16  -0.10  -0.07    -0.28   0.09  -0.00     0.06   0.08   0.14
  12   1    -0.05  -0.02   0.19    -0.04   0.12  -0.20     0.04  -0.17  -0.04
  13   1    -0.13   0.08  -0.13    -0.08  -0.09   0.04     0.15  -0.16   0.17
  14   1    -0.01   0.01   0.09    -0.03   0.10  -0.01    -0.01  -0.07   0.09
  15   1     0.07   0.01   0.04    -0.06   0.14  -0.00     0.11   0.03   0.02
  16   1     0.00   0.00   0.03    -0.12   0.04   0.08     0.10   0.01   0.04
                      7                      8                      9
                        a                      a                      a 
 Frequencies --   320.4789               432.6488               579.5564
 Red. masses --     8.5173                 8.8714                 8.9788
 Frc consts  --     0.0000                 0.0000                 0.0000
 IR Inten    --     0.7383                 1.8126                 2.7932
 Raman Activ --     0.0000                 0.0000                 0.0000
 Depolar     --     0.0000                 0.0000                 0.0000
 Atom AN      X      Y      Z        X      Y      Z        X      Y      Z
   1   6     0.28   0.30   0.06     0.03   0.25   0.11    -0.10   0.13   0.09
   2   6    -0.03   0.05   0.12    -0.35  -0.12   0.18    -0.05   0.16  -0.01
   3   6     0.36  -0.19  -0.20    -0.19  -0.29  -0.20     0.12   0.10   0.02
   4   6    -0.13  -0.07   0.15    -0.12   0.14  -0.06    -0.06  -0.47  -0.50
   5   8    -0.18  -0.18   0.05     0.30   0.20  -0.13     0.20   0.12   0.19
   6   6    -0.39   0.06  -0.09     0.20  -0.14   0.13    -0.12  -0.14   0.04
   7   1     0.16   0.04  -0.07     0.12   0.01  -0.09    -0.06   0.05   0.05
   8   1     0.09   0.15   0.05     0.01   0.17   0.08    -0.05   0.03   0.02
   9   1     0.10   0.16   0.04     0.04   0.17   0.06    -0.03   0.01  -0.01
  10   1     0.01   0.01   0.04    -0.13  -0.03   0.05    -0.03   0.08   0.01
  11   1     0.12  -0.11  -0.09    -0.10  -0.17  -0.11     0.09   0.05   0.02
  12   1     0.08  -0.17  -0.10    -0.05  -0.12  -0.12     0.00  -0.08  -0.00
  13   1     0.24   0.04  -0.08     0.05   0.01  -0.09     0.09   0.03   0.03
  14   1    -0.05   0.10  -0.10    -0.03  -0.20   0.13    -0.11   0.03   0.19
  15   1    -0.19  -0.00  -0.03     0.14  -0.05   0.05     0.25   0.20  -0.01
  16   1    -0.18   0.01  -0.04     0.22  -0.01   0.03    -0.24  -0.10   0.19
                     10                     11                     12
                        a                      a                      a 
 Frequencies --   596.9526               782.0457               939.2120
 Red. masses --     9.9139                 8.7169                 7.6761
 Frc consts  --     0.0000                 0.0000                 0.0000
 IR Inten    --     8.4535                 7.5263                 3.3024
 Raman Activ --     0.0000                 0.0000                 0.0000
 Depolar     --     0.0000                 0.0000                 0.0000
 Atom AN      X      Y      Z        X      Y      Z        X      Y      Z
   1   6    -0.06   0.10   0.09    -0.13   0.17   0.07    -0.01   0.30   0.32
   2   6     0.09  -0.20   0.32    -0.29   0.24  -0.33     0.34  -0.03  -0.20
   3   6    -0.11  -0.14  -0.03    -0.19  -0.11  -0.10    -0.09  -0.32  -0.18
   4   6     0.30  -0.11  -0.19     0.19  -0.14   0.16     0.11   0.02  -0.14
   5   8    -0.43  -0.03   0.09     0.08  -0.26   0.20    -0.02   0.12  -0.07
   6   6     0.32   0.24  -0.21     0.29   0.12  -0.07    -0.13  -0.08   0.19
   7   1    -0.02   0.04  -0.05     0.03  -0.01   0.09    -0.16   0.18   0.20
   8   1    -0.09   0.16   0.09     0.09  -0.11  -0.06    -0.10   0.07   0.08
   9   1     0.01   0.00  -0.10    -0.06   0.14   0.24    -0.01  -0.07  -0.07
  10   1    -0.06  -0.05   0.09    -0.03   0.05  -0.09     0.08   0.07  -0.01
  11   1    -0.15  -0.15  -0.08     0.12   0.09   0.05    -0.01   0.08   0.06
  12   1     0.01   0.08  -0.05    -0.13  -0.25   0.02    -0.01   0.06   0.08
  13   1    -0.03   0.03  -0.07     0.00  -0.10   0.05    -0.28  -0.30   0.02
  14   1     0.12   0.20  -0.05     0.18   0.19  -0.14     0.03  -0.01  -0.06
  15   1     0.15   0.17  -0.07    -0.03   0.03  -0.03    -0.20  -0.14   0.05
  16   1    -0.09   0.03   0.02    -0.05   0.01  -0.03    -0.04  -0.02  -0.04
                     13                     14                     15
                        a                      a                      a 
 Frequencies --   944.0942               970.4594               979.1645
 Red. masses --     3.1072                 4.4380                 5.2050
 Frc consts  --     0.0000                 0.0000                 0.0000
 IR Inten    --     0.1207                17.3227                15.7937
 Raman Activ --     0.0000                 0.0000                 0.0000
 Depolar     --     0.0000                 0.0000                 0.0000
 Atom AN      X      Y      Z        X      Y      Z        X      Y      Z
   1   6     0.06   0.24  -0.10    -0.18   0.05   0.07    -0.18  -0.08  -0.05
   2   6     0.10   0.09   0.01     0.08  -0.08  -0.05    -0.13  -0.02  -0.02
   3   6    -0.07  -0.15   0.16     0.15  -0.10  -0.12     0.17   0.05   0.05
   4   6     0.04   0.11   0.07    -0.11   0.17   0.26     0.25   0.09  -0.09
   5   8    -0.00   0.03  -0.06    -0.01  -0.07  -0.03     0.01   0.15  -0.11
   6   6    -0.04  -0.14  -0.04    -0.03  -0.09  -0.29     0.02  -0.30   0.26
   7   1    -0.14   0.13   0.36     0.12  -0.09  -0.08     0.17  -0.15  -0.18
   8   1     0.11  -0.36  -0.25     0.08   0.03   0.03     0.08   0.05   0.03
   9   1    -0.08  -0.07   0.16    -0.03   0.19   0.22    -0.02   0.21   0.18
  10   1     0.03  -0.30  -0.18     0.19  -0.02   0.00    -0.22  -0.02  -0.03
  11   1    -0.22  -0.30  -0.13    -0.01   0.14   0.07    -0.11  -0.03  -0.02
  12   1     0.04   0.06  -0.11     0.09   0.23   0.11     0.12   0.24   0.00
  13   1     0.09   0.18  -0.09    -0.26  -0.23   0.01    -0.07   0.02  -0.04
  14   1    -0.02   0.03   0.05    -0.14  -0.02   0.19     0.19   0.21  -0.14
  15   1     0.08   0.09  -0.02     0.36   0.27  -0.09    -0.26  -0.06   0.04
  16   1    -0.16  -0.08   0.09    -0.10  -0.06   0.17    -0.35  -0.15   0.06
                     16                     17                     18
                        a                      a                      a 
 Frequencies --  1001.7024              1100.1850              1134.0359
 Red. masses --     5.7028                 5.8229                 7.8250
 Frc consts  --     0.0000                 0.0000                 0.0000
 IR Inten    --     6.8397                52.7790                10.1831
 Raman Activ --     0.0000                 0.0000                 0.0000
 Depolar     --     0.0000                 0.0000                 0.0000
 Atom AN      X      Y      Z        X      Y      Z        X      Y      Z
   1   6     0.21  -0.16  -0.05    -0.19   0.02  -0.15    -0.05   0.14   0.26
   2   6     0.01   0.13   0.09     0.20  -0.07   0.29    -0.03  -0.54  -0.18
   3   6    -0.26  -0.04  -0.07    -0.22   0.06  -0.09     0.05   0.34  -0.02
   4   6     0.09   0.27   0.20     0.29   0.01  -0.17    -0.20   0.05   0.04
   5   8    -0.00   0.07  -0.13    -0.10   0.13  -0.07    -0.00   0.08  -0.08
   6   6     0.02  -0.31  -0.05    -0.17  -0.00   0.08     0.15  -0.06   0.01
   7   1    -0.07   0.05  -0.03     0.14  -0.13  -0.04    -0.05   0.06   0.07
   8   1    -0.10   0.08   0.04     0.17  -0.11  -0.09    -0.07   0.07   0.08
   9   1     0.07  -0.16  -0.26    -0.06   0.18   0.27    -0.01  -0.02  -0.00
  10   1     0.03   0.17   0.10     0.41  -0.06   0.08     0.16  -0.37  -0.17
  11   1     0.13   0.06   0.03     0.17   0.09   0.03     0.19   0.11   0.01
  12   1    -0.16  -0.30  -0.00    -0.15  -0.29   0.01    -0.05  -0.13  -0.02
  13   1     0.09  -0.02   0.05     0.11  -0.01   0.07     0.18   0.12   0.04
  14   1     0.05   0.17   0.03    -0.08  -0.11   0.03     0.11   0.12  -0.07
  15   1     0.09   0.17  -0.05    -0.06  -0.08   0.03    -0.04   0.03  -0.01
  16   1    -0.36  -0.17   0.19     0.04   0.02  -0.02    -0.10  -0.04   0.02
                     19                     20                     21
                        a                      a                      a 
 Frequencies --  1143.3225              1184.2654              1288.4101
 Red. masses --     7.7883                 6.8640                 4.7547
 Frc consts  --     0.0000                 0.0000                 0.0000
 IR Inten    --    73.4204                20.9663                 9.1489
 Raman Activ --     0.0000                 0.0000                 0.0000
 Depolar     --     0.0000                 0.0000                 0.0000
 Atom AN      X      Y      Z        X      Y      Z        X      Y      Z
   1   6     0.09   0.01  -0.19     0.17   0.12  -0.15     0.07  -0.18   0.13
   2   6    -0.06   0.07   0.34    -0.36  -0.21   0.27    -0.24   0.41   0.11
   3   6     0.07  -0.10  -0.10     0.17   0.14  -0.26     0.06  -0.06  -0.08
   4   6    -0.53  -0.14  -0.08     0.30   0.06  -0.00     0.15  -0.03  -0.05
   5   8     0.05   0.11  -0.05    -0.04  -0.03   0.02    -0.02   0.01   0.00
   6   6     0.30   0.02   0.08    -0.08  -0.01  -0.01    -0.05   0.02   0.02
   7   1    -0.01   0.00   0.08    -0.12   0.11   0.21    -0.01  -0.01  -0.14
   8   1     0.08  -0.16  -0.13    -0.00  -0.19  -0.15    -0.09   0.11   0.11
   9   1    -0.02  -0.06   0.02    -0.03  -0.14  -0.02     0.07  -0.04  -0.17
  10   1     0.30   0.04   0.13    -0.32  -0.10   0.03     0.31  -0.57  -0.34
  11   1     0.01   0.09   0.05     0.14   0.28   0.10    -0.05   0.04   0.02
  12   1     0.03   0.09   0.08     0.01   0.06   0.13     0.01   0.03   0.05
  13   1    -0.14  -0.15   0.02    -0.13  -0.19   0.05    -0.11  -0.08  -0.02
  14   1     0.23   0.22  -0.18    -0.08  -0.09   0.06    -0.02  -0.05  -0.01
  15   1    -0.11  -0.00   0.00     0.01  -0.01   0.00     0.01  -0.03   0.01
  16   1    -0.09  -0.02  -0.04     0.01   0.00   0.01     0.01   0.01  -0.01
                     22                     23                     24
                        a                      a                      a 
 Frequencies --  1324.8081              1365.3132              1401.0585
 Red. masses --     5.4184                 3.3471                 3.0958
 Frc consts  --     0.0000                 0.0000                 0.0000
 IR Inten    --     9.8117                33.1964                 3.2478
 Raman Activ --     0.0000                 0.0000                 0.0000
 Depolar     --     0.0000                 0.0000                 0.0000
 Atom AN      X      Y      Z        X      Y      Z        X      Y      Z
   1   6     0.11   0.03   0.01    -0.00  -0.03  -0.01    -0.11   0.21   0.22
   2   6    -0.47  -0.17  -0.19     0.04   0.03   0.01    -0.05  -0.05  -0.03
   3   6     0.09  -0.05   0.16    -0.01  -0.00  -0.01     0.18   0.21   0.04
   4   6     0.24   0.03  -0.02    -0.07  -0.02   0.01     0.03   0.01   0.01
   5   8    -0.04   0.02  -0.01     0.01  -0.01   0.01    -0.00  -0.00  -0.00
   6   6    -0.04   0.01  -0.01     0.31   0.25  -0.22     0.01  -0.01  -0.02
   7   1    -0.09   0.09   0.06    -0.01   0.00   0.01     0.24  -0.12  -0.28
   8   1    -0.09   0.01  -0.00     0.01   0.03   0.01     0.14  -0.35  -0.17
   9   1    -0.00  -0.06  -0.01     0.01   0.04   0.02     0.01  -0.21  -0.34
  10   1     0.59   0.31   0.20    -0.04  -0.02  -0.02     0.04   0.07   0.04
  11   1    -0.08  -0.06   0.01     0.01   0.00  -0.00    -0.24  -0.21  -0.14
  12   1     0.10   0.17  -0.05    -0.00  -0.00   0.00    -0.08  -0.30   0.00
  13   1     0.02   0.13  -0.07     0.00  -0.01   0.00    -0.24  -0.18   0.06
  14   1    -0.04  -0.04   0.03    -0.22  -0.27   0.31    -0.02   0.02   0.04
  15   1    -0.02  -0.07   0.01    -0.35  -0.41   0.03    -0.03  -0.02  -0.00
  16   1    -0.02  -0.01   0.05    -0.38  -0.09   0.35    -0.00  -0.01   0.04
                     25                     26                     27
                        a                      a                      a 
 Frequencies --  1414.3733              1452.8354              1460.7315
 Red. masses --     2.9957                 1.6948                 1.6154
 Frc consts  --     0.0000                 0.0000                 0.0000
 IR Inten    --     2.3975                 9.1589                 9.1249
 Raman Activ --     0.0000                 0.0000                 0.0000
 Depolar     --     0.0000                 0.0000                 0.0000
 Atom AN      X      Y      Z        X      Y      Z        X      Y      Z
   1   6    -0.10   0.15   0.19     0.00  -0.00  -0.01    -0.02   0.01   0.01
   2   6     0.00   0.02   0.01    -0.01   0.00  -0.01     0.01  -0.02  -0.01
   3   6    -0.21  -0.25  -0.02     0.01   0.01   0.01    -0.00   0.01   0.00
   4   6     0.01   0.02  -0.01    -0.01   0.03  -0.00    -0.02   0.02   0.03
   5   8     0.01  -0.02   0.02     0.00  -0.05   0.03     0.00   0.00  -0.00
   6   6     0.01  -0.00  -0.00     0.20  -0.01   0.12    -0.04   0.19   0.12
   7   1     0.19  -0.10  -0.24     0.01  -0.01   0.03     0.01  -0.01  -0.00
   8   1     0.14  -0.28  -0.14     0.00   0.03   0.01     0.05  -0.02  -0.01
   9   1     0.02  -0.15  -0.30    -0.01  -0.02   0.00     0.01   0.01  -0.05
  10   1    -0.02  -0.02  -0.02     0.04   0.01   0.01    -0.02   0.02   0.01
  11   1     0.31   0.24   0.17    -0.02  -0.02  -0.01    -0.00  -0.00  -0.00
  12   1     0.12   0.39  -0.04    -0.00  -0.01  -0.01    -0.00  -0.01   0.00
  13   1     0.28   0.23  -0.07    -0.02  -0.01  -0.00     0.00  -0.00   0.00
  14   1    -0.02  -0.01   0.03    -0.15  -0.35   0.17     0.14  -0.49  -0.51
  15   1    -0.03   0.01  -0.01    -0.26   0.48  -0.11     0.47  -0.18   0.09
  16   1    -0.01  -0.00  -0.01    -0.29   0.00  -0.60    -0.40  -0.05  -0.06
                     28                     29                     30
                        a                      a                      a 
 Frequencies --  1487.2987              1491.0030              1498.2886
 Red. masses --     1.5541                 1.5841                 1.5576
 Frc consts  --     0.0000                 0.0000                 0.0000
 IR Inten    --     1.9723                 1.0632                 6.1903
 Raman Activ --     0.0000                 0.0000                 0.0000
 Depolar     --     0.0000                 0.0000                 0.0000
 Atom AN      X      Y      Z        X      Y      Z        X      Y      Z
   1   6     0.05   0.08  -0.06     0.12  -0.06   0.10    -0.11  -0.15   0.04
   2   6     0.00   0.04   0.04     0.00   0.00   0.02    -0.04  -0.03   0.03
   3   6    -0.05   0.04   0.17    -0.11   0.10  -0.03     0.01   0.03   0.10
   4   6    -0.00  -0.00  -0.00    -0.01  -0.00  -0.01     0.01   0.01  -0.00
   5   8    -0.00   0.00   0.00     0.00  -0.00   0.01    -0.00  -0.01   0.00
   6   6    -0.00   0.01  -0.00     0.01   0.00   0.01    -0.00  -0.01  -0.00
   7   1     0.18  -0.13   0.00    -0.25   0.24  -0.39    -0.27   0.17   0.13
   8   1    -0.23   0.06   0.01    -0.28  -0.26  -0.14     0.50  -0.02   0.02
   9   1    -0.14  -0.28   0.18     0.06   0.25   0.13     0.23   0.43  -0.34
  10   1    -0.02  -0.04  -0.02    -0.00   0.01   0.01    -0.00   0.00   0.02
  11   1     0.43  -0.07  -0.03     0.25  -0.30  -0.20     0.21  -0.01  -0.00
  12   1     0.12  -0.01  -0.60     0.05   0.20  -0.00     0.06  -0.04  -0.34
  13   1    -0.37  -0.07  -0.09     0.13  -0.29   0.29    -0.24  -0.02  -0.08
  14   1     0.00  -0.01  -0.01    -0.00  -0.02  -0.00    -0.00   0.02   0.02
  15   1     0.02  -0.02   0.00    -0.00   0.01  -0.00    -0.01   0.02  -0.01
  16   1    -0.01  -0.00   0.01    -0.01   0.00  -0.03     0.03   0.00  -0.01
                     31                     32                     33
                        a                      a                      a 
 Frequencies --  1502.7537              1776.6358              2943.9033
 Red. masses --     1.5826                13.3391                 1.7555
 Frc consts  --     0.0000                 0.0000                 0.0000
 IR Inten    --     6.4255               288.8006                38.3834
 Raman Activ --     0.0000                 0.0000                 0.0000
 Depolar     --     0.0000                 0.0000                 0.0000
 Atom AN      X      Y      Z        X      Y      Z        X      Y      Z
   1   6     0.10  -0.03   0.08     0.01  -0.01  -0.01     0.00  -0.01   0.01
   2   6     0.08  -0.03   0.03     0.02  -0.02   0.03     0.01   0.13  -0.22
   3   6     0.11  -0.10   0.05     0.00   0.01  -0.00     0.00  -0.00   0.01
   4   6    -0.02  -0.01   0.01    -0.12   0.60  -0.49     0.00   0.01  -0.01
   5   8    -0.00   0.01  -0.01     0.09  -0.47   0.38    -0.00  -0.00   0.00
   6   6     0.01   0.00   0.01    -0.01  -0.04   0.02     0.00  -0.00   0.01
   7   1    -0.19   0.19  -0.35    -0.00   0.00  -0.00     0.02   0.02   0.00
   8   1    -0.28  -0.24  -0.13    -0.01   0.01   0.00     0.00   0.02  -0.05
   9   1     0.03   0.19   0.16    -0.00   0.01   0.02    -0.02   0.00  -0.00
  10   1    -0.05  -0.00   0.01     0.06  -0.01  -0.00    -0.06  -0.48   0.83
  11   1    -0.19   0.33   0.22    -0.02   0.01  -0.00     0.00   0.03  -0.04
  12   1    -0.05  -0.25  -0.11    -0.01  -0.02   0.00    -0.02   0.01  -0.00
  13   1    -0.22   0.31  -0.34    -0.01   0.00  -0.00     0.01  -0.02  -0.02
  14   1     0.00  -0.02  -0.01     0.03   0.04  -0.03    -0.01   0.00  -0.00
  15   1    -0.00   0.01  -0.00    -0.01  -0.04   0.00     0.00  -0.01  -0.03
  16   1    -0.02  -0.00  -0.02    -0.02  -0.01   0.04    -0.00   0.01   0.00
                     34                     35                     36
                        a                      a                      a 
 Frequencies --  3017.9241              3027.7339              3033.2079
 Red. masses --     1.8028                 1.9362                 1.6751
 Frc consts  --     0.0000                 0.0000                 0.0000
 IR Inten    --     7.3330                21.6443                12.1630
 Raman Activ --     0.0000                 0.0000                 0.0000
 Depolar     --     0.0000                 0.0000                 0.0000
 Atom AN      X      Y      Z        X      Y      Z        X      Y      Z
   1   6    -0.01  -0.00  -0.01    -0.24  -0.11  -0.04    -0.06   0.20  -0.08
   2   6    -0.00  -0.00   0.00    -0.00  -0.00  -0.00     0.00   0.01  -0.01
   3   6     0.01  -0.00  -0.01     0.08  -0.04  -0.04     0.08  -0.05  -0.00
   4   6    -0.00  -0.00   0.01     0.00   0.00  -0.00     0.00  -0.00   0.00
   5   8    -0.00   0.00  -0.00     0.00  -0.00   0.00    -0.00   0.00  -0.00
   6   6    -0.03   0.10   0.25    -0.00   0.03  -0.01     0.01  -0.05   0.00
   7   1     0.02   0.03   0.00     0.40   0.56   0.06    -0.37  -0.45  -0.07
   8   1    -0.00  -0.01   0.02    -0.03   0.01  -0.05    -0.02  -0.08   0.17
   9   1     0.02  -0.01   0.00     0.49  -0.19   0.14     0.60  -0.17   0.16
  10   1     0.00   0.01  -0.02     0.00   0.00  -0.00    -0.00  -0.02   0.03
  11   1     0.00  -0.01   0.01     0.01  -0.04   0.05     0.01   0.02  -0.04
  12   1    -0.01   0.00  -0.00    -0.25   0.08  -0.06    -0.27   0.09  -0.06
  13   1    -0.01   0.02   0.02    -0.05   0.10   0.14    -0.03   0.07   0.10
  14   1    -0.01   0.02   0.03    -0.03   0.01  -0.02     0.01  -0.01   0.01
  15   1     0.07  -0.19  -0.92    -0.01   0.02   0.07     0.00  -0.01  -0.03
  16   1     0.03  -0.17   0.02     0.03  -0.15  -0.02    -0.04   0.19   0.02
                     37                     38                     39
                        a                      a                      a 
 Frequencies --  3035.2846              3036.8559              3038.4060
 Red. masses --     1.9217                 1.5869                 1.5885
 Frc consts  --     0.0000                 0.0000                 0.0000
 IR Inten    --    52.9540                15.5420                31.9350
 Raman Activ --     0.0000                 0.0000                 0.0000
 Depolar     --     0.0000                 0.0000                 0.0000
 Atom AN      X      Y      Z        X      Y      Z        X      Y      Z
   1   6     0.09  -0.06   0.09     0.06   0.05   0.01    -0.03   0.02   0.01
   2   6     0.01  -0.01   0.00     0.00   0.00  -0.00    -0.00   0.00  -0.01
   3   6     0.18  -0.12  -0.12     0.06  -0.04  -0.01    -0.11  -0.02  -0.19
   4   6    -0.00  -0.00   0.00     0.00   0.01  -0.00     0.00  -0.00   0.00
   5   8    -0.00   0.00  -0.00     0.00  -0.00   0.00     0.00   0.00   0.00
   6   6    -0.00  -0.05  -0.01    -0.01   0.20   0.00     0.01   0.01   0.00
   7   1    -0.01  -0.03   0.01    -0.15  -0.20  -0.02    -0.05  -0.06  -0.01
   8   1     0.02   0.13  -0.22     0.01   0.00   0.01    -0.00   0.05  -0.08
   9   1    -0.35   0.11  -0.09    -0.07   0.03  -0.02     0.16  -0.05   0.05
  10   1    -0.00   0.01  -0.01     0.00  -0.01   0.02    -0.00  -0.02   0.03
  11   1     0.03  -0.07   0.06     0.01   0.01  -0.03    -0.01  -0.09   0.12
  12   1    -0.47   0.15  -0.12    -0.18   0.06  -0.04     0.64  -0.22   0.11
  13   1    -0.18   0.35   0.47    -0.04   0.08   0.11    -0.23   0.38   0.46
  14   1     0.05  -0.02   0.03    -0.14   0.06  -0.07    -0.03   0.01  -0.02
  15   1     0.00  -0.01  -0.03    -0.02   0.06   0.16    -0.00   0.00   0.02
  16   1    -0.05   0.23   0.03     0.18  -0.85  -0.10     0.01  -0.04  -0.00
                     40                     41                     42
                        a                      a                      a 
 Frequencies --  3042.9406              3050.7304              3055.2142
 Red. masses --     1.5136                 1.6184                 1.8190
 Frc consts  --     0.0000                 0.0000                 0.0000
 IR Inten    --    25.1461                23.3734                19.6043
 Raman Activ --     0.0000                 0.0000                 0.0000
 Depolar     --     0.0000                 0.0000                 0.0000
 Atom AN      X      Y      Z        X      Y      Z        X      Y      Z
   1   6     0.03   0.06  -0.19     0.02   0.03  -0.04    -0.00   0.01  -0.01
   2   6     0.00   0.00  -0.02     0.00   0.01  -0.02     0.00   0.00  -0.00
   3   6     0.02  -0.06  -0.01     0.01   0.14  -0.18    -0.00   0.01  -0.01
   4   6    -0.00  -0.00  -0.00     0.00   0.00  -0.00    -0.01   0.00  -0.00
   5   8     0.00  -0.00   0.00    -0.00  -0.00   0.00     0.00  -0.00   0.00
   6   6     0.00  -0.01  -0.01     0.01  -0.00   0.00    -0.22   0.10  -0.12
   7   1     0.11   0.15  -0.01    -0.02  -0.03  -0.01    -0.01  -0.01  -0.00
   8   1    -0.03  -0.43   0.77    -0.01  -0.10   0.17    -0.00  -0.01   0.02
   9   1    -0.19   0.08  -0.08    -0.03   0.02  -0.02     0.02  -0.01   0.01
  10   1    -0.00  -0.02   0.03    -0.00  -0.02   0.04     0.00  -0.01   0.02
  11   1     0.00   0.08  -0.14     0.01  -0.49   0.79    -0.00  -0.02   0.04
  12   1    -0.01  -0.00  -0.01    -0.07   0.04  -0.04     0.02  -0.00   0.00
  13   1    -0.08   0.15   0.20     0.04  -0.06  -0.12    -0.00   0.00   0.00
  14   1     0.00  -0.00  -0.00    -0.04   0.01  -0.02     0.81  -0.21   0.44
  15   1    -0.00   0.00   0.02     0.00   0.00   0.01    -0.03   0.02   0.01
  16   1    -0.01   0.03   0.00     0.00  -0.01  -0.00     0.01  -0.16  -0.03
