 Entering Gaussian System
 *********************************************
 Gaussian 98:
 frequency output generated by the xtb code
 *********************************************
                         Standard orientation:
 --------------------------------------------------------------------
  Center     Atomic     Atomic              Coordinates (Angstroms)
  Number     Number      Type              X           Y           Z
 --------------------------------------------------------------------
    1          6             0        2.064534    0.036927   -0.119097
    2          6             0        0.757205    0.673189    0.335191
    3          6             0       -0.455186    0.021045   -0.332738
    4          1             0       -0.310771    0.035377   -1.427373
    5          6             0       -1.745263    0.769118    0.006226
    6          8             0       -0.513240   -1.321183    0.112947
    7          1             0        2.208195    0.180174   -1.188110
    8          1             0        2.043954   -1.029221    0.088122
    9          1             0        2.906333    0.481216    0.406345
   10          1             0        0.757884    1.738899    0.100000
   11          1             0        0.651225    0.556134    1.414666
   12          1             0       -1.903492    0.763605    1.082345
   13          1             0       -1.686248    1.798571   -0.336079
   14          1             0       -2.600436    0.294444   -0.473438
   15          1             0       -1.310939   -1.729803   -0.238464
 --------------------------------------------------------------------
     1 basis functions        1 primitive gaussians
     1 alpha electrons        1 beta electrons
 
 Harmonic frequencies (cm**-1), IR intensities (km*mol⁻¹),
 Raman scattering activities (A**4/amu), Raman depolarization ratios,
 reduced masses (AMU), force constants (mDyne/A) and normal coordinates:
                      1                      2                      3
                        a                      a                      a 
 Frequencies --    92.6675               205.6144               213.3568
 Red. masses --     7.7726                 1.6895                 4.1716
 Frc consts  --     0.0000                 0.0000                 0.0000
 IR Inten    --     1.8688                 0.2046                 1.4947
 Raman Activ --     0.0000                 0.0000                 0.0000
 Depolar     --     0.0000                 0.0000                 0.0000
 Atom AN      X      Y      Z        X      Y      Z        X      Y      Z
   1   6     0.09   0.31  -0.29     0.02   0.02   0.10    -0.16  -0.21  -0.06
   2   6     0.02  -0.25   0.29    -0.04  -0.03  -0.01     0.01   0.11  -0.01
   3   6     0.05  -0.11   0.09    -0.03  -0.01  -0.04     0.01   0.11   0.00
   4   1     0.08  -0.07   0.03    -0.03   0.01  -0.01     0.00   0.02   0.00
   5   6     0.09   0.10  -0.27     0.05   0.06   0.09    -0.12  -0.10  -0.06
   6   8    -0.26  -0.08   0.24    -0.00  -0.05  -0.15     0.28   0.16   0.13
   7   1    -0.01   0.32  -0.06     0.06   0.05   0.04     0.17   0.32   0.06
   8   1     0.09   0.04  -0.30    -0.01  -0.00  -0.02    -0.32  -0.13  -0.42
   9   1     0.02   0.02  -0.02    -0.02  -0.02   0.09    -0.04  -0.45   0.30
  10   1    -0.07  -0.03   0.27    -0.02  -0.01   0.01     0.05   0.03   0.01
  11   1     0.05  -0.27   0.07    -0.03  -0.02  -0.01    -0.00   0.02  -0.00
  12   1    -0.02   0.11  -0.08     0.31   0.49   0.07    -0.06  -0.04  -0.02
  13   1     0.07   0.00  -0.15    -0.18  -0.13  -0.46    -0.08  -0.02  -0.01
  14   1     0.03   0.02  -0.08    -0.08  -0.28   0.48    -0.00  -0.07  -0.04
  15   1    -0.04  -0.01  -0.00     0.02  -0.02  -0.07     0.08  -0.01   0.06
                      4                      5                      6
                        a                      a                      a 
 Frequencies --   246.1654               291.7408               368.7257
 Red. masses --     6.2302                 2.7717                 9.6037
 Frc consts  --     0.0000                 0.0000                 0.0000
 IR Inten    --    18.1889               134.2068                 4.8001
 Raman Activ --     0.0000                 0.0000                 0.0000
 Depolar     --     0.0000                 0.0000                 0.0000
 Atom AN      X      Y      Z        X      Y      Z        X      Y      Z
   1   6    -0.24  -0.22  -0.18    -0.07  -0.05  -0.04     0.36  -0.04  -0.01
   2   6     0.04   0.01   0.31     0.03   0.00   0.17     0.29  -0.01  -0.04
   3   6     0.06   0.18   0.15     0.06   0.08   0.02     0.07   0.20   0.04
   4   1     0.07   0.08   0.05     0.04   0.05   0.01     0.03   0.06   0.01
   5   6    -0.15  -0.03  -0.18    -0.04  -0.09  -0.10    -0.28  -0.34  -0.01
   6   8     0.25   0.16   0.04     0.16   0.01  -0.21    -0.42   0.25   0.04
   7   1    -0.30  -0.25  -0.11    -0.11  -0.06  -0.03     0.13  -0.01   0.00
   8   1    -0.03  -0.03   0.13    -0.01  -0.00   0.04     0.12  -0.01   0.00
   9   1     0.04   0.03  -0.31     0.02   0.01  -0.10     0.08   0.00   0.02
  10   1     0.05   0.02   0.17     0.02   0.01   0.10     0.11  -0.00  -0.02
  11   1     0.05  -0.08   0.08     0.02  -0.05   0.04     0.11   0.01  -0.01
  12   1    -0.08   0.08  -0.06    -0.02   0.04  -0.03    -0.09  -0.14  -0.00
  13   1    -0.11  -0.04  -0.15    -0.07  -0.04  -0.09    -0.30  -0.09  -0.01
  14   1     0.01  -0.12  -0.04     0.02  -0.10  -0.01     0.02  -0.29   0.00
  15   1     0.25  -0.09  -0.27    -0.44   0.29   0.71    -0.08   0.11  -0.11
                      7                      8                      9
                        a                      a                      a 
 Frequencies --   435.4265               490.9927               806.7242
 Red. masses --     9.0526                 9.1273                 4.4998
 Frc consts  --     0.0000                 0.0000                 0.0000
 IR Inten    --     7.7094                 3.7894                 1.3317
 Raman Activ --     0.0000                 0.0000                 0.0000
 Depolar     --     0.0000                 0.0000                 0.0000
 Atom AN      X      Y      Z        X      Y      Z        X      Y      Z
   1   6     0.17  -0.05   0.07    -0.27   0.03   0.02    -0.09  -0.08   0.04
   2   6    -0.10  -0.40  -0.11    -0.14   0.06   0.06    -0.15  -0.35   0.10
   3   6    -0.22   0.09  -0.33     0.25   0.01  -0.39     0.01  -0.01   0.09
   4   1    -0.13  -0.01  -0.10     0.12  -0.06  -0.10     0.06   0.08   0.03
   5   6    -0.19   0.09   0.04     0.39  -0.27   0.05     0.12  -0.05  -0.00
   6   8     0.30   0.32   0.17    -0.21   0.26   0.16     0.05   0.29  -0.05
   7   1     0.10  -0.03   0.02    -0.13  -0.03  -0.01    -0.20   0.26   0.02
   8   1     0.19  -0.01   0.06    -0.12   0.01   0.03     0.34  -0.07  -0.21
   9   1    -0.05   0.13   0.06    -0.03  -0.02  -0.05    -0.10   0.16  -0.03
  10   1     0.02  -0.06   0.21    -0.04   0.04   0.13     0.08  -0.19  -0.43
  11   1    -0.11  -0.35  -0.06    -0.13  -0.11  -0.00    -0.10   0.38   0.07
  12   1     0.02  -0.03   0.02     0.31  -0.22   0.05     0.00  -0.01  -0.01
  13   1    -0.07   0.05   0.07    -0.03  -0.04   0.12     0.01  -0.02  -0.02
  14   1    -0.09   0.05   0.04     0.06  -0.10   0.13     0.07  -0.06  -0.02
  15   1     0.11  -0.08   0.15    -0.02   0.07  -0.04     0.02   0.04   0.00
                     10                     11                     12
                        a                      a                      a 
 Frequencies --   859.0831               954.9958               991.9945
 Red. masses --     6.2455                 7.2293                 2.9234
 Frc consts  --     0.0000                 0.0000                 0.0000
 IR Inten    --     1.1196                18.6293                 8.9434
 Raman Activ --     0.0000                 0.0000                 0.0000
 Depolar     --     0.0000                 0.0000                 0.0000
 Atom AN      X      Y      Z        X      Y      Z        X      Y      Z
   1   6    -0.19   0.03  -0.08     0.21   0.01   0.02    -0.09  -0.03  -0.19
   2   6    -0.15  -0.15  -0.30     0.00   0.11   0.12    -0.03  -0.05   0.10
   3   6     0.06   0.05   0.35    -0.25  -0.25   0.01    -0.01  -0.06   0.14
   4   1    -0.10   0.10   0.07    -0.13   0.03  -0.01     0.34   0.01   0.08
   5   6     0.28  -0.13   0.09     0.02  -0.36   0.03    -0.15  -0.05  -0.21
   6   8     0.01   0.20  -0.06    -0.03   0.40  -0.10     0.04   0.11  -0.04
   7   1     0.24  -0.11   0.01    -0.05  -0.04  -0.02     0.32  -0.11  -0.01
   8   1    -0.06   0.04   0.13    -0.09   0.00  -0.01     0.03   0.02   0.12
   9   1    -0.23   0.11   0.18     0.19  -0.14  -0.09    -0.24   0.12   0.19
  10   1    -0.14  -0.01   0.08    -0.07   0.03   0.02    -0.09  -0.03  -0.05
  11   1     0.09  -0.21  -0.08    -0.00   0.03   0.03     0.35   0.06   0.07
  12   1    -0.23   0.10  -0.02    -0.02   0.16   0.00     0.35  -0.12   0.01
  13   1     0.12  -0.09  -0.13     0.49  -0.17  -0.14     0.06   0.04   0.12
  14   1     0.25  -0.14  -0.17    -0.16   0.22   0.00    -0.29   0.20   0.20
  15   1    -0.02   0.13  -0.07     0.02   0.00   0.00    -0.01   0.06  -0.01
                     13                     14                     15
                        a                      a                      a 
 Frequencies --  1025.0359              1068.2001              1096.2256
 Red. masses --     4.5387                 8.2317                 7.8721
 Frc consts  --     0.0000                 0.0000                 0.0000
 IR Inten    --    41.8962                 6.3097                23.1619
 Raman Activ --     0.0000                 0.0000                 0.0000
 Depolar     --     0.0000                 0.0000                 0.0000
 Atom AN      X      Y      Z        X      Y      Z        X      Y      Z
   1   6     0.21   0.15  -0.02    -0.18   0.11   0.11    -0.35   0.28   0.15
   2   6    -0.16  -0.21   0.07     0.16  -0.15  -0.16     0.53  -0.22  -0.00
   3   6     0.05  -0.23   0.05     0.50  -0.27  -0.07    -0.18  -0.07  -0.12
   4   1     0.09   0.00   0.02     0.10  -0.12  -0.03    -0.11   0.05  -0.04
   5   6     0.02   0.22   0.00    -0.39   0.06   0.16     0.04  -0.01  -0.00
   6   8     0.04   0.21  -0.08     0.06   0.10   0.02    -0.07   0.08  -0.05
   7   1     0.02  -0.15  -0.04    -0.13   0.05   0.02    -0.10   0.02   0.03
   8   1    -0.31   0.05   0.07    -0.09   0.02   0.00    -0.21   0.08   0.08
   9   1     0.25  -0.25  -0.08    -0.00  -0.01  -0.02    -0.06   0.01   0.04
  10   1    -0.48  -0.10  -0.16    -0.01  -0.04  -0.03     0.16  -0.07  -0.08
  11   1     0.06   0.08   0.04    -0.06  -0.08  -0.06     0.34   0.03   0.03
  12   1    -0.02  -0.09  -0.00    -0.17   0.16   0.03    -0.02  -0.01  -0.01
  13   1    -0.28   0.09   0.07     0.07  -0.01  -0.02    -0.01  -0.01  -0.02
  14   1     0.12  -0.14  -0.01    -0.17   0.16   0.03     0.05  -0.05  -0.03
  15   1     0.04  -0.07   0.06    -0.08   0.36  -0.17     0.08  -0.31   0.15
                     16                     17                     18
                        a                      a                      a 
 Frequencies --  1141.4027              1167.5893              1235.7216
 Red. masses --     6.6334                 8.4394                 3.8254
 Frc consts  --     0.0000                 0.0000                 0.0000
 IR Inten    --    10.2486                54.7011                21.9727
 Raman Activ --     0.0000                 0.0000                 0.0000
 Depolar     --     0.0000                 0.0000                 0.0000
 Atom AN      X      Y      Z        X      Y      Z        X      Y      Z
   1   6    -0.00   0.09   0.24    -0.06  -0.19  -0.01     0.01   0.16  -0.23
   2   6     0.07  -0.10  -0.31     0.09   0.33   0.06     0.04  -0.13   0.32
   3   6    -0.19   0.07   0.43    -0.07  -0.56   0.08    -0.13  -0.02  -0.08
   4   1    -0.12  -0.16   0.09    -0.12  -0.32  -0.01    -0.39  -0.25  -0.07
   5   6     0.08  -0.03  -0.29     0.04   0.19   0.01     0.07   0.02  -0.05
   6   8     0.09   0.02  -0.05     0.00   0.28  -0.18     0.11  -0.04   0.05
   7   1    -0.28   0.09   0.03     0.02   0.09   0.02     0.22  -0.16  -0.05
   8   1    -0.08  -0.00  -0.08     0.24  -0.06  -0.05    -0.17   0.08   0.15
   9   1     0.16  -0.08  -0.12    -0.12   0.12   0.03    -0.05  -0.05   0.11
  10   1     0.06   0.00   0.06     0.07   0.11   0.16     0.29  -0.07  -0.10
  11   1    -0.05  -0.15  -0.10     0.06  -0.07   0.01    -0.20   0.18   0.08
  12   1     0.32  -0.19  -0.02    -0.05  -0.09  -0.01     0.01  -0.04  -0.01
  13   1    -0.06   0.06   0.12    -0.23   0.07   0.05    -0.06   0.01   0.01
  14   1    -0.09   0.01   0.12     0.10  -0.13  -0.00     0.03  -0.04  -0.00
  15   1    -0.05   0.23  -0.13     0.02  -0.03   0.01    -0.08   0.38  -0.20
                     19                     20                     21
                        a                      a                      a 
 Frequencies --  1271.9335              1303.3562              1330.9899
 Red. masses --     2.8570                 3.8386                 3.4250
 Frc consts  --     0.0000                 0.0000                 0.0000
 IR Inten    --    36.4474                22.5426                13.1265
 Raman Activ --     0.0000                 0.0000                 0.0000
 Depolar     --     0.0000                 0.0000                 0.0000
 Atom AN      X      Y      Z        X      Y      Z        X      Y      Z
   1   6     0.02   0.15  -0.12     0.05   0.08   0.11    -0.01  -0.07  -0.03
   2   6    -0.04  -0.06  -0.07    -0.28  -0.03  -0.07     0.19  -0.04   0.06
   3   6     0.06  -0.08   0.23    -0.29   0.01  -0.16    -0.05   0.37   0.01
   4   1     0.37  -0.09   0.10     0.47  -0.25   0.03     0.12  -0.75   0.02
   5   6    -0.05   0.02   0.02     0.04   0.04   0.18    -0.03  -0.07   0.10
   6   8    -0.09   0.12  -0.13     0.08  -0.02   0.02    -0.01   0.02  -0.12
   7   1     0.10  -0.10  -0.04    -0.04  -0.03   0.01    -0.02   0.05   0.00
   8   1    -0.15   0.06   0.08    -0.02   0.00  -0.05    -0.00  -0.01   0.03
   9   1     0.01  -0.05   0.03     0.14  -0.09  -0.08    -0.07   0.06   0.03
  10   1     0.47  -0.01   0.03     0.35   0.00   0.04    -0.37  -0.02  -0.05
  11   1    -0.52  -0.03  -0.07     0.43   0.01   0.03    -0.10   0.03   0.00
  12   1    -0.00   0.00   0.01    -0.11   0.02   0.02    -0.02   0.05   0.02
  13   1     0.03   0.00   0.02     0.02  -0.04  -0.09     0.11  -0.05  -0.05
  14   1    -0.01  -0.02   0.03     0.14  -0.08  -0.10     0.03   0.02  -0.06
  15   1     0.07  -0.33   0.17    -0.04   0.21  -0.11     0.03  -0.11   0.05
                     22                     23                     24
                        a                      a                      a 
 Frequencies --  1372.9574              1403.8491              1408.3572
 Red. masses --     5.7334                 3.2097                 3.1749
 Frc consts  --     0.0000                 0.0000                 0.0000
 IR Inten    --    18.7777                 3.5758                 2.5832
 Raman Activ --     0.0000                 0.0000                 0.0000
 Depolar     --     0.0000                 0.0000                 0.0000
 Atom AN      X      Y      Z        X      Y      Z        X      Y      Z
   1   6     0.04   0.06   0.04    -0.12   0.07   0.04    -0.36   0.16   0.09
   2   6    -0.40  -0.04   0.01     0.01  -0.00   0.00     0.10   0.02   0.02
   3   6     0.44   0.13   0.09    -0.04   0.06   0.01    -0.01   0.01   0.01
   4   1    -0.43  -0.26  -0.05     0.04  -0.07   0.01    -0.00   0.01   0.00
   5   6    -0.11  -0.03  -0.05     0.34  -0.23  -0.09    -0.12   0.07   0.03
   6   8    -0.09   0.05  -0.10    -0.00   0.00  -0.01     0.01  -0.01   0.00
   7   1     0.01  -0.08  -0.00     0.14  -0.09   0.01     0.40  -0.23   0.03
   8   1     0.02  -0.00  -0.06     0.16  -0.01  -0.06     0.48  -0.03  -0.15
   9   1     0.08  -0.08  -0.03     0.11  -0.12  -0.08     0.27  -0.32  -0.20
  10   1     0.25  -0.02  -0.02    -0.00  -0.01  -0.04    -0.09  -0.01  -0.07
  11   1     0.36   0.00   0.05     0.00  -0.04  -0.01    -0.10  -0.07  -0.02
  12   1     0.07   0.04   0.00    -0.40   0.31  -0.07     0.15  -0.11   0.03
  13   1     0.06   0.01   0.06    -0.42   0.08   0.22     0.16  -0.03  -0.08
  14   1    -0.05   0.02   0.01    -0.27   0.32   0.19     0.09  -0.11  -0.07
  15   1     0.06  -0.26   0.12     0.01  -0.02   0.00    -0.01   0.01  -0.00
                     25                     26                     27
                        a                      a                      a 
 Frequencies --  1470.0385              1492.0405              1495.9137
 Red. masses --     1.9670                 1.5730                 1.5866
 Frc consts  --     0.0000                 0.0000                 0.0000
 IR Inten    --     0.1589                 2.6624                 1.2980
 Raman Activ --     0.0000                 0.0000                 0.0000
 Depolar     --     0.0000                 0.0000                 0.0000
 Atom AN      X      Y      Z        X      Y      Z        X      Y      Z
   1   6    -0.04   0.03   0.01    -0.02  -0.02  -0.01    -0.00   0.01  -0.02
   2   6     0.02  -0.22  -0.19     0.02  -0.02  -0.01     0.01  -0.01  -0.02
   3   6     0.03  -0.00  -0.00    -0.05  -0.03  -0.05    -0.02  -0.05   0.03
   4   1    -0.02  -0.01  -0.00     0.04   0.01  -0.01    -0.01   0.03   0.01
   5   6     0.02   0.01   0.00    -0.12  -0.08  -0.15    -0.07  -0.16   0.13
   6   8    -0.00   0.01  -0.00     0.01  -0.00   0.01     0.00   0.01  -0.00
   7   1     0.02  -0.08  -0.01     0.04   0.06   0.01    -0.04  -0.01  -0.01
   8   1     0.06  -0.01  -0.06     0.00   0.01   0.05     0.04   0.01   0.03
   9   1     0.01  -0.04   0.01     0.02   0.00  -0.04    -0.01  -0.05   0.05
  10   1    -0.07   0.13   0.65    -0.02   0.02   0.07     0.02   0.01   0.05
  11   1    -0.02   0.66   0.06    -0.00   0.07   0.01    -0.02   0.04   0.00
  12   1    -0.05  -0.06  -0.01     0.07   0.52   0.00     0.47   0.32   0.08
  13   1    -0.01  -0.01  -0.05     0.24   0.19   0.62    -0.35  -0.01  -0.02
  14   1    -0.04   0.03   0.05     0.19  -0.38   0.01     0.15   0.32  -0.59
  15   1     0.00  -0.02   0.01    -0.01   0.03  -0.02     0.00   0.00  -0.01
                     28                     29                     30
                        a                      a                      a 
 Frequencies --  1497.6849              1503.9774              2819.6177
 Red. masses --     1.5392                 1.5890                 1.7140
 Frc consts  --     0.0000                 0.0000                 0.0000
 IR Inten    --     2.6850                 3.0322                89.7866
 Raman Activ --     0.0000                 0.0000                 0.0000
 Depolar     --     0.0000                 0.0000                 0.0000
 Atom AN      X      Y      Z        X      Y      Z        X      Y      Z
   1   6    -0.06  -0.14   0.15    -0.10  -0.11  -0.15     0.00   0.00   0.01
   2   6    -0.01  -0.04   0.02    -0.05  -0.04  -0.05    -0.00  -0.01   0.00
   3   6     0.01  -0.00   0.01     0.02   0.01   0.01     0.03  -0.01  -0.25
   4   1    -0.03  -0.00  -0.00    -0.01   0.00   0.00    -0.13  -0.01   0.96
   5   6    -0.00  -0.01   0.02     0.01   0.01   0.01     0.00  -0.00   0.00
   6   8     0.00   0.00  -0.00    -0.00  -0.00  -0.00     0.00   0.01  -0.01
   7   1     0.48   0.20   0.10     0.09   0.59   0.08    -0.00   0.00  -0.01
   8   1    -0.36  -0.04  -0.15     0.13   0.12   0.65     0.00  -0.00   0.00
   9   1     0.11   0.43  -0.55     0.19  -0.26  -0.11    -0.00  -0.00  -0.00
  10   1     0.03  -0.01   0.02     0.03   0.00   0.04    -0.00   0.01  -0.00
  11   1    -0.02   0.04   0.01     0.04   0.03  -0.00     0.00   0.00  -0.03
  12   1     0.04  -0.00   0.01    -0.02  -0.06  -0.00     0.01  -0.00  -0.03
  13   1    -0.05  -0.01  -0.04    -0.01  -0.02  -0.06     0.00   0.01  -0.00
  14   1    -0.00   0.06  -0.06    -0.03   0.03   0.02    -0.01  -0.01  -0.00
  15   1     0.00  -0.00  -0.00     0.00  -0.01   0.01    -0.00   0.00   0.00
                     31                     32                     33
                        a                      a                      a 
 Frequencies --  2980.6119              2994.3674              3013.6829
 Red. masses --     1.8557                 1.6114                 1.7663
 Frc consts  --     0.0000                 0.0000                 0.0000
 IR Inten    --    41.6767                18.1600                45.1043
 Raman Activ --     0.0000                 0.0000                 0.0000
 Depolar     --     0.0000                 0.0000                 0.0000
 Atom AN      X      Y      Z        X      Y      Z        X      Y      Z
   1   6     0.01   0.02  -0.02     0.01   0.00   0.04    -0.00  -0.00  -0.01
   2   6    -0.01  -0.25   0.12     0.02  -0.03  -0.22    -0.00   0.01   0.01
   3   6    -0.00  -0.01   0.01     0.00  -0.00  -0.01     0.01   0.00   0.01
   4   1     0.00   0.00  -0.02    -0.00  -0.00   0.02     0.00   0.00  -0.01
   5   6     0.01   0.02  -0.00     0.01   0.01   0.02     0.19   0.12   0.13
   6   8    -0.00   0.00  -0.00     0.00   0.00   0.00    -0.00  -0.00   0.00
   7   1    -0.01  -0.00   0.07     0.02   0.02  -0.15    -0.00  -0.01   0.04
   8   1     0.00  -0.08   0.01     0.00  -0.00   0.01    -0.00   0.01  -0.00
   9   1    -0.02  -0.00  -0.01    -0.06  -0.03  -0.03     0.02   0.01   0.01
  10   1     0.00   0.90  -0.20     0.00   0.24  -0.09    -0.00  -0.05   0.01
  11   1     0.02  -0.00  -0.23    -0.08  -0.12   0.91     0.00   0.01  -0.06
  12   1     0.00   0.00  -0.00     0.01   0.00  -0.05     0.04   0.02  -0.06
  13   1    -0.00  -0.04   0.02     0.00  -0.02   0.01     0.02  -0.03   0.04
  14   1    -0.02  -0.01  -0.01    -0.06  -0.03  -0.03    -0.74  -0.42  -0.43
  15   1     0.00  -0.00   0.00    -0.00  -0.00  -0.00     0.00  -0.00   0.00
                     34                     35                     36
                        a                      a                      a 
 Frequencies --  3029.3708              3036.8437              3038.6636
 Red. masses --     1.8059                 1.6556                 1.7045
 Frc consts  --     0.0000                 0.0000                 0.0000
 IR Inten    --    51.0465                42.8730                36.5737
 Raman Activ --     0.0000                 0.0000                 0.0000
 Depolar     --     0.0000                 0.0000                 0.0000
 Atom AN      X      Y      Z        X      Y      Z        X      Y      Z
   1   6    -0.00  -0.03   0.26     0.19   0.12   0.08     0.03   0.02   0.03
   2   6    -0.01  -0.01   0.05     0.00   0.01   0.01    -0.00   0.00   0.02
   3   6     0.00  -0.00   0.00     0.00  -0.00  -0.00    -0.00   0.00   0.02
   4   1     0.00  -0.00  -0.02    -0.00  -0.00  -0.00     0.00   0.00  -0.03
   5   6     0.01   0.01  -0.02     0.01  -0.00  -0.03    -0.05  -0.02   0.24
   6   8    -0.00  -0.00  -0.00    -0.00  -0.00  -0.00     0.00  -0.00  -0.00
   7   1     0.11   0.13  -0.92     0.01  -0.00   0.17     0.01   0.01  -0.04
   8   1     0.00   0.03   0.03     0.02  -0.01   0.02     0.00   0.00   0.01
   9   1    -0.11  -0.07  -0.03    -0.72  -0.39  -0.47    -0.12  -0.06  -0.07
  10   1    -0.00   0.02  -0.00    -0.00  -0.04   0.01    -0.00  -0.01   0.01
  11   1     0.01   0.02  -0.16     0.00   0.00  -0.03     0.00   0.01  -0.06
  12   1    -0.01   0.00   0.08    -0.02  -0.00   0.15     0.12   0.01  -0.94
  13   1    -0.00  -0.02   0.00     0.00   0.03  -0.01    -0.00   0.03   0.02
  14   1    -0.03  -0.01  -0.02    -0.02  -0.01  -0.01     0.05   0.03   0.07
  15   1     0.00   0.00   0.00     0.00   0.00   0.00    -0.00   0.00   0.00
                     37                     38                     39
                        a                      a                      a 
 Frequencies --  3046.1036              3056.9024              3559.0359
 Red. masses --     1.6767                 1.6945                 1.8708
 Frc consts  --     0.0000                 0.0000                 0.0000
 IR Inten    --    29.7171                24.2228                 5.2532
 Raman Activ --     0.0000                 0.0000                 0.0000
 Depolar     --     0.0000                 0.0000                 0.0000
 Atom AN      X      Y      Z        X      Y      Z        X      Y      Z
   1   6     0.01  -0.01   0.00     0.00   0.24  -0.04    -0.00   0.00  -0.00
   2   6     0.00   0.01  -0.00    -0.00   0.03  -0.01     0.00  -0.00  -0.00
   3   6     0.00   0.01  -0.01     0.00   0.00  -0.00    -0.00  -0.00  -0.00
   4   1    -0.00  -0.00   0.01    -0.00   0.00  -0.00     0.00   0.00  -0.00
   5   6     0.01   0.23  -0.08     0.00   0.01  -0.00     0.00  -0.00   0.00
   6   8    -0.00  -0.00   0.00     0.00  -0.00   0.00    -0.20  -0.10  -0.09
   7   1    -0.00  -0.00   0.02     0.01   0.04  -0.04     0.00  -0.00  -0.00
   8   1     0.00   0.05  -0.01    -0.03  -0.94   0.19     0.00  -0.00   0.00
   9   1    -0.02  -0.01  -0.02     0.02   0.04   0.00     0.00   0.00   0.00
  10   1    -0.00  -0.04   0.01    -0.00  -0.08   0.02    -0.00   0.00  -0.00
  11   1     0.00   0.00  -0.01    -0.00   0.00   0.01    -0.00  -0.00   0.00
  12   1     0.01   0.03  -0.04     0.00   0.00  -0.00    -0.00  -0.00  -0.00
  13   1    -0.07  -0.91   0.31    -0.00  -0.04   0.02    -0.00   0.00  -0.00
  14   1     0.04   0.05   0.01    -0.00   0.00  -0.00     0.00  -0.00  -0.00
  15   1     0.00   0.00   0.00    -0.00  -0.00  -0.00     0.80   0.42   0.35
