      -----------------------------------------------------------      
     |                   =====================                   |     
     |                           x T B                           |     
     |                   =====================                   |     
     |                         S. Grimme                         |     
     |          Mulliken Center for Theoretical Chemistry        |     
     |                    University of Bonn                     |     
      -----------------------------------------------------------      

   * xtb version 6.7.1 (edcfbbe) compiled by 'albert@albert-system' on 2024-07-22

   xtb is free software: you can redistribute it and/or modify it under
   the terms of the GNU Lesser General Public License as published by
   the Free Software Foundation, either version 3 of the License, or
   (at your option) any later version.
   
   xtb is distributed in the hope that it will be useful,
   but WITHOUT ANY WARRANTY; without even the implied warranty of
   MERCHANTABILITY or FITNESS FOR A PARTICULAR PURPOSE.  See the
   GNU Lesser General Public License for more details.
   
   Cite this work as:
   * C. Bannwarth, E. Caldeweyher, S. Ehlert, A. Hansen, P. Pracht,
     J. Seibert, S. Spicher, S. Grimme, WIREs Comput. Mol. Sci., 2020, 11,
     e01493. DOI: 10.1002/wcms.1493
   
   for GFN2-xTB:
   * C. Bannwarth, S. Ehlert and S. Grimme., J. Chem. Theory Comput., 2019,
     15, 1652-1671. DOI: 10.1021/acs.jctc.8b01176
   for GFN1-xTB:
   * S. Grimme, C. Bannwarth, P. Shushkov, J. Chem. Theory Comput., 2017,
     13, 1989-2009. DOI: 10.1021/acs.jctc.7b00118
   for GFN0-xTB:
   * P. Pracht, E. Caldeweyher, S. Ehlert, S. Grimme, ChemRxiv, 2019, preprint.
     DOI: 10.26434/chemrxiv.8326202.v1
   for GFN-FF:
   * S. Spicher and S. Grimme, Angew. Chem. Int. Ed., 2020, 59, 15665-15673.
     DOI: 10.1002/anie.202004239
   
   for ALPB and GBSA implicit solvation:
   * S. Ehlert, M. Stahn, S. Spicher, S. Grimme, J. Chem. Theory Comput.,
     2021, 17, 4250-4261. DOI: 10.1021/acs.jctc.1c00471
   
   for ddCOSMO and CPCM-X implicit solvation:
   * M. Stahn, S. Ehlert, S. Grimme, J. Phys. Chem. A,
     2023, XX, XXXX-XXXX. DOI: 10.1021/acs.jpca.3c04382
   
   for DFT-D4:
   * E. Caldeweyher, C. Bannwarth and S. Grimme, J. Chem. Phys., 2017,
     147, 034112. DOI: 10.1063/1.4993215
   * E. Caldeweyher, S. Ehlert, A. Hansen, H. Neugebauer, S. Spicher,
     C. Bannwarth and S. Grimme, J. Chem. Phys., 2019, 150, 154122.
     DOI: 10.1063/1.5090222
   * E. Caldeweyher, J.-M. Mewes, S. Ehlert and S. Grimme, Phys. Chem. Chem. Phys.
     2020, 22, 8499-8512. DOI: 10.1039/D0CP00502A
   
   for sTDA-xTB:
   * S. Grimme and C. Bannwarth, J. Chem. Phys., 2016, 145, 054103.
     DOI: 10.1063/1.4959605
   
   in the mass-spec context:
   * V. Asgeirsson, C. Bauer and S. Grimme, Chem. Sci., 2017, 8, 4879.
     DOI: 10.1039/c7sc00601b
   * J. Koopman and S. Grimme, ACS Omega 2019, 4, 12, 15120-15133.
     DOI: 10.1021/acsomega.9b02011
   
   for metadynamics refer to:
   * S. Grimme, J. Chem. Theory Comput., 2019, 155, 2847-2862
     DOI: 10.1021/acs.jctc.9b00143
   
   for SPH calculations refer to:
   * S. Spicher and S. Grimme, J. Chem. Theory Comput., 2021, 17, 1701-1714
     DOI: 10.1021/acs.jctc.0c01306
   
   for ONIOM refer to:
   * C. Plett, A. Katbashev, S. Ehlert, S. Grimme, M. Bursch,
     Phys. Chem. Chem. Phys., 2023, 25, 17860-17868. DOI: 10.1039/D3CP02178E
   
   for DIPRO refer to:
   * J. Kohn, N. Gildemeister, S. Grimme, D. Fazzi, A. Hansen,
     J. Chem. Phys., 2023, just accepted.
   
   for PTB refer to:
   * S. Grimme, M. Mueller, A. Hansen, J. Chem. Phys., 2023, 158, 124111.
     DOI: 10.1063/5.0137838
   
   with help from (in alphabetical order)
   P. Atkinson, C. Bannwarth, F. Bohle, G. Brandenburg, E. Caldeweyher
   M. Checinski, S. Dohm, S. Ehlert, S. Ehrlich, I. Gerasimov, C. Hölzer
   A. Katbashev, J. Kohn, J. Koopman, C. Lavigne, S. Lehtola, F. März, M. Müller,
   F. Musil, H. Neugebauer, J. Pisarek, C. Plett, P. Pracht, F. Pultar,
   J. Seibert, P. Shushkov, S. Spicher, M. Stahn, M. Steiner, T. Strunk,
   J. Stückrath, T. Rose, and J. Unsleber
   
 * started run on 2025/04/15 at 19:38:17.782     
   ID    Z sym.   atoms
    1    6 C      1, 2, 4-9
    2    8 O      3
    3    1 H      10-23

           -------------------------------------------------
          |                Calculation Setup                |
           -------------------------------------------------

          program call               : /software/projects/pawsey0265/mwang1/xtb/bin/xtb xtb_rrho.coord --gfn2 --bhess vtight --chrg 0 --enso --norestart -I rrho-xcontrol-inp --parallel 1
          hostname                   : nid002803
          coordinate file            : xtb_rrho.coord
          omp threads                :                     1


           -------------------------------------------------
          |                 G F N 2 - x T B                 |
           -------------------------------------------------

        Reference                      10.1021/acs.jctc.8b01176
      * Hamiltonian:
        H0-scaling (s, p, d)           1.850000    2.230000    2.230000
        zeta-weighting                 0.500000
      * Dispersion:
        s8                             2.700000
        a1                             0.520000
        a2                             5.000000
        s9                             5.000000
      * Repulsion:
        kExp                           1.500000    1.000000
        rExp                           1.000000
      * Coulomb:
        alpha                          2.000000
        third order                    shell-resolved
        anisotropic                    true
        a3                             3.000000
        a5                             4.000000
        cn-shift                       1.200000
        cn-exp                         4.000000
        max-rad                        5.000000


          ...................................................
          :                      SETUP                      :
          :.................................................:
          :  # basis functions                  50          :
          :  # atomic orbitals                  50          :
          :  # shells                           32          :
          :  # electrons                        52          :
          :  max. iterations                   250          :
          :  Hamiltonian                  GFN2-xTB          :
          :  restarted?                      false          :
          :  GBSA solvation                  false          :
          :  PC potential                    false          :
          :  electronic temp.          300.0000000     K    :
          :  accuracy                    1.0000000          :
          :  -> integral cutoff          0.2500000E+02      :
          :  -> integral neglect         0.1000000E-07      :
          :  -> SCF convergence          0.1000000E-05 Eh   :
          :  -> wf. convergence          0.1000000E-03 e    :
          :  Broyden damping             0.4000000          :
          :  net charge                          0          :
          :  unpaired electrons                  0          :
          ...................................................

 iter      E             dE          RMSdq      gap      omega  full diag
   1    -28.6359619 -0.286360E+02  0.312E+00    4.60       0.0  T
   2    -28.7032693 -0.673074E-01  0.158E+00    3.59       1.0  T
   3    -28.7105027 -0.723339E-02  0.105E+00    4.07       1.0  T
   4    -28.7141273 -0.362467E-02  0.198E-01    3.78       1.0  T
   5    -28.7143860 -0.258622E-03  0.689E-02    3.84       1.0  T
   6    -28.7143995 -0.135052E-04  0.250E-02    3.84       1.0  T
   7    -28.7144000 -0.483929E-06  0.647E-03    3.84       3.2  T
   8    -28.7144002 -0.229163E-06  0.199E-03    3.84      10.5  T
   9    -28.7144002 -0.744890E-09  0.767E-04    3.84      27.2  T
  10    -28.7144002 -0.520987E-08  0.257E-04    3.84      81.2  T

   *** convergence criteria satisfied after 10 iterations ***

         #    Occupation            Energy/Eh            Energy/eV
      -------------------------------------------------------------
         1        2.0000           -0.7030521             -19.1310
       ...           ...                  ...                  ...
        20        2.0000           -0.4652644             -12.6605
        21        2.0000           -0.4570520             -12.4370
        22        2.0000           -0.4395896             -11.9618
        23        2.0000           -0.4230820             -11.5126
        24        2.0000           -0.4189206             -11.3994
        25        2.0000           -0.4173016             -11.3554
        26        2.0000           -0.3884332             -10.5698 (HOMO)
        27                         -0.2474620              -6.7338 (LUMO)
        28                          0.0463110               1.2602
        29                          0.0774413               2.1073
        30                          0.0790557               2.1512
        31                          0.0910051               2.4764
       ...                                ...                  ...
        50                          0.6000584              16.3284
      -------------------------------------------------------------
                  HL-Gap            0.1409712 Eh            3.8360 eV
             Fermi-level           -0.3179476 Eh           -8.6518 eV

 SCC (total)                   0 d,  0 h,  0 min,  0.062 sec
 SCC setup                      ...        0 min,  0.000 sec (  0.500%)
 Dispersion                     ...        0 min,  0.000 sec (  0.285%)
 classical contributions        ...        0 min,  0.000 sec (  0.077%)
 integral evaluation            ...        0 min,  0.002 sec (  3.992%)
 iterations                     ...        0 min,  0.050 sec ( 80.214%)
 molecular gradient             ...        0 min,  0.009 sec ( 14.590%)
 printout                       ...        0 min,  0.000 sec (  0.306%)

         :::::::::::::::::::::::::::::::::::::::::::::::::::::
         ::                     SUMMARY                     ::
         :::::::::::::::::::::::::::::::::::::::::::::::::::::
         :: total energy             -28.347486877564 Eh    ::
         :: gradient norm              0.026894999550 Eh/a0 ::
         :: HOMO-LUMO gap              3.836022726234 eV    ::
         ::.................................................::
         :: SCC energy               -28.714279074936 Eh    ::
         :: -> isotropic ES            0.028371465054 Eh    ::
         :: -> anisotropic ES          0.005292621161 Eh    ::
         :: -> anisotropic XC          0.013094358499 Eh    ::
         :: -> dispersion             -0.017600507723 Eh    ::
         :: repulsion energy           0.366792197372 Eh    ::
         :: add. restraining           0.000000000000 Eh    ::
         :: total charge               0.000000000000 e     ::
         :::::::::::::::::::::::::::::::::::::::::::::::::::::

metadynamics with 1 initial structures loaded
           -------------------------------------------------
          |           Optimal kpush determination           |
           -------------------------------------------------
      ----------------------------------------------------------- 
     |                   =====================                   |
     |                        A N C O P T                        |
     |                   =====================                   |
     |               Approximate Normal Coordinate               |
     |                Rational Function Optimizer                |
      ----------------------------------------------------------- 
target rmsd / Å         0.100000
unbiased initial rmsd   0.031419
 
iter. min.        max.        rmsd       kpush
final kpush:  0.000000
           -------------------------------------------------
          |            Biased Numerical Hessian             |
           -------------------------------------------------
kpush                :   0.00000
alpha                :   1.00000
step length          :   0.00500
SCC accuracy         :   0.30000
Hessian scale factor :   1.00000
frozen atoms in %    :   0.00000    0
RMS gradient         :   0.00006
estimated CPU  time      0.04 min
estimated wall time      0.04 min

writing file <hessian>.

 projected vibrational frequencies (cm⁻¹)
eigval :       -0.00    -0.00    -0.00     0.00     0.00     0.00
eigval :       51.58   116.58   157.42   171.93   264.97   289.69
eigval :      361.92   385.98   416.94   455.41   525.81   549.61
eigval :      671.18   774.23   820.05   867.28   891.62   935.79
eigval :      945.87   956.23   970.45   986.75  1011.71  1086.55
eigval :     1096.71  1109.28  1118.52  1140.16  1152.67  1176.66
eigval :     1219.30  1247.11  1252.77  1282.36  1307.37  1332.31
eigval :     1346.49  1348.34  1355.15  1361.33  1368.79  1454.33
eigval :     1466.19  1475.86  1487.20  1488.94  1496.06  1505.50
eigval :     1766.93  2890.09  2958.37  2961.32  2965.52  2970.79
eigval :     2975.93  2981.91  2986.03  2993.66  2994.80  3007.51
eigval :     3019.66  3044.26  3051.27
           -------------------------------------------------
          |                Property Printout                |
           -------------------------------------------------

    * Orbital Energies and Occupations

         #    Occupation            Energy/Eh            Energy/eV
      -------------------------------------------------------------
         1        2.0000           -0.7063679             -19.2212
       ...           ...                  ...                  ...
        14        2.0000           -0.4989627             -13.5775
        15        2.0000           -0.4927542             -13.4085
        16        2.0000           -0.4823286             -13.1248
        17        2.0000           -0.4784678             -13.0198
        18        2.0000           -0.4710195             -12.8171
        19        2.0000           -0.4678544             -12.7310
        20        2.0000           -0.4655438             -12.6681
        21        2.0000           -0.4578497             -12.4587
        22        2.0000           -0.4402813             -11.9807
        23        2.0000           -0.4246085             -11.5542
        24        2.0000           -0.4173171             -11.3558
        25        2.0000           -0.4155713             -11.3083
        26        2.0000           -0.3881651             -10.5625 (HOMO)
        27                         -0.2453267              -6.6757 (LUMO)
        28                          0.0558308               1.5192
        29                          0.0837915               2.2801
        30                          0.0890758               2.4239
        31                          0.0968918               2.6366
        32                          0.1051355               2.8609
        33                          0.1117828               3.0418
        34                          0.1176174               3.2005
        35                          0.1466723               3.9912
        36                          0.1603118               4.3623
        37                          0.1695345               4.6133
       ...                                ...                  ...
        50                          0.6332237              17.2309
      -------------------------------------------------------------
                  HL-Gap            0.1428384 Eh            3.8868 eV
             Fermi-level           -0.3167459 Eh           -8.6191 eV

     #   Z          covCN         q      C6AA      α(0)
     1   6 C        3.753    -0.138    23.210     6.870
     2   6 C        2.811     0.242    22.962     7.851
     3   8 O        0.857    -0.358    20.865     6.124
     4   6 C        3.855    -0.041    21.260     6.558
     5   6 C        3.807    -0.057    21.601     6.616
     6   6 C        3.805    -0.053    21.529     6.605
     7   6 C        3.806    -0.056    21.573     6.612
     8   6 C        3.805    -0.057    21.595     6.616
     9   6 C        3.807    -0.053    21.526     6.605
    10   1 H        0.925     0.070     2.090     2.261
    11   1 H        0.925     0.066     2.132     2.283
    12   1 H        0.925     0.053     2.280     2.361
    13   1 H        0.923     0.045     2.379     2.412
    14   1 H        0.924     0.032     2.563     2.504
    15   1 H        0.924     0.039     2.461     2.453
    16   1 H        0.924     0.030     2.590     2.517
    17   1 H        0.924     0.028     2.621     2.532
    18   1 H        0.924     0.028     2.614     2.528
    19   1 H        0.924     0.031     2.579     2.511
    20   1 H        0.924     0.048     2.346     2.395
    21   1 H        0.924     0.029     2.604     2.524
    22   1 H        0.924     0.044     2.393     2.419
    23   1 H        0.924     0.030     2.586     2.515

 Mol. C6AA /au·bohr⁶  :       4064.912385
 Mol. C8AA /au·bohr⁸  :      88441.056831
 Mol. α(0) /au        :         94.671512


Wiberg/Mayer (AO) data.
largest (>0.10) Wiberg bond orders for each atom

 ---------------------------------------------------------------------------
     #   Z sym  total        # sym  WBO       # sym  WBO       # sym  WBO
 ---------------------------------------------------------------------------
     1   6 C    3.995 --     2 C    1.000    11 H    0.980    12 H    0.975
                            10 H    0.954
     2   6 C    3.914 --     3 O    1.869     1 C    1.000     4 C    0.973
     3   8 O    2.076 --     2 C    1.869
     4   6 C    3.995 --     9 C    0.996     5 C    0.982     2 C    0.973
                            13 H    0.940
     5   6 C    3.997 --     6 C    1.009     4 C    0.982    15 H    0.975
                            14 H    0.975
     6   6 C    3.998 --     5 C    1.009     7 C    1.009    17 H    0.977
                            16 H    0.976
     7   6 C    3.998 --     8 C    1.009     6 C    1.009    18 H    0.978
                            19 H    0.977
     8   6 C    3.997 --     7 C    1.009     9 C    1.009    21 H    0.977
                            20 H    0.975
     9   6 C    3.997 --     8 C    1.009     4 C    0.996    23 H    0.977
                            22 H    0.975
    10   1 H    0.995 --     1 C    0.954
    11   1 H    0.995 --     1 C    0.980
    12   1 H    0.997 --     1 C    0.975
    13   1 H    0.998 --     4 C    0.940
    14   1 H    0.999 --     5 C    0.975
    15   1 H    0.998 --     5 C    0.975
    16   1 H    0.999 --     6 C    0.976
    17   1 H    0.999 --     6 C    0.977
    18   1 H    0.999 --     7 C    0.978
    19   1 H    0.999 --     7 C    0.977
    20   1 H    0.998 --     8 C    0.975
    21   1 H    0.999 --     8 C    0.977
    22   1 H    0.998 --     9 C    0.975
    23   1 H    0.999 --     9 C    0.977
 ---------------------------------------------------------------------------

Topologies differ in total number of bonds
Writing topology from bond orders to xtbtopo.mol

molecular dipole:
                 x           y           z       tot (Debye)
 q only:        0.264      -0.317      -0.923
   full:        0.246      -0.388      -1.145       3.137
molecular quadrupole (traceless):
                xx          xy          yy          xz          yz          zz
 q only:        0.205       2.419       1.593       4.626      -0.441      -1.798
  q+dip:        0.375       3.174       1.744       4.664      -1.563      -2.119
   full:        0.403       2.462       2.132       5.372      -1.529      -2.535

           -------------------------------------------------
          |                Geometry Summary                 |
           -------------------------------------------------

      molecular mass/u    :      126.1964626
   center of mass at/Å    :       -0.0004773       0.0007496      -0.0003256
  moments of inertia/u·Å² :        0.2035270E+03   0.3641408E+03   0.4408853E+03
rotational constants/cm⁻¹ :        0.8282750E-01   0.4629426E-01   0.3823587E-01

 * 21 selected distances

     #   Z          #   Z                                           value/Å
     2   6 C        3   8 O                                       1.2050142
     4   6 C        5   6 C                                       1.5334780 (max)
     5   6 C        6   6 C                                       1.5258289
     6   6 C        7   6 C                                       1.5251887
     7   6 C        8   6 C                                       1.5249311
     4   6 C        9   6 C                                       1.5318558
     8   6 C        9   6 C                                       1.5265769
     1   6 C       10   1 H                                       1.0887072
     1   6 C       11   1 H                                       1.0872634
     1   6 C       12   1 H                                       1.0862754 (min)
     4   6 C       13   1 H                                       1.0987665
     5   6 C       14   1 H                                       1.0907011
     5   6 C       15   1 H                                       1.0929428
     6   6 C       16   1 H                                       1.0925878
     6   6 C       17   1 H                                       1.0924417
     7   6 C       18   1 H                                       1.0917918
     7   6 C       19   1 H                                       1.0931362
     8   6 C       20   1 H                                       1.0905865
     8   6 C       21   1 H                                       1.0918488
     9   6 C       22   1 H                                       1.0911561
     9   6 C       23   1 H                                       1.0926737

 * 3 distinct bonds (by element types)

   Z      Z             #   av. dist./Å        max./Å        min./Å
   1 H    6 C          14     1.0914914     1.0987665     1.0862754
   6 C    6 C           6     1.5279766     1.5334780     1.5249311
   6 C    8 O           1     1.2050142     1.2050142     1.2050142

           -------------------------------------------------
          |               Frequency Printout                |
           -------------------------------------------------
 projected vibrational frequencies (cm⁻¹)
eigval :       -0.00    -0.00    -0.00     0.00     0.00     0.00
eigval :       51.58   116.58   157.42   171.93   264.97   289.69
eigval :      361.92   385.98   416.94   455.41   525.81   549.61
eigval :      671.18   774.23   820.05   867.28   891.62   935.79
eigval :      945.87   956.23   970.45   986.75  1011.71  1086.55
eigval :     1096.71  1109.28  1118.52  1140.16  1152.67  1176.66
eigval :     1219.30  1247.11  1252.77  1282.36  1307.37  1332.31
eigval :     1346.49  1348.34  1355.15  1361.33  1368.79  1454.33
eigval :     1466.19  1475.86  1487.20  1488.94  1496.06  1505.50
eigval :     1766.93  2890.09  2958.37  2961.32  2965.52  2970.79
eigval :     2975.93  2981.91  2986.03  2993.66  2994.80  3007.51
eigval :     3019.66  3044.26  3051.27
 reduced masses (amu)
   1: 10.88   2: 10.80   3: 10.22   4: 10.77   5: 11.18   6: 10.96   7: 11.74   8:  9.63
   9:  2.08  10:  8.75  11:  8.59  12:  7.63  13:  8.30  14:  7.27  15:  9.60  16:  9.81
  17:  6.55  18: 10.52  19:  8.68  20:  8.95  21:  4.52  22:  7.27  23:  6.18  24:  7.66
  25:  7.32  26:  4.69  27:  5.23  28:  6.66  29:  7.37  30:  3.65  31:  6.32  32:  4.54
  33:  6.08  34:  3.01  35:  6.66  36:  6.46  37:  4.79  38:  3.92  39:  3.31  40:  5.83
  41:  6.66  42:  3.96  43:  4.70  44:  4.64  45:  5.22  46:  5.03  47:  3.31  48:  1.65
  49:  1.67  50:  1.91  51:  1.97  52:  1.90  53:  1.92  54:  2.01  55: 13.39  56:  1.75
  57:  1.86  58:  1.88  59:  1.86  60:  1.90  61:  1.69  62:  1.65  63:  1.62  64:  1.60
  65:  1.63  66:  1.67  67:  1.79  68:  1.45  69:  1.92
 IR intensities (km·mol⁻¹)
   1:  0.01   2:  1.84   3:  0.32   4:  0.02   5:  0.01   6:  0.81   7:  4.03   8:  0.50
   9:  0.32  10:  2.18  11:  1.97  12:  1.50  13:  0.49  14:  0.26  15:  0.43  16:  4.53
  17:  0.99  18:  5.85  19:  9.26  20:  2.27  21:  0.14  22:  1.67  23:  2.27  24:  4.25
  25:  6.30  26:  3.38  27: 17.44  28: 16.91  29:  6.51  30:  2.11  31:  1.11  32:  0.55
  33: 27.22  34:  5.91  35: 89.95  36:  7.62  37:  3.38  38:  0.30  39:  0.03  40:  3.18
  41: 15.13  42:  0.18  43:  1.04  44:  1.89  45:  0.98  46:  1.20  47: 29.43  48:  9.65
  49:  8.02  50:  0.67  51:  1.07  52:  0.75  53:  0.87  54:  0.70  55:284.16  56: 37.50
  57:  9.89  58:  9.09  59: 12.34  60: 75.09  61:  4.78  62:106.18  63: 99.62  64: 27.80
  65: 79.81  66: 55.51  67:  7.56  68: 10.25  69: 18.60
 Raman intensities (Ä⁴*amu⁻¹)
   1:  0.00   2:  0.00   3:  0.00   4:  0.00   5:  0.00   6:  0.00   7:  0.00   8:  0.00
   9:  0.00  10:  0.00  11:  0.00  12:  0.00  13:  0.00  14:  0.00  15:  0.00  16:  0.00
  17:  0.00  18:  0.00  19:  0.00  20:  0.00  21:  0.00  22:  0.00  23:  0.00  24:  0.00
  25:  0.00  26:  0.00  27:  0.00  28:  0.00  29:  0.00  30:  0.00  31:  0.00  32:  0.00
  33:  0.00  34:  0.00  35:  0.00  36:  0.00  37:  0.00  38:  0.00  39:  0.00  40:  0.00
  41:  0.00  42:  0.00  43:  0.00  44:  0.00  45:  0.00  46:  0.00  47:  0.00  48:  0.00
  49:  0.00  50:  0.00  51:  0.00  52:  0.00  53:  0.00  54:  0.00  55:  0.00  56:  0.00
  57:  0.00  58:  0.00  59:  0.00  60:  0.00  61:  0.00  62:  0.00  63:  0.00  64:  0.00
  65:  0.00  66:  0.00  67:  0.00  68:  0.00  69:  0.00
 output can be read by thermo (or use thermo option).
 writing <g98.out> molden fake output.
 recommended (thermochemical) frequency scaling factor: 1.0
           -------------------------------------------------
          |             Thermodynamic Functions             |
           -------------------------------------------------

Molecule has no symmetry elements
It seems to be the C1 point group
c1  symmetry found (for desy threshold:  0.10E+00) used in thermo

          ...................................................
          :                      SETUP                      :
          :.................................................:
          :  # frequencies                          63      :
          :  # imaginary freq.                       0      :
          :  linear?                             false      :
          :  only rotor calc.                    false      :
          :  symmetry                               c1      :
          :  rotational number                       1      :
          :  scaling factor                  1.0000000      :
          :  rotor cutoff                    0.0000000 cm⁻¹ :
          :  imag. cutoff                 -100.0000000 cm⁻¹ :
          :.................................................:

    mode    ω/cm⁻¹     T·S(HO)/kcal·mol⁻¹    T·S(FR)/kcal·mol⁻¹   T·S(vib)
   ------------------------------------------------------------------------
       1     51.58    -1.41802 (100.00%)    -1.04707 (  0.00%)    -1.41802
       2    116.58    -0.94105 (100.00%)    -0.80564 (  0.00%)    -0.94105
       3    157.42    -0.76939 (100.00%)    -0.71669 (  0.00%)    -0.76939
       4    171.93    -0.71981 (100.00%)    -0.69058 (  0.00%)    -0.71981
       5    264.97    -0.48563 (100.00%)    -0.56249 (  0.00%)    -0.48563
       6    289.69    -0.44000 (100.00%)    -0.53606 (  0.00%)    -0.44000
   ------------------------------------------------------------------------

   temp. (K)  partition function   enthalpy   heat capacity  entropy
                                   cal/mol     cal/K/mol   cal/K/mol   J/K/mol
 298.15  VIB   176.                 3928.193     29.023     23.456
         ROT  0.437E+06              888.752      2.981     28.789
         INT  0.771E+08             4816.945     32.004     52.245
         TR   0.137E+28             1481.254      4.968     40.393
         TOT                        6298.1991    36.9725    92.6385   387.5993

       T/K    H(0)-H(T)+PV         H(T)/Eh          T*S/Eh         G(T)/Eh
   ------------------------------------------------------------------------
    298.15    0.100368E-01    0.214669E+00    0.440155E-01    0.170653E+00
   ------------------------------------------------------------------------

         :::::::::::::::::::::::::::::::::::::::::::::::::::::
         ::                  THERMODYNAMIC                  ::
         :::::::::::::::::::::::::::::::::::::::::::::::::::::
         :: total free energy         -28.177953327742 Eh   ::
         ::.................................................::
         :: total energy              -28.348606553168 Eh   ::
         :: zero point energy           0.204631923346 Eh   ::
         :: G(RRHO) w/o ZPVE           -0.033978697920 Eh   ::
         :: G(RRHO) contrib.            0.170653225426 Eh   ::
         :::::::::::::::::::::::::::::::::::::::::::::::::::::

optimized geometry written to: xtbopt.coord


           -------------------------------------------------
          | TOTAL ENERGY              -28.348606553168 Eh   |
          | TOTAL ENTHALPY            -28.133937810713 Eh   |
          | TOTAL FREE ENERGY         -28.177953327742 Eh   |
          | GRADIENT NORM               0.000064598793 Eh/α |
          | HOMO-LUMO GAP               3.886830739046 eV   |
           -------------------------------------------------

------------------------------------------------------------------------
 * finished run on 2025/04/15 at 19:38:20.501     
------------------------------------------------------------------------
 total:
 * wall-time:     0 d,  0 h,  0 min,  2.717 sec
 *  cpu-time:     0 d,  0 h,  0 min,  2.461 sec
 * ratio c/w:     0.906 speedup
 SCF:
 * wall-time:     0 d,  0 h,  0 min,  0.063 sec
 *  cpu-time:     0 d,  0 h,  0 min,  0.029 sec
 * ratio c/w:     0.458 speedup
 analytical hessian:
 * wall-time:     0 d,  0 h,  0 min,  2.189 sec
 *  cpu-time:     0 d,  0 h,  0 min,  2.187 sec
 * ratio c/w:     0.999 speedup

