
                                 *****************
                                 * O   R   C   A *
                                 *****************

                                            #,                                       
                                            ###                                      
                                            ####                                     
                                            #####                                    
                                            ######                                   
                                           ########,                                 
                                     ,,################,,,,,                         
                               ,,#################################,,                 
                          ,,##########################################,,             
                       ,#########################################, ''#####,          
                    ,#############################################,,   '####,        
                  ,##################################################,,,,####,       
                ,###########''''           ''''###############################       
              ,#####''   ,,,,##########,,,,          '''####'''          '####       
            ,##' ,,,,###########################,,,                        '##       
           ' ,,###''''                  '''############,,,                           
         ,,##''                                '''############,,,,        ,,,,,,###''
      ,#''                                            '''#######################'''  
     '                                                          ''''####''''         
             ,#######,   #######,   ,#######,      ##                                
            ,#'     '#,  ##    ##  ,#'     '#,    #''#        ,####,   ,####,        
            ##       ##  ##   ,#'  ##            #'  '#       #'       #'  '#        
            ##       ##  #######   ##           ,######,      #####,   #    #        
            '#,     ,#'  ##    ##  '#,     ,#' ,#      #,     #,   #   #,  ,#        
             '#######'   ##     ##  '#######'  #'      '#     '####' # '####'        



                #########################################################
                #                        -***-                          #
                #          Department of theory and spectroscopy        #
                #                                                       #
                #                      Frank Neese                      #
                #                                                       #
                #     Directorship, Architecture, Infrastructure        #
                #                    SHARK, DRIVERS                     #
                #        Core code/Algorithms in most modules           #
                #                                                       #
                #        Max Planck Institute fuer Kohlenforschung      #
                #                Kaiser Wilhelm Platz 1                 #
                #                 D-45470 Muelheim/Ruhr                 #
                #                      Germany                          #
                #                                                       #
                #                  All rights reserved                  #
                #                        -***-                          #
                #########################################################


                         Program Version 6.0.1  -  RELEASE   -


 With contributions from (in alphabetic order):
[Max-Planck-Institut fuer Kohlenforschung]                               
  Daniel Aravena         : Magnetic Suceptibility                        
  Michael Atanasov       : Ab Initio Ligand Field Theory (pilot matlab implementation)
  Alexander A. Auer      : GIAO ZORA, VPT2 properties, NMR spectrum      
  Ute Becker             : All parallelization in ORCA, NUMFREQ, NUMCALC 
  Giovanni Bistoni       : ED, misc. LED, open-shell LED, HFLD           
  Martin Brehm           : Molecular dynamics                            
  Dmytro Bykov           : pre 5.0 version of the SCF Hessian            
  Marcos Casanova-Páez   : Triplet and SCS-CIS(D). UHF-(DLPNO)-IP/EA/STEOM-CCSD. UHF-CVS-IP/STEOM-CCSD   
  Vijay G. Chilkuri      : MRCI spin determinant printing, contributions to CSF-ICE 
  Pauline Colinet        : FMM embedding                                 
  Dipayan Datta          : RHF DLPNO-CCSD density                        
  Achintya Kumar Dutta   : EOM-CC, STEOM-CC                              
  Nicolas Foglia         : Exact transition moments, OPA infrastructure, MCD improvements    
  Dmitry Ganyushin       : Spin-Orbit,Spin-Spin,Magnetic field MRCI      
  Miquel Garcia-Rates    : C-PCM and meta-GGA Hessian, CCSD/C-PCM, Gaussian charge scheme 
  Tiago L. C. Gouveia    : GS-ROHF, GS-ROCIS                             
  Yang Guo               : DLPNO-NEVPT2, F12-NEVPT2, CIM, IAO-localization        
  Andreas Hansen         : Spin unrestricted coupled pair/coupled cluster methods 
  Ingolf Harden          : AUTO-CI MPn and infrastructure                
  Benjamin Helmich-Paris : MC-RPA, TRAH-(SCF,CASSCF), AVAS, COSX integrals, SCF dyn. polar. 
  Lee Huntington         : MR-EOM, pCC                                   
  Robert Izsak           : Overlap fitted RIJCOSX, COSX-SCS-MP3, EOM     
  Riya Kayal             : Wick's Theorem for AUTO-CI, AUTO-CI UHF-CCSDT 
  Emily Kempfer          : AUTO-CI, RHF CISDT and CCSDT                  
  Christian Kollmar      : KDIIS, OOCD, Brueckner-CCSD(T), CCSD density, CASPT2, CASPT2-K, improved NEVPT2 
  Axel Koslowski         : Symmetry handling                             
  Simone Kossmann        : meta-GGA functionals, TD-DFT gradient, OOMP2, (MP2 Hessian; deprecated post 5.0) 
  Lucas Lang             : DCDCAS                                        
  Marvin Lechner         : AUTO-CI (C++ implementation), FIC-MRCC        
  Spencer Leger          : CASSCF response                               
  Dagmar Lenk            : GEPOL surface, SMD, ORCA-2-JSON               
  Dimitrios Liakos       : Extrapolation schemes; Compound Job, initial MDCI parallelization 
  Dimitrios Manganas     : Further ROCIS development; embedding schemes. LFT, Crystal Embedding 
  Dimitrios Pantazis     : SARC Basis sets                               
  Anastasios Papadopoulos: AUTO-CI, single reference methods and gradients 
  Taras Petrenko         : pre 6.0 DFT Hessian and TD-DFT gradient, (ASA, deprecated), ECA, 1-Electron XAS/XES, NRVS 
  Peter Pinski           : DLPNO-MP2, DLPNO-MP2 Gradient                 
  Christoph Reimann      : Effective Core Potentials                     
  Marius Retegan         : Local ZFS, SOC                                
  Christoph Riplinger    : Optimizer, TS searches, QM/MM, DLPNO-CCSD(T), (RO)-DLPNO pert. Triples 
  Michael Roemelt        : Original ROCIS implementation                 
  Masaaki Saitow         : Open-shell DLPNO-CCSD energy and density      
  Barbara Sandhoefer     : DKH picture change effects                    
  Kantharuban Sivalingam : CASSCF convergence/infrastructure, NEVPT2 and variants, FIC-MRCI 
  Bernardo de Souza      : ESD, SOC TD-DFT                               
  Georgi L. Stoychev     : AutoAux, RI-MP2 NMR, DLPNO-MP2 response, X2C  
  Van Anh Tran           : RI-MP2 g-tensors                              
  Willem Van den Heuvel  : Paramagnetic NMR                              
  Zikuan Wang            : NOTCH, Electric field optimization            
  Frank Wennmohs         : Technical directorship and infrastructure     
  Hang Xu                : AUTO-CI-Response properties                   
                                                                         
[FACCTs GmbH]                                                            
  Markus Bursch, Miquel Garcia-Rates, Christoph Riplinger, Bernardo de Souza, Georgi L. Stoychev 
                                                                 
  APM, Basis sets (HGBS, AHGBS, def-TZVP (Ac-Lr), def2-XVPD (La-Lu)), CI-OPT, improved COSX, DLPNO-Multilevel,           
  DOCKER, DRACO, updates on ESD, GOAT, IRC, LR-CPCM, MBIS, meta-GGA TD-DFT gradient, ML-optimized integration grids, 
  MM, NACMEs, nearIR, NEB, NEB-TS, NL-DFT gradient (VV10), 2- and 3-layer-ONIOM, interface openCOSMO-RS, QMMM,   
  Crystal-QMMM, SF, symmetry and pop. for TD-DFT, r2SCAN hybrids, SOLVATOR                                   
                                                                         
[Other institutions]                                                     
  V. Asgeirsson          : NEB                                           
  Christoph Bannwarth    : sTDA-DFT, sTD-DFT, PBEh-3c, B97-3c, D3        
  Sebastian Ehlert       : rSCAN, r2SCAN, r2SCAN-3c, D4, dhf basis sets  
  Marvin Friede          : D4 for Fr, Ra, Ac-Lr                          
  Lars Goerigk           : TD-DFT with DH, B97 family of functionals     
  Stefan Grimme          : VdW corrections, initial TS optimization, DFT functionals, gCP, sTDA/sTD-DF 
  Waldemar Hujo          : DFT-NL                                        
  H. Jonsson             : NEB                                           
  Holger Kruse           : gCP                                           
  Marcel Mueller         : wB97X-3c, vDZP basis set                      
  Hagen Neugebauer       : wr2SCAN                                       
  Tobias Risthaus        : range-separated hybrid DFT                    
  Lukas Wittmann         : regularized MP2, r2SCAN double-hybrids, wr2SCAN        
                                                                         
We gratefully acknowledge several colleagues who have allowed us to      
interface, adapt or use parts of their codes:                            
  Ed Valeev, F. Pavosevic, A. Kumar             : LibInt (2-el integral package), F12 methods 
  Garnet Chan, S. Sharma, J. Yang, R. Olivares  : DMRG                   
  Ulf Ekstrom                                   : XCFun DFT Library      
  Mihaly Kallay                                 : mrcc  (arbitrary order and MRCC methods)
  Frank Weinhold                                : gennbo (NPA and NBO analysis)           
  Simon Mueller                                 : openCOSMO-RS                            
  Christopher J. Cramer and Donald G. Truhlar   : smd solvation model                     
  S Lehtola, MJT Oliveira, MAL Marques          : LibXC Library                           
  Liviu Ungur et al                             : ANISO software                          


 Your calculation uses the libint2 library for the computation of 2-el integrals
 For citations please refer to: http://libint.valeyev.net

 Your ORCA version has been built with support for libXC version: 6.2.2
 For citations please refer to: https://libxc.gitlab.io

 This ORCA versions uses:
   CBLAS   interface :  Fast vector & matrix operations
   LAPACKE interface :  Fast linear algebra routines
   SCALAPACK package :  Parallel linear algebra routines
   Shared memory     :  Shared parallel matrices
   BLAS/LAPACK       :  OpenBLAS 0.3.27  USE64BITINT DYNAMIC_ARCH NO_AFFINITY Zen SINGLE_THREADED
        Core in use  :  Zen
   Copyright (c) 2011-2014, The OpenBLAS Project


Your calculation utilizes the geometrical counterpoise correction gCP
Please cite in your paper:
H.Kruse, S. Grimme J.Chem.Phys., 136, (2012), 154101 
   

Your calculation utilizes the atom-pairwise dispersion correction
based on EEQ partial charges (D4)


================================================================================

----- Orbital basis set information -----
Your calculation utilizes the basis: def2-SV(P)
   F. Weigend and R. Ahlrichs, Phys. Chem. Chem. Phys. 7, 3297 (2005).

----- AuxJ basis set information -----
Your calculation utilizes the auxiliary basis: def2/J
   F. Weigend, Phys. Chem. Chem. Phys. 8, 1057 (2006).

================================================================================
                                        WARNINGS
                       Please study these warnings very carefully!
================================================================================


================================================================================
                                       INPUT FILE
================================================================================
NAME = sp.inp
|  1> ! pbe def2-sv(p) def2/J RI DEFGRID1 loosescf d4 GCP(DFT/SV(P)) printgap
|  2> %output
|  3>     printlevel normal
|  4> end
|  5> * xyz 0 1
|  6> C -2.3271443585 -0.8635642385 -0.5972619324
|  7> C -1.0530798648 -0.5722972977 0.2084680661
|  8> H -1.1795163265 -0.9402228605 1.2429750433
|  9> C -0.7480913499 0.9479500403 0.2938894558
| 10> H -1.5801482776 1.4954156263 -0.1637590965
| 11> C 0.5473565373 1.2542607698 -0.4797257281
| 12> H 0.8055916033 2.3082962799 -0.3334809899
| 13> C 1.6992607474 0.3929451013 0.0826836182
| 14> H 2.5278651393 0.4193040455 -0.6370523496
| 15> C 1.2389691802 -1.0804050965 0.213301895
| 16> H 1.1360479088 -1.323632643 1.2956767361
| 17> O -0.0036149747 -1.2981524426 -0.4122870079
| 18> O 2.1791677983 -1.8958628022 -0.3915060029
| 19> O 2.0911713475 0.9204814828 1.3305165027
| 20> O 0.4035332053 1.0673624569 -1.8571745483
| 21> O -0.672812036 1.378709749 1.6281528053
| 22> O -3.4294577603 -0.1304123803 -0.1475827789
| 23> H -2.5224523714 -1.9452261599 -0.5652988673
| 24> H -2.1726818837 -0.5703721001 -1.6383025109
| 25> H 1.7707336681 -2.749493595 -0.5805251799
| 26> H 2.9175419959 0.5076140509 1.6040188019
| 27> H 0.2236087693 0.1300632513 -2.0155437442
| 28> H 0.2466413809 1.3112200215 1.9251127713
| 29> H -3.5301530969 -0.2517871006 0.8037596512
| 30> *
| 31> 
| 32>                          ****END OF INPUT****
================================================================================

                       ****************************
                       * Single Point Calculation *
                       ****************************

---------------------------------
CARTESIAN COORDINATES (ANGSTROEM)
---------------------------------
  C     -2.327144   -0.863564   -0.597262
  C     -1.053080   -0.572297    0.208468
  H     -1.179516   -0.940223    1.242975
  C     -0.748091    0.947950    0.293889
  H     -1.580148    1.495416   -0.163759
  C      0.547357    1.254261   -0.479726
  H      0.805592    2.308296   -0.333481
  C      1.699261    0.392945    0.082684
  H      2.527865    0.419304   -0.637052
  C      1.238969   -1.080405    0.213302
  H      1.136048   -1.323633    1.295677
  O     -0.003615   -1.298152   -0.412287
  O      2.179168   -1.895863   -0.391506
  O      2.091171    0.920481    1.330517
  O      0.403533    1.067362   -1.857175
  O     -0.672812    1.378710    1.628153
  O     -3.429458   -0.130412   -0.147583
  H     -2.522452   -1.945226   -0.565299
  H     -2.172682   -0.570372   -1.638303
  H      1.770734   -2.749494   -0.580525
  H      2.917542    0.507614    1.604019
  H      0.223609    0.130063   -2.015544
  H      0.246641    1.311220    1.925113
  H     -3.530153   -0.251787    0.803760

----------------------------
CARTESIAN COORDINATES (A.U.)
----------------------------
  NO LB      ZA    FRAG     MASS         X           Y           Z
   0 C     6.0000    0    12.011   -4.397666   -1.631900   -1.128661
   1 C     6.0000    0    12.011   -1.990033   -1.081485    0.393948
   2 H     1.0000    0     1.008   -2.228963   -1.776764    2.348882
   3 C     6.0000    0    12.011   -1.413688    1.791366    0.555371
   4 H     1.0000    0     1.008   -2.986047    2.825926   -0.309460
   5 C     6.0000    0    12.011    1.034354    2.370209   -0.906550
   6 H     1.0000    0     1.008    1.522348    4.362048   -0.630188
   7 C     6.0000    0    12.011    3.211137    0.742559    0.156249
   8 H     1.0000    0     1.008    4.776973    0.792370   -1.203854
   9 C     6.0000    0    12.011    2.341312   -2.041670    0.403082
  10 H     1.0000    0     1.008    2.146819   -2.501303    2.448474
  11 O     8.0000    0    15.999   -0.006831   -2.453153   -0.779110
  12 O     8.0000    0    15.999    4.118030   -3.582661   -0.739839
  13 O     8.0000    0    15.999    3.951741    1.739458    2.514312
  14 O     8.0000    0    15.999    0.762567    2.017023   -3.509551
  15 O     8.0000    0    15.999   -1.271430    2.605384    3.076763
  16 O     8.0000    0    15.999   -6.480736   -0.246444   -0.278891
  17 H     1.0000    0     1.008   -4.766744   -3.675945   -1.068260
  18 H     1.0000    0     1.008   -4.105774   -1.077847   -3.095943
  19 H     1.0000    0     1.008    3.346202   -5.195790   -1.097034
  20 H     1.0000    0     1.008    5.513355    0.959252    3.031156
  21 H     1.0000    0     1.008    0.422559    0.245784   -3.808826
  22 H     1.0000    0     1.008    0.466085    2.477847    3.637936
  23 H     1.0000    0     1.008   -6.671023   -0.475809    1.518886

--------------------------------
INTERNAL COORDINATES (ANGSTROEM)
--------------------------------
 C      0   0   0     0.000000000000     0.00000000     0.00000000
 C      1   0   0     1.535342826665     0.00000000     0.00000000
 H      2   1   0     1.105242093156   109.45828225     0.00000000
 C      2   1   3     1.552889814744   112.18298759   241.04769187
 H      4   2   1     1.096120201534   108.47589918     5.69298610
 C      4   2   1     1.539640199598   109.41321862   246.60522205
 H      6   4   2     1.095017684476   108.83363643   185.38895201
 C      6   4   2     1.544361441780   109.48978332   303.47176518
 H      8   6   4     1.097861510192   108.10828217   165.01062725
 C      8   6   4     1.549093369177   109.84800599    47.86433082
 H     10   8   6     1.114130927732   108.48170123   250.41629743
 O     10   8   6     1.408116033633   111.82800710     9.96551781
 O     10   8   6     1.383740331357   108.76894184   129.54769745
 O      8   6   4     1.410310412610   108.71545873   285.81942271
 O      6   4   2     1.397491102821   112.46127443    67.58525128
 O      4   2   1     1.404093867076   111.29326386   122.55542612
 O      1   2   3     1.398147997911   112.70449866    66.61405354
 H      1   2   3     1.099617828903   108.58703249   302.57413131
 H      1   2   3     1.092513511232   109.37986367   184.37145747
 H     13  10   8     0.965003740098   108.62263213   199.10397377
 H     14   8   6     0.963406182526   109.22296649   191.44531785
 H     15   6   4     0.967462353634   108.06262813   296.02060945
 H     16   4   2     0.968573523577   108.71527060    91.20585271
 H     17   1   2     0.964325563723   109.48867815   308.04616384

---------------------------
INTERNAL COORDINATES (A.U.)
---------------------------
 C      0   0   0     0.000000000000     0.00000000     0.00000000
 C      1   0   0     2.901377464078     0.00000000     0.00000000
 H      2   1   0     2.088604867747   109.45828225     0.00000000
 C      2   1   3     2.934536466022   112.18298759   241.04769187
 H      4   2   1     2.071366990757   108.47589918     5.69298610
 C      4   2   1     2.909498322016   109.41321862   246.60522205
 H      6   4   2     2.069283535460   108.83363643   185.38895201
 C      6   4   2     2.918420176751   109.48978332   303.47176518
 H      8   6   4     2.074657587235   108.10828217   165.01062725
 C      8   6   4     2.927362223617   109.84800599    47.86433082
 H     10   8   6     2.105402330745   108.48170123   250.41629743
 O     10   8   6     2.660953668349   111.82800710     9.96551781
 O     10   8   6     2.614890266727   108.76894184   129.54769745
 O      8   6   4     2.665100443651   108.71545873   285.81942271
 O      6   4   2     2.640875458923   112.46127443    67.58525128
 O      4   2   1     2.653352875091   111.29326386   122.55542612
 O      1   2   3     2.642116810742   112.70449866    66.61405354
 H      1   2   3     2.077976548603   108.58703249   302.57413131
 H      1   2   3     2.064551333837   109.37986367   184.37145747
 H     13  10   8     1.823592786994   108.62263213   199.10397377
 H     14   8   6     1.820573840700   109.22296649   191.44531785
 H     15   6   4     1.828238893246   108.06262813   296.02060945
 H     16   4   2     1.830338700127   108.71527060    91.20585271
 H     17   1   2     1.822311219375   109.48867815   308.04616384

---------------------
BASIS SET INFORMATION
---------------------
There are 3 groups of distinct atoms

 Group   1 Type C   : 7s4p1d contracted to 3s2p1d pattern {511/31/1}
 Group   2 Type H   : 4s contracted to 2s pattern {31}
 Group   3 Type O   : 7s4p1d contracted to 3s2p1d pattern {511/31/1}

Atom   0C    basis set group =>   1
Atom   1C    basis set group =>   1
Atom   2H    basis set group =>   2
Atom   3C    basis set group =>   1
Atom   4H    basis set group =>   2
Atom   5C    basis set group =>   1
Atom   6H    basis set group =>   2
Atom   7C    basis set group =>   1
Atom   8H    basis set group =>   2
Atom   9C    basis set group =>   1
Atom  10H    basis set group =>   2
Atom  11O    basis set group =>   3
Atom  12O    basis set group =>   3
Atom  13O    basis set group =>   3
Atom  14O    basis set group =>   3
Atom  15O    basis set group =>   3
Atom  16O    basis set group =>   3
Atom  17H    basis set group =>   2
Atom  18H    basis set group =>   2
Atom  19H    basis set group =>   2
Atom  20H    basis set group =>   2
Atom  21H    basis set group =>   2
Atom  22H    basis set group =>   2
Atom  23H    basis set group =>   2
---------------------------------
AUXILIARY/J BASIS SET INFORMATION
---------------------------------
There are 3 groups of distinct atoms

 Group   1 Type C   : 12s5p4d2f1g contracted to 6s4p3d1f1g pattern {711111/2111/211/2/1}
 Group   2 Type H   : 5s2p1d contracted to 3s1p1d pattern {311/2/1}
 Group   3 Type O   : 12s5p4d2f1g contracted to 6s4p3d1f1g pattern {711111/2111/211/2/1}

Atom   0C    basis set group =>   1
Atom   1C    basis set group =>   1
Atom   2H    basis set group =>   2
Atom   3C    basis set group =>   1
Atom   4H    basis set group =>   2
Atom   5C    basis set group =>   1
Atom   6H    basis set group =>   2
Atom   7C    basis set group =>   1
Atom   8H    basis set group =>   2
Atom   9C    basis set group =>   1
Atom  10H    basis set group =>   2
Atom  11O    basis set group =>   3
Atom  12O    basis set group =>   3
Atom  13O    basis set group =>   3
Atom  14O    basis set group =>   3
Atom  15O    basis set group =>   3
Atom  16O    basis set group =>   3
Atom  17H    basis set group =>   2
Atom  18H    basis set group =>   2
Atom  19H    basis set group =>   2
Atom  20H    basis set group =>   2
Atom  21H    basis set group =>   2
Atom  22H    basis set group =>   2
Atom  23H    basis set group =>   2
------------------------------------------------------------------------------
                             ORCA STARTUP CALCULATIONS
                           -- RI-GTO INTEGRALS CHOSEN --
------------------------------------------------------------------------------
------------------------------------------------------------------------------
                   ___                                                        
                  /   \      - P O W E R E D   B Y -                         
                 /     \                                                     
                 |  |  |   _    _      __       _____    __    __             
                 |  |  |  | |  | |    /  \     |  _  \  |  |  /  |          
                  \  \/   | |  | |   /    \    | | | |  |  | /  /          
                 / \  \   | |__| |  /  /\  \   | |_| |  |  |/  /          
                |  |  |   |  __  | /  /__\  \  |    /   |      \           
                |  |  |   | |  | | |   __   |  |    \   |  |\   \          
                \     /   | |  | | |  |  |  |  | |\  \  |  | \   \       
                 \___/    |_|  |_| |__|  |__|  |_| \__\ |__|  \__/        
                                                                              
                      - O R C A' S   B I G   F R I E N D -                    
                                      &                                       
                       - I N T E G R A L  F E E D E R -                       
                                                                              
 v1 FN, 2020, v2 2021, v3 2022-2024                                           
------------------------------------------------------------------------------


----------------------
SHARK INTEGRAL PACKAGE
----------------------

Number of atoms                             ...     24
Number of basis functions                   ...    192
Number of shells                            ...     96
Maximum angular momentum                    ...      2
Integral batch strategy                     ... SHARK/LIBINT Hybrid
RI-J (if used) integral strategy            ... SPLIT-RIJ (Revised 2003 algorithm where possible)
Printlevel                                  ...      1
Contraction scheme used                     ... SEGMENTED contraction
Prescreening option                         ... SCHWARTZ
   Thresh                                   ... 1.000e-09
   Tcut                                     ... 1.000e-10
   Tpresel                                  ... 1.000e-10 
Coulomb Range Separation                    ... NOT USED
Exchange Range Separation                   ... NOT USED
Multipole approximations                    ... NOT USED
Finite Nucleus Model                        ... NOT USED
CABS basis                                  ... NOT available
Auxiliary Coulomb fitting basis             ... AVAILABLE
   # of basis functions in Aux-J            ...    720
   # of shells in Aux-J                     ...    240
   Maximum angular momentum in Aux-J        ...      4
Auxiliary J/K fitting basis                 ... NOT available
Auxiliary Correlation fitting basis         ... NOT available
Auxiliary 'external' fitting basis          ... NOT available

Checking pre-screening integrals            ... done (  0.0 sec) Dimension = 96
Check shell pair data                       ... done (  0.0 sec)
Shell pair information
Shell pair cut-off parameter TPreSel        ...   1.0e-10
Total number of shell pairs                 ...      4656
Shell pairs after pre-screening             ...      4223
Total number of primitive shell pairs       ...     18720
Primitive shell pairs kept                  ...     11405
          la=0 lb=0:   1641 shell pairs
          la=1 lb=0:   1341 shell pairs
          la=1 lb=1:    287 shell pairs
          la=2 lb=0:    622 shell pairs
          la=2 lb=1:    264 shell pairs
          la=2 lb=2:     68 shell pairs

Calculating one electron integrals          ... done (  0.0 sec)
Calculating RI/J V-Matrix + Cholesky decomp.... done (  0.0 sec)
Calculating Nuclear repulsion               ... done (  0.0 sec) ENN=    847.489737671202 Eh

Diagonalization of the overlap matrix:
Smallest eigenvalue                        ... 8.793e-04
Time for diagonalization                   ...    0.003 sec
Threshold for overlap eigenvalues          ... 1.000e-07
Number of eigenvalues below threshold      ... 0
Time for construction of square roots      ...    0.004 sec
Total time needed                          ...    0.008 sec

-------------------
DFT GRID GENERATION
-------------------

General Integration Accuracy     IntAcc      ... 4.159
Radial Grid Type                 RadialGrid  ... OptM3 with GC (2021)
Angular Grid (max. ang.)         AngularGrid ... 3 (Lebedev-194)
Angular grid pruning method      GridPruning ... 4 (adaptive)
Weight generation scheme         WeightScheme... mBecke (2022)
Basis function cutoff            BFCut       ... 1.0000e-10
Integration weight cutoff        WCut        ... 1.0000e-14
Partially contracted basis set               ... off
Rotationally invariant grid construction     ... off
Angular grids for H and He will be reduced by one unit

Total number of grid points                  ...    55633
Total number of batches                      ...      882
Average number of points per batch           ...       63
Average number of grid points per atom       ...     2318
Initializing property integral containers    ... done (  0.0 sec)

SHARK setup successfully completed in   0.6 seconds

Maximum memory used throughout the entire STARTUP-calculation: 28.6 MB
-------------------------------------------------------------------------------
                                 ORCA GUESS
                   Start orbitals & Density for SCF / CASSCF
-------------------------------------------------------------------------------

------------
SCF SETTINGS
------------
Hamiltonian:
 Density Functional     Method          .... DFT(GTOs)
 Exchange Functional    Exchange        .... PBE
   PBE kappa parameter   XKappa         ....  0.804000
   PBE mue parameter    XMuePBE         ....  0.219520
 Correlation Functional Correlation     .... PBE
   PBE beta parameter  CBetaPBE         ....  0.066725
 LDA part of GGA corr.  LDAOpt          .... PW91-LDA
 Gradients option       PostSCFGGA      .... off
   NL short-range parameter             ....  6.400000
 RI-approximation to the Coulomb term is turned on
   Number of AuxJ basis functions       .... 720


General Settings:
 Integral files         IntName         .... sp
 Hartree-Fock type      HFTyp           .... RHF
 Total Charge           Charge          ....    0
 Multiplicity           Mult            ....    1
 Number of Electrons    NEL             ....   96
 Basis Dimension        Dim             ....  192
 Nuclear Repulsion      ENuc            ....    847.4897376712 Eh

Convergence Acceleration:
 AO-DIIS                CNVDIIS         .... on
   Start iteration      DIISMaxIt       ....    12
   Startup error        DIISStart       ....  0.200000
   # of expansion vecs  DIISMaxEq       ....     5
   Bias factor          DIISBfac        ....   1.050
   Max. coefficient     DIISMaxC        ....  10.000
 MO-DIIS                CNVKDIIS        .... off
 Trust-Rad. Augm. Hess. CNVTRAH         .... auto
   Auto Start mean grad. ratio tolernc. ....  1.125000
   Auto Start start iteration           ....    50
   Auto Start num. interpolation iter.  ....    10
   Max. Number of Micro iterations      ....    24
   Max. Number of Macro iterations      .... Maxiter - #DIIS iter
   Number of Davidson start vectors     ....     2
   Converg. threshold    (grad. norm)   ....   1.000e-04
   Grad. Scal. Fac. for Micro threshold ....   0.100
   Minimum threshold for Micro iter.    ....   1.000e-02
   NR start threshold (gradient norm)   ....   1.000e-04
   Initial trust radius                 ....   0.400
   Minimum AH scaling param. (alpha)    ....   1.000
   Maximum AH scaling param. (alpha)    .... 1000.000
   Quad. conv. algorithm                .... NR
   White noise on init. David. guess    .... on
   Maximum white noise                  ....   0.010
   Pseudo random numbers                .... off
   Inactive MOs                         .... canonical
   Orbital update algorithm             .... Taylor
   Preconditioner                       .... Diag
   Full preconditioner red. dimension   ....   250
 SOSCF                  CNVSOSCF        .... on
   Start iteration      SOSCFMaxIt      ....   150
   Startup grad/error   SOSCFStart      ....  0.003300
   Hessian update       SOSCFHessUp     .... L-BFGS
 Level Shifting         CNVShift        .... on
   Level shift para.    LevelShift      ....    0.2500
   Turn off err/grad.   ShiftErr        ....    0.0010
 Zerner damping         CNVZerner       .... off
 Static damping         CNVDamp         .... on
   Fraction old density DampFac         ....    0.7000
   Max. Damping (<1)    DampMax         ....    0.9800
   Min. Damping (>=0)   DampMin         ....    0.0000
   Turn off err/grad.   DampErr         ....    0.1000

SCF Procedure:
 Maximum # iterations   MaxIter         ....   125
 SCF integral mode      SCFMode         .... Direct
   Integral package                     .... SHARK and LIBINT hybrid scheme
 Reset frequency        DirectResetFreq ....    20
 Integral Threshold     Thresh          ....  1.000e-09 Eh
 Primitive CutOff       TCut            ....  1.000e-10 Eh

Convergence Tolerance:
 Convergence Check Mode ConvCheckMode   .... Total+1el-Energy
 Convergence forced     ConvForced      .... 0
 Energy Change          TolE            ....  1.000e-05 Eh
 1-El. energy change                    ....  1.000e-02 Eh
 Orbital Gradient       TolG            ....  1.000e-04
 Orbital Rotation angle TolX            ....  1.000e-04
 DIIS Error             TolErr          ....  5.000e-04

------------------------------
INITIAL GUESS: MODEL POTENTIAL
------------------------------
Loading Hartree-Fock densities                     ... done
Calculating cut-offs                               ... done
Initializing the effective Hamiltonian             ... done
Setting up the integral package (SHARK)            ... done
Starting the Coulomb interaction                   ... done (   0.2 sec)
Making the grid                                    ... done (   0.2 sec)
Mapping shells                                     ... done
Starting the XC term evaluation                    ... done (   0.2 sec)
  promolecular density results
     # of electrons  =     95.994041066
     EX              =    -83.245997458
     EC              =     -3.274830856
     EX+EC           =    -86.520828314
Transforming the Hamiltonian                       ... done (   0.0 sec)
Diagonalizing the Hamiltonian                      ... done (   0.0 sec)
Back transforming the eigenvectors                 ... done (   0.0 sec)
Now organizing SCF variables                       ... done
                      ------------------
                      INITIAL GUESS DONE (   0.6 sec)
                      ------------------
             **** ENERGY FILE WAS UPDATED (sp.en.tmp) ****
Finished Guess after   0.6 sec
Maximum memory used throughout the entire GUESS-calculation: 22.4 MB

-------------------------------------------------------------------------------------------
                                      ORCA LEAN-SCF
                              memory conserving SCF solver
-------------------------------------------------------------------------------------------

----------------------------------------D-I-I-S--------------------------------------------
Iteration    Energy (Eh)           Delta-E    RMSDP     MaxDP     DIISErr   Damp  Time(sec)
-------------------------------------------------------------------------------------------
               ***  Starting incremental Fock matrix formation  ***
    1    -685.5255630770188873     0.00e+00  5.22e-03  2.03e-01  2.36e-01  0.700   0.7
    2    -685.6729643018900333    -1.47e-01  3.41e-03  1.41e-01  9.27e-02  0.700   0.7
                               ***Turning on AO-DIIS***
    3    -685.7196017615506207    -4.66e-02  1.19e-03  3.89e-02  1.90e-02  0.700   0.7
    4    -685.7507386965949081    -3.11e-02  1.50e-03  3.28e-02  9.47e-03  0.000   0.7
    5    -685.8226503142707315    -7.19e-02  5.20e-04  2.04e-02  5.22e-03  0.000   0.7
                              *** Initializing SOSCF ***
---------------------------------------S-O-S-C-F--------------------------------------
Iteration    Energy (Eh)           Delta-E    RMSDP     MaxDP     MaxGrad    Time(sec)
--------------------------------------------------------------------------------------
    6    -685.8229582182409558    -3.08e-04  1.48e-04  4.45e-03  1.04e-03     0.7
               *** Restarting incremental Fock matrix formation ***
    7    -685.8229839999933120    -2.58e-05  1.04e-04  4.00e-03  1.43e-04     0.7
    8    -685.8229829966610396     1.00e-06  3.99e-05  7.97e-04  2.27e-04     0.6
                 **** Energy Check signals convergence ****

               *****************************************************
               *                     SUCCESS                       *
               *           SCF CONVERGED AFTER   8 CYCLES          *
               *****************************************************

             **** ENERGY FILE WAS UPDATED (sp.en.tmp) ****

----------------
TOTAL SCF ENERGY
----------------

Total Energy       :       -685.82298299666104 Eh          -18662.19213 eV

Components:
Nuclear Repulsion  :        847.48973767120151 Eh           23061.36818 eV
Electronic Energy  :      -1533.31272066786255 Eh          -41723.56031 eV
One Electron Energy:      -2623.62185048554920 Eh          -71392.38007 eV
Two Electron Energy:       1090.30912981768665 Eh           29668.81976 eV

Virial components:
Potential Energy   :      -1366.98036323159545 Eh          -37197.42676 eV
Kinetic Energy     :        681.15738023493441 Eh           18535.23463 eV
Virial Ratio       :          2.00684952244093

DFT components:
N(Alpha)           :       48.000111061199 electrons
N(Beta)            :       48.000111061199 electrons
N(Total)           :       96.000222122398 electrons
E(X)               :      -84.612822973995 Eh       
E(C)               :       -3.285383844970 Eh       
E(XC)              :      -87.898206818965 Eh       

---------------
SCF CONVERGENCE
---------------

  Last Energy change         ...   -1.0033e-06  Tolerance :   1.0000e-05
  Last MAX-Density change    ...    7.9698e-04  Tolerance :   1.0000e-03
  Last RMS-Density change    ...    3.9896e-05  Tolerance :   1.0000e-04
  Last DIIS Error            ...    1.0435e-03  Tolerance :   5.0000e-04
  Last Orbital Gradient      ...    2.2660e-04  Tolerance :   1.0000e-04
  Last Orbital Rotation      ...    2.4696e-04  Tolerance :   1.0000e-04


----------------
ORBITAL ENERGIES
----------------

  NO   OCC          E(Eh)            E(eV) 
   0   2.0000     -18.793565      -511.3989 
   1   2.0000     -18.782183      -511.0892 
   2   2.0000     -18.773935      -510.8648 
   3   2.0000     -18.756490      -510.3900 
   4   2.0000     -18.750105      -510.2163 
   5   2.0000     -18.737071      -509.8616 
   6   2.0000      -9.999608      -272.1032 
   7   2.0000      -9.950543      -270.7681 
   8   2.0000      -9.948690      -270.7176 
   9   2.0000      -9.944807      -270.6120 
  10   2.0000      -9.939709      -270.4732 
  11   2.0000      -9.933825      -270.3131 
  12   2.0000      -1.002836       -27.2886 
  13   2.0000      -0.957108       -26.0442 
  14   2.0000      -0.942678       -25.6516 
  15   2.0000      -0.933962       -25.4144 
  16   2.0000      -0.925166       -25.1750 
  17   2.0000      -0.915516       -24.9125 
  18   2.0000      -0.700606       -19.0645 
  19   2.0000      -0.694599       -18.9010 
  20   2.0000      -0.622493       -16.9389 
  21   2.0000      -0.596865       -16.2415 
  22   2.0000      -0.571874       -15.5615 
  23   2.0000      -0.531089       -14.4517 
  24   2.0000      -0.516156       -14.0453 
  25   2.0000      -0.494197       -13.4478 
  26   2.0000      -0.488718       -13.2987 
  27   2.0000      -0.468167       -12.7395 
  28   2.0000      -0.456185       -12.4134 
  29   2.0000      -0.441712       -12.0196 
  30   2.0000      -0.415814       -11.3149 
  31   2.0000      -0.402608       -10.9555 
  32   2.0000      -0.390777       -10.6336 
  33   2.0000      -0.377074       -10.2607 
  34   2.0000      -0.362536        -9.8651 
  35   2.0000      -0.352330        -9.5874 
  36   2.0000      -0.334221        -9.0946 
  37   2.0000      -0.328580        -8.9411 
  38   2.0000      -0.325122        -8.8470 
  39   2.0000      -0.298145        -8.1129 
  40   2.0000      -0.285058        -7.7568 
  41   2.0000      -0.279173        -7.5967 
  42   2.0000      -0.264209        -7.1895 
  43   2.0000      -0.253143        -6.8884 
  44   2.0000      -0.240847        -6.5538 
  45   2.0000      -0.226314        -6.1583 
  46   2.0000      -0.218726        -5.9518 
  47   2.0000      -0.201564        -5.4848 
  48   0.0000       0.005342         0.1454 
  49   0.0000       0.022566         0.6141 
  50   0.0000       0.024317         0.6617 
  51   0.0000       0.042054         1.1443 
  52   0.0000       0.050141         1.3644 
  53   0.0000       0.069760         1.8983 
  54   0.0000       0.084470         2.2985 
  55   0.0000       0.092566         2.5188 
  56   0.0000       0.096328         2.6212 
  57   0.0000       0.102893         2.7999 
  58   0.0000       0.114740         3.1222 
*Only the first 10 virtual orbitals were printed.

                    ********************************
                    * MULLIKEN POPULATION ANALYSIS *
                    ********************************

-----------------------
MULLIKEN ATOMIC CHARGES
-----------------------
   0 C :    0.091437
   1 C :   -0.037364
   2 H :    0.056253
   3 C :    0.045731
   4 H :    0.090704
   5 C :    0.018880
   6 H :    0.091965
   7 C :    0.023404
   8 H :    0.086252
   9 C :    0.187927
  10 H :    0.036074
  11 O :   -0.319350
  12 O :   -0.383326
  13 O :   -0.420315
  14 O :   -0.416411
  15 O :   -0.429568
  16 O :   -0.420195
  17 H :    0.080581
  18 H :    0.080600
  19 H :    0.305697
  20 H :    0.317389
  21 H :    0.306408
  22 H :    0.302332
  23 H :    0.304896
Sum of atomic charges:    0.0000000

--------------------------------
MULLIKEN REDUCED ORBITAL CHARGES
--------------------------------
  0 C s       :     3.001642  s :     3.001642
      pz      :     1.052398  p :     2.842880
      px      :     0.817713
      py      :     0.972769
      dz2     :     0.013932  d :     0.064042
      dxz     :     0.011040
      dyz     :     0.005421
      dx2y2   :     0.020524
      dxy     :     0.013125

  1 C s       :     3.089739  s :     3.089739
      pz      :     1.013776  p :     2.882884
      px      :     0.886340
      py      :     0.982768
      dz2     :     0.013990  d :     0.064740
      dxz     :     0.012507
      dyz     :     0.009042
      dx2y2   :     0.013465
      dxy     :     0.015736

  2 H s       :     0.943747  s :     0.943747

  3 C s       :     3.075456  s :     3.075456
      pz      :     0.781196  p :     2.811976
      px      :     1.053992
      py      :     0.976789
      dz2     :     0.018678  d :     0.066836
      dxz     :     0.014332
      dyz     :     0.016120
      dx2y2   :     0.009809
      dxy     :     0.007898

  4 H s       :     0.909296  s :     0.909296

  5 C s       :     3.061795  s :     3.061795
      pz      :     0.771558  p :     2.850339
      px      :     0.998849
      py      :     1.079932
      dz2     :     0.020697  d :     0.068986
      dxz     :     0.019423
      dyz     :     0.011497
      dx2y2   :     0.010007
      dxy     :     0.007361

  6 H s       :     0.908035  s :     0.908035

  7 C s       :     3.072678  s :     3.072678
      pz      :     0.793939  p :     2.839868
      px      :     1.074547
      py      :     0.971382
      dz2     :     0.016638  d :     0.064050
      dxz     :     0.015703
      dyz     :     0.013031
      dx2y2   :     0.010619
      dxy     :     0.008059

  8 H s       :     0.913748  s :     0.913748

  9 C s       :     3.037198  s :     3.037198
      pz      :     0.948048  p :     2.674755
      px      :     0.740448
      py      :     0.986259
      dz2     :     0.023125  d :     0.100120
      dxz     :     0.021357
      dyz     :     0.010315
      dx2y2   :     0.021525
      dxy     :     0.023799

 10 H s       :     0.963926  s :     0.963926

 11 O s       :     3.770863  s :     3.770863
      pz      :     1.630092  p :     4.533120
      px      :     1.208448
      py      :     1.694579
      dz2     :     0.002143  d :     0.015367
      dxz     :     0.004720
      dyz     :     0.002498
      dx2y2   :     0.002647
      dxy     :     0.003358

 12 O s       :     3.761152  s :     3.761152
      pz      :     1.753447  p :     4.606520
      px      :     1.570399
      py      :     1.282673
      dz2     :     0.002773  d :     0.015654
      dxz     :     0.002893
      dyz     :     0.000789
      dx2y2   :     0.003267
      dxy     :     0.005932

 13 O s       :     3.781116  s :     3.781116
      pz      :     1.432697  p :     4.624165
      px      :     1.456107
      py      :     1.735360
      dz2     :     0.003753  d :     0.015035
      dxz     :     0.001788
      dyz     :     0.003295
      dx2y2   :     0.002185
      dxy     :     0.004013

 14 O s       :     3.784225  s :     3.784225
      pz      :     1.351514  p :     4.616280
      px      :     1.863375
      py      :     1.401391
      dz2     :     0.006090  d :     0.015907
      dxz     :     0.002006
      dyz     :     0.001975
      dx2y2   :     0.004632
      dxy     :     0.001202

 15 O s       :     3.770156  s :     3.770156
      pz      :     1.356606  p :     4.643994
      px      :     1.449550
      py      :     1.837839
      dz2     :     0.004410  d :     0.015417
      dxz     :     0.002744
      dyz     :     0.002424
      dx2y2   :     0.004757
      dxy     :     0.001081

 16 O s       :     3.786000  s :     3.786000
      pz      :     1.307734  p :     4.618182
      px      :     1.577161
      py      :     1.733287
      dz2     :     0.007550  d :     0.016012
      dxz     :     0.001271
      dyz     :     0.001549
      dx2y2   :     0.002260
      dxy     :     0.003382

 17 H s       :     0.919419  s :     0.919419

 18 H s       :     0.919400  s :     0.919400

 19 H s       :     0.694303  s :     0.694303

 20 H s       :     0.682611  s :     0.682611

 21 H s       :     0.693592  s :     0.693592

 22 H s       :     0.697668  s :     0.697668

 23 H s       :     0.695104  s :     0.695104


------------------------
MULLIKEN OVERLAP CHARGES
------------------------
B(  0-C ,  1-C ) :   0.5256 B(  0-C , 16-O ) :   0.6851 B(  0-C , 17-H ) :   0.6567 
B(  0-C , 18-H ) :   0.6493 B(  0-C , 23-H ) :  -0.0947 B(  1-C ,  2-H ) :   0.5885 
B(  1-C ,  3-C ) :   0.1160 B(  1-C ,  4-H ) :  -0.1532 B(  1-C ,  7-C ) :  -0.1168 
B(  1-C , 11-O ) :   0.4294 B(  1-C , 15-O ) :  -0.1207 B(  1-C , 16-O ) :  -0.1168 
B(  1-C , 17-H ) :  -0.0543 B(  2-H ,  3-C ) :  -0.1137 B(  2-H , 11-O ) :  -0.0539 
B(  3-C ,  4-H ) :   0.6955 B(  3-C ,  5-C ) :   0.3809 B(  3-C ,  6-H ) :  -0.0992 
B(  3-C ,  7-C ) :   0.0861 B(  3-C ,  9-C ) :  -0.1087 B(  3-C , 11-O ) :  -0.1137 
B(  3-C , 14-O ) :  -0.0991 B(  3-C , 15-O ) :   0.5909 B(  3-C , 22-H ) :  -0.1023 
B(  4-H , 15-O ) :  -0.0571 B(  5-C ,  6-H ) :   0.6971 B(  5-C ,  7-C ) :   0.0754 
B(  5-C ,  9-C ) :   0.0686 B(  5-C , 11-O ) :   0.0780 B(  5-C , 13-O ) :  -0.0765 
B(  5-C , 14-O ) :   0.5495 B(  5-C , 15-O ) :  -0.0533 B(  5-C , 21-H ) :  -0.1076 
B(  6-H ,  7-C ) :  -0.0824 B(  7-C ,  8-H ) :   0.5753 B(  7-C ,  9-C ) :   0.1123 
B(  7-C , 10-H ) :  -0.1600 B(  7-C , 11-O ) :  -0.1351 B(  7-C , 12-O ) :  -0.1181 
B(  7-C , 13-O ) :   0.4189 B(  7-C , 14-O ) :  -0.0801 B(  7-C , 20-H ) :  -0.0629 
B(  8-H ,  9-C ) :  -0.0620 B(  9-C , 10-H ) :   0.6855 B(  9-C , 11-O ) :   0.5721 
B(  9-C , 12-O ) :   0.7156 B(  9-C , 13-O ) :  -0.0564 B(  9-C , 19-H ) :  -0.0545 
B( 10-H , 11-O ) :  -0.0885 B( 10-H , 12-O ) :  -0.0728 B( 11-O , 12-O ) :  -0.1111 
B( 11-O , 21-H ) :   0.0562 B( 12-O , 19-H ) :   0.5139 B( 13-O , 20-H ) :   0.5197 
B( 13-O , 22-H ) :   0.1065 B( 14-O , 21-H ) :   0.5498 B( 15-O , 22-H ) :   0.5569 
B( 16-O , 17-H ) :  -0.0545 B( 16-O , 18-H ) :  -0.0615 B( 16-O , 23-H ) :   0.5340 
B( 17-H , 18-H ) :  -0.0802 


                     *******************************
                     * LOEWDIN POPULATION ANALYSIS *
                     *******************************

----------------------
LOEWDIN ATOMIC CHARGES
----------------------
   0 C :   -0.125106
   1 C :   -0.084732
   2 H :    0.101002
   3 C :   -0.080777
   4 H :    0.121222
   5 C :   -0.071156
   6 H :    0.124129
   7 C :   -0.091637
   8 H :    0.118539
   9 C :   -0.002874
  10 H :    0.078166
  11 O :   -0.156770
  12 O :   -0.299810
  13 O :   -0.309668
  14 O :   -0.307399
  15 O :   -0.326699
  16 O :   -0.318709
  17 H :    0.098731
  18 H :    0.113704
  19 H :    0.289037
  20 H :    0.297383
  21 H :    0.273491
  22 H :    0.271260
  23 H :    0.288671

-------------------------------
LOEWDIN REDUCED ORBITAL CHARGES
-------------------------------
  0 C s       :     2.918095  s :     2.918095
      pz      :     1.084659  p :     3.061619
      px      :     0.928810
      py      :     1.048150
      dz2     :     0.031842  d :     0.145392
      dxz     :     0.026122
      dyz     :     0.010721
      dx2y2   :     0.047416
      dxy     :     0.029292

  1 C s       :     2.915438  s :     2.915438
      pz      :     1.064461  p :     3.018471
      px      :     0.928055
      py      :     1.025955
      dz2     :     0.032375  d :     0.150822
      dxz     :     0.030901
      dyz     :     0.019402
      dx2y2   :     0.035093
      dxy     :     0.033051

  2 H s       :     0.898998  s :     0.898998

  3 C s       :     2.894387  s :     2.894387
      pz      :     0.895310  p :     3.028939
      px      :     1.088027
      py      :     1.045602
      dz2     :     0.043432  d :     0.157451
      dxz     :     0.033394
      dyz     :     0.034795
      dx2y2   :     0.027883
      dxy     :     0.017948

  4 H s       :     0.878778  s :     0.878778

  5 C s       :     2.888873  s :     2.888873
      pz      :     0.879239  p :     3.021138
      px      :     1.055671
      py      :     1.086229
      dz2     :     0.048143  d :     0.161144
      dxz     :     0.047490
      dyz     :     0.023102
      dx2y2   :     0.023620
      dxy     :     0.018789

  6 H s       :     0.875871  s :     0.875871

  7 C s       :     2.911525  s :     2.911525
      pz      :     0.910732  p :     3.028935
      px      :     1.076443
      py      :     1.041759
      dz2     :     0.039039  d :     0.151177
      dxz     :     0.036676
      dyz     :     0.028029
      dx2y2   :     0.025452
      dxy     :     0.021981

  8 H s       :     0.881461  s :     0.881461

  9 C s       :     2.897047  s :     2.897047
      pz      :     1.025932  p :     2.882231
      px      :     0.840987
      py      :     1.015312
      dz2     :     0.055649  d :     0.223597
      dxz     :     0.048503
      dyz     :     0.019679
      dx2y2   :     0.047979
      dxy     :     0.051786

 10 H s       :     0.921834  s :     0.921834

 11 O s       :     3.477597  s :     3.477597
      pz      :     1.672813  p :     4.649280
      px      :     1.269644
      py      :     1.706823
      dz2     :     0.003414  d :     0.029893
      dxz     :     0.009549
      dyz     :     0.003482
      dx2y2   :     0.006312
      dxy     :     0.007136

 12 O s       :     3.527235  s :     3.527235
      pz      :     1.777783  p :     4.744912
      px      :     1.621653
      py      :     1.345476
      dz2     :     0.004249  d :     0.027662
      dxz     :     0.004695
      dyz     :     0.002171
      dx2y2   :     0.005667
      dxy     :     0.010880

 13 O s       :     3.528309  s :     3.528309
      pz      :     1.493570  p :     4.754673
      px      :     1.506113
      py      :     1.754990
      dz2     :     0.007053  d :     0.026686
      dxz     :     0.004070
      dyz     :     0.005762
      dx2y2   :     0.003523
      dxy     :     0.006276

 14 O s       :     3.525137  s :     3.525137
      pz      :     1.427914  p :     4.754461
      px      :     1.858552
      py      :     1.467995
      dz2     :     0.012005  d :     0.027800
      dxz     :     0.003196
      dyz     :     0.003545
      dx2y2   :     0.007335
      dxy     :     0.001720

 15 O s       :     3.524302  s :     3.524302
      pz      :     1.421979  p :     4.775450
      px      :     1.507477
      py      :     1.845994
      dz2     :     0.008845  d :     0.026947
      dxz     :     0.005030
      dyz     :     0.004384
      dx2y2   :     0.007359
      dxy     :     0.001329

 16 O s       :     3.535333  s :     3.535333
      pz      :     1.383706  p :     4.755639
      px      :     1.603166
      py      :     1.768767
      dz2     :     0.013501  d :     0.027737
      dxz     :     0.002580
      dyz     :     0.002556
      dx2y2   :     0.003380
      dxy     :     0.005720

 17 H s       :     0.901269  s :     0.901269

 18 H s       :     0.886296  s :     0.886296

 19 H s       :     0.710963  s :     0.710963

 20 H s       :     0.702617  s :     0.702617

 21 H s       :     0.726509  s :     0.726509

 22 H s       :     0.728740  s :     0.728740

 23 H s       :     0.711329  s :     0.711329


---------------------------------
LOEWDIN BOND ORDERS (THRESH 0.050000)
---------------------------------
B(  0-C ,  1-C ) :   1.0633 B(  0-C ,  3-C ) :   0.0543 B(  0-C , 11-O ) :   0.0613 
B(  0-C , 16-O ) :   1.2519 B(  0-C , 17-H ) :   0.9065 B(  0-C , 18-H ) :   0.9071 
B(  1-C ,  2-H ) :   0.8655 B(  1-C ,  3-C ) :   1.0035 B(  1-C ,  5-C ) :   0.0548 
B(  1-C ,  9-C ) :   0.0724 B(  1-C , 11-O ) :   1.1127 B(  1-C , 15-O ) :   0.0826 
B(  1-C , 16-O ) :   0.0809 B(  3-C ,  4-H ) :   0.8657 B(  3-C ,  5-C ) :   1.0183 
B(  3-C ,  7-C ) :   0.0555 B(  3-C , 11-O ) :   0.0547 B(  3-C , 14-O ) :   0.0794 
B(  3-C , 15-O ) :   1.2315 B(  5-C ,  6-H ) :   0.8721 B(  5-C ,  7-C ) :   1.0140 
B(  5-C ,  9-C ) :   0.0529 B(  5-C , 13-O ) :   0.0582 B(  5-C , 14-O ) :   1.2386 
B(  5-C , 15-O ) :   0.0754 B(  7-C ,  8-H ) :   0.8688 B(  7-C ,  9-C ) :   1.0087 
B(  7-C , 11-O ) :   0.0599 B(  7-C , 12-O ) :   0.0654 B(  7-C , 13-O ) :   1.1966 
B(  7-C , 14-O ) :   0.0822 B(  9-C , 10-H ) :   0.8662 B(  9-C , 11-O ) :   1.1549 
B(  9-C , 12-O ) :   1.2946 B(  9-C , 13-O ) :   0.0798 B( 11-O , 12-O ) :   0.0778 
B( 12-O , 19-H ) :   0.8695 B( 13-O , 20-H ) :   0.8762 B( 13-O , 22-H ) :   0.0829 
B( 14-O , 21-H ) :   0.8663 B( 15-O , 22-H ) :   0.8541 B( 16-O , 23-H ) :   0.8860 


------------------------------------------
LOEWDIN REDUCED ORBITAL POPULATIONS PER MO
-------------------------------------------
THRESHOLD FOR PRINTING IS 0.1%%
                      0         1         2         3         4         5   
                 -18.79357 -18.78218 -18.77394 -18.75649 -18.75011 -18.73707
                   2.00000   2.00000   2.00000   2.00000   2.00000   2.00000
                  --------  --------  --------  --------  --------  --------
11 O  s              99.9       0.0       0.0       0.0       0.0       0.0
12 O  s               0.0       0.0      99.9       0.0       0.0       0.0
13 O  s               0.0      99.9       0.0       0.0       0.0       0.0
14 O  s               0.0       0.0       0.0       0.0      99.9       0.0
15 O  s               0.0       0.0       0.0       0.0       0.0      99.9
16 O  s               0.0       0.0       0.0      99.9       0.0       0.0

                      6         7         8         9        10        11   
                  -9.99961  -9.95054  -9.94869  -9.94481  -9.93971  -9.93382
                   2.00000   2.00000   2.00000   2.00000   2.00000   2.00000
                  --------  --------  --------  --------  --------  --------
 0 C  s               0.0       0.0       0.0       0.0      99.6       0.0
 1 C  s               0.0       0.0      99.6       0.0       0.0       0.0
 3 C  s               0.0       0.0       0.0       0.0       0.0      99.6
 5 C  s               0.0       0.0       0.0      99.6       0.0       0.0
 7 C  s               0.0      99.6       0.0       0.0       0.0       0.0
 9 C  s              99.6       0.0       0.0       0.0       0.0       0.0
14 O  pz              0.0       0.0       0.0       0.1       0.0       0.0
15 O  pz              0.0       0.0       0.0       0.0       0.0       0.1

                     12        13        14        15        16        17   
                  -1.00284  -0.95711  -0.94268  -0.93396  -0.92517  -0.91552
                   2.00000   2.00000   2.00000   2.00000   2.00000   2.00000
                  --------  --------  --------  --------  --------  --------
 0 C  s               0.4       0.0       3.6       6.9       0.2       0.1
 0 C  pz              0.1       0.0       0.5       1.0       0.0       0.0
 0 C  px              0.4       0.0       0.4       4.3       1.2       0.0
 0 C  py              0.0       0.0       0.6       1.7       0.2       0.0
 0 C  dxz             0.0       0.0       0.0       0.2       0.0       0.0
 0 C  dxy             0.0       0.0       0.1       0.3       0.0       0.0
 1 C  s               4.5       0.1       3.6       0.0       1.6       0.0
 1 C  pz              0.7       0.1       0.4       0.0       0.2       0.4
 1 C  px              2.8       0.1       0.2       1.7       1.6       0.0
 1 C  py              0.7       0.3       0.0       0.0       0.9       1.3
 1 C  dxz             0.1       0.0       0.0       0.0       0.1       0.0
 1 C  dxy             0.2       0.0       0.0       0.0       0.1       0.0
 2 H  s               0.6       0.0       0.5       0.0       0.2       0.1
 3 C  s               0.7       0.5       2.4       0.3       0.1       8.0
 3 C  pz              0.0       0.1       0.1       0.0       0.2       8.6
 3 C  px              0.1       0.2       0.1       0.4       0.2       0.1
 3 C  py              0.4       0.1       0.1       0.0       0.3       0.8
 3 C  dz2             0.0       0.0       0.0       0.0       0.0       0.6
 3 C  dyz             0.0       0.0       0.0       0.0       0.0       0.2
 4 H  s               0.1       0.1       0.5       0.0       0.1       0.9
 5 C  s               0.9       1.7       2.6       2.5       4.4       0.0
 5 C  pz              0.0       0.1       1.1       1.9       4.9       2.1
 5 C  px              0.0       0.3       0.4       0.1       0.1       0.6
 5 C  py              0.5       0.2       0.2       0.1       0.1       0.0
 5 C  dz2             0.0       0.0       0.1       0.2       0.4       0.0
 6 H  s               0.1       0.3       0.3       0.3       0.5       0.0
 7 C  s               2.4       8.4       0.1       0.0       0.0       0.2
 7 C  pz              0.1       5.9       0.6       0.5       0.9       0.1
 7 C  px              0.2       0.5       0.7       0.4       0.2       0.1
 7 C  py              0.9       1.7       0.2       0.0       0.0       0.0
 7 C  dz2             0.0       0.4       0.0       0.0       0.0       0.0
 7 C  dxz             0.0       0.2       0.0       0.0       0.0       0.0
 7 C  dyz             0.0       0.2       0.0       0.0       0.0       0.0
 8 H  s               0.4       0.9       0.0       0.0       0.1       0.0
 9 C  s              15.2       0.1       1.1       0.1       0.0       0.0
 9 C  pz              2.5       0.4       0.2       0.0       0.1       0.0
 9 C  px              0.7       0.3       5.6       0.6       5.8       0.5
 9 C  py              1.0       2.0       1.4       0.1       0.6       0.2
 9 C  dxz             0.0       0.0       0.3       0.0       0.3       0.0
 9 C  dyz             0.1       0.0       0.1       0.0       0.0       0.0
 9 C  dx2y2           0.2       0.1       0.0       0.0       0.1       0.0
 9 C  dxy             0.0       0.0       0.2       0.0       0.2       0.0
10 H  s               1.7       0.0       0.1       0.0       0.0       0.0
11 O  s              30.9       2.0       6.1       0.8      13.4       1.5
11 O  pz              1.1       0.1       0.2       0.0       0.5       0.0
11 O  px              0.5       0.0       0.6       0.0       0.1       0.0
11 O  py              0.5       0.0       0.4       0.0       0.3       0.0
12 O  s              17.5       1.7      22.0       2.1      14.1       1.7
12 O  pz              0.2       0.0       0.1       0.0       0.0       0.0
12 O  px              1.8       0.1       0.9       0.1       0.4       0.0
13 O  s               1.7      51.9       1.8       1.1       1.3       1.5
13 O  pz              0.1       0.9       0.0       0.0       0.0       0.0
13 O  px              0.0       0.5       0.0       0.0       0.0       0.1
13 O  py              0.1       1.4       0.1       0.0       0.0       0.0
14 O  s               0.8       1.6      10.1      12.8      28.8       3.1
14 O  pz              0.1       0.1       0.5       0.5       1.0       0.1
14 O  py              0.0       0.0       0.3       0.3       0.7       0.1
15 O  s               0.3       1.6       3.4       0.3       0.0      51.6
15 O  pz              0.0       0.1       0.2       0.0       0.0       1.2
15 O  px              0.0       0.1       0.1       0.0       0.0       1.4
15 O  py              0.0       0.0       0.0       0.0       0.0       0.4
16 O  s               0.1       0.0      12.5      41.7       3.9       0.3
16 O  pz              0.0       0.0       0.2       0.6       0.1       0.0
16 O  px              0.0       0.0       0.4       1.0       0.1       0.0
16 O  py              0.0       0.0       0.3       0.9       0.1       0.0
17 H  s               0.1       0.0       0.4       0.7       0.0       0.0
18 H  s               0.1       0.0       0.5       0.7       0.0       0.0
19 H  s               3.8       0.4       4.2       0.4       2.7       0.3
20 H  s               0.4      10.4       0.4       0.2       0.3       0.4
21 H  s               0.5       0.3       2.4       2.7       5.2       0.7
22 H  s               0.1       1.2       0.6       0.1       0.0      10.0
23 H  s               0.0       0.0       2.6       8.5       0.8       0.1

                     18        19        20        21        22        23   
                  -0.70061  -0.69460  -0.62249  -0.59687  -0.57187  -0.53109
                   2.00000   2.00000   2.00000   2.00000   2.00000   2.00000
                  --------  --------  --------  --------  --------  --------
 0 C  s               7.1       1.8      12.2       2.1       7.4       0.1
 0 C  pz              0.1       0.1       0.3       0.6       3.1       1.3
 0 C  px              4.3       1.1       0.4       0.0       1.6       0.9
 0 C  py              0.0       0.0       0.4       0.8       0.0       0.8
 0 C  dxz             0.1       0.0       0.0       0.0       0.0       0.0
 1 C  s              14.5       5.4       0.6       1.0       5.1       1.6
 1 C  pz              0.5       0.0       0.2       2.3       1.5       0.7
 1 C  px              1.5       0.3       3.8       0.1       1.3       0.1
 1 C  py              0.0       2.4       1.3       6.0       0.5       3.5
 1 C  dxz             0.0       0.0       0.1       0.0       0.1       0.0
 2 H  s               2.5       0.9       0.3       0.7       2.7       1.9
 3 C  s               1.6       9.0       4.7       8.1       1.1       2.2
 3 C  pz              0.1       2.6       1.2       0.0       1.0       0.1
 3 C  px              1.3       0.7       0.8       2.8       0.1       0.9
 3 C  py              2.0       0.9       0.5       0.8       3.5       0.0
 3 C  dz2             0.0       0.2       0.0       0.0       0.0       0.0
 4 H  s               0.5       1.7       1.2       3.0       1.0       1.2
 5 C  s               1.1      11.5       5.5       3.2       2.6       3.5
 5 C  pz              0.3       4.0       0.6       0.1       0.0       3.1
 5 C  px              2.1       0.0       1.9       5.7       1.7       0.0
 5 C  py              0.3       0.5       0.7       0.4       1.7       4.1
 5 C  dz2             0.0       0.2       0.0       0.0       0.0       0.1
 6 H  s               0.2       2.2       1.9       1.9       1.5       3.0
 7 C  s               7.5       9.8       2.7       2.2       3.1       1.7
 7 C  pz              0.5       0.8       0.0       0.5       0.0       0.5
 7 C  px              0.9       2.0       0.6       0.1       0.5       0.0
 7 C  py              1.1       0.1       4.7       6.7       0.1       0.4
 7 C  dyz             0.0       0.0       0.0       0.0       0.0       0.1
 8 H  s               1.4       1.8       1.1       0.7       1.3       0.2
 9 C  s               8.7       0.5       5.2       5.7       0.9       1.2
 9 C  pz              0.0       0.2       0.5       1.1       0.5       2.2
 9 C  px              0.4       1.3       2.0       0.1       1.7       2.1
 9 C  py              2.1       3.4       1.5       0.0       2.1       1.0
 9 C  dxz             0.1       0.1       0.0       0.0       0.1       0.1
 9 C  dx2y2           0.0       0.1       0.0       0.0       0.0       0.0
 9 C  dxy             0.1       0.0       0.0       0.0       0.0       0.1
10 H  s               1.3       0.1       1.6       2.6       0.1       1.9
11 O  s               0.1       3.7       1.3       1.8       0.3       0.4
11 O  pz              0.0       0.1       0.0       0.7       0.3       1.7
11 O  px             10.9       0.7       0.0       2.8      10.5       2.8
11 O  py              0.2       0.7       0.0       0.2       1.4       0.1
11 O  dxz             0.1       0.0       0.0       0.0       0.1       0.0
12 O  s               2.8       0.0       0.6       0.7       0.7       0.0
12 O  pz              0.4       0.1       1.2       1.6       0.1       3.0
12 O  px              0.4       0.1       0.1       0.4       1.1       0.0
12 O  py              3.0       0.3       5.9       5.1       0.2       5.8
13 O  s               1.8       2.2       0.6       0.1       0.4       0.0
13 O  pz              1.3       2.4       0.6       2.6       3.0       4.6
13 O  px              1.2       1.8       0.3       2.7       1.8       2.9
13 O  py              0.0       0.0       0.3       0.6       0.1       0.0
14 O  s               0.4       4.4       0.8       0.3       0.3       0.0
14 O  pz              0.2       1.9       1.9       1.1       1.9       7.2
14 O  px              0.1       0.1       0.0       0.5       0.0       0.6
14 O  py              0.1       0.9       1.3       0.8       1.8      10.0
14 O  dz2             0.0       0.1       0.0       0.0       0.0       0.2
15 O  s               0.2       4.2       1.3       0.8       0.1       0.2
15 O  pz              0.2       1.5       1.7       3.6       0.7       2.8
15 O  px              0.2       0.5       0.3       2.8       0.1       1.5
15 O  py              0.1       0.1       0.0       0.4       0.1       0.1
16 O  s               2.3       0.8       1.8       0.0       0.5       0.0
16 O  pz              0.7       0.2       3.4       0.8       8.7       2.3
16 O  px              0.8       0.3       2.4       0.2       3.4       0.5
16 O  py              0.1       0.0       0.7       0.3       0.9       0.0
17 H  s               1.5       0.3       3.5       1.1       2.2       0.0
18 H  s               1.7       0.4       3.7       0.8       4.0       0.6
19 H  s               1.8       0.1       2.3       2.2       0.2       2.3
20 H  s               1.2       1.8       0.3       1.6       1.4       1.9
21 H  s               0.2       1.9       1.1       0.6       1.0       5.3
22 H  s               0.2       1.5       0.7       2.4       0.1       1.1
23 H  s               1.0       0.3       2.3       0.3       3.9       0.8

                     24        25        26        27        28        29   
                  -0.51616  -0.49420  -0.48872  -0.46817  -0.45618  -0.44171
                   2.00000   2.00000   2.00000   2.00000   2.00000   2.00000
                  --------  --------  --------  --------  --------  --------
 0 C  s               0.1       0.0       0.0       0.1       2.0       0.1
 0 C  pz              0.3       2.3       0.3       2.7       0.0       0.2
 0 C  px              0.3       0.1       0.5       3.1       2.0       6.2
 0 C  py              0.0       0.4       0.5       0.2      18.1       1.3
 0 C  dx2y2           0.0       0.0       0.0       0.0       0.1       0.0
 0 C  dxy             0.0       0.0       0.0       0.1       0.2       0.1
 1 C  s               0.5       0.3       0.6       1.0       1.0       0.0
 1 C  pz              5.3       5.5       3.4       0.4       0.7       6.6
 1 C  px              0.1       4.5       0.0       6.5       0.9       2.4
 1 C  py              0.0       0.7       1.4       1.4       2.6       2.7
 1 C  dxy             0.0       0.0       0.1       0.3       0.1       0.0
 2 H  s               2.6       3.1       1.5       0.9       0.3       2.7
 3 C  s               0.3       0.0       0.6       0.0       0.1       0.0
 3 C  pz              0.1       5.2       0.3       1.1       0.2       4.7
 3 C  px              0.7       7.3       0.0       0.2       1.3       6.2
 3 C  py              1.2       0.9       5.3       2.2       3.3       0.1
 3 C  dz2             0.0       0.1       0.0       0.1       0.0       0.0
 4 H  s               0.6       0.5       1.4       0.2       0.0       3.1
 5 C  s               0.0       0.1       0.0       0.1       0.2       0.8
 5 C  pz              0.3       2.4       0.9       1.4       1.8       6.6
 5 C  px              0.0       4.5       1.8       0.0       0.1       1.4
 5 C  py              0.1       3.0       4.1       0.3       0.4       0.0
 6 H  s               0.0       0.5       0.7       0.0       0.0       1.1
 7 C  s               0.9       1.0       0.6       0.5       0.1       0.3
 7 C  pz              7.6       0.8       8.8       0.1       0.3       1.3
 7 C  px              4.4       4.7       0.5       1.4       1.5       1.1
 7 C  py              0.8       2.3       1.2       2.4       1.2       2.4
 7 C  dyz             0.0       0.0       0.2       0.2       0.1       0.0
 7 C  dxy             0.0       0.0       0.0       0.0       0.0       0.1
 8 H  s               5.1       2.6       1.6       0.7       0.0       0.0
 9 C  s               1.4       0.0       0.1       0.2       0.4       0.3
 9 C  pz             11.6       0.5       1.3      12.9       1.2       0.3
 9 C  px              6.2       1.3       3.6       0.2       0.5       0.6
 9 C  py              0.9       1.8       4.0       2.0       1.2       1.2
 9 C  dxz             0.0       0.0       0.0       0.0       0.0       0.1
 9 C  dx2y2           0.0       0.0       0.0       0.0       0.1       0.1
 9 C  dxy             0.0       0.2       0.1       0.0       0.0       0.1
10 H  s               7.2       0.1       0.5       4.2       1.0       0.3
11 O  s               2.2       0.3       1.2       0.0       0.2       0.0
11 O  pz              6.9       0.3       0.7       2.5       0.1       1.3
11 O  px              2.6       3.3       4.8       9.7       0.0       1.2
11 O  py              0.2       5.7       1.7       0.6       0.1       0.0
12 O  s               0.3       0.5       0.0       0.1       0.2       0.4
12 O  pz              0.1       0.2       4.3       0.1       0.3       0.8
12 O  px              0.3       0.8       0.1       3.2       0.0       0.1
12 O  py              9.5       0.4       6.6       5.3       4.0       4.2
13 O  s               0.3       0.1       0.3       1.3       0.3       0.1
13 O  pz              0.6       4.4       6.9       0.2       1.9       1.4
13 O  px              8.2       0.1      10.7       1.7       1.8       0.8
13 O  py              0.1       0.1       0.2       3.4       0.8       1.6
14 O  s               0.4       0.6       0.4       0.2       0.2       0.0
14 O  pz              0.2       0.1       1.4       0.3       0.6       4.4
14 O  px              0.1       1.3       0.9       0.1       0.1       0.1
14 O  py              0.0       2.9       0.0       1.9       2.4       5.5
15 O  s               0.4       0.3       0.1       0.3       0.0       0.6
15 O  pz              0.6       4.3       1.8       3.1       2.4       5.9
15 O  px              1.2       9.3       0.2       3.8       0.4       0.3
15 O  py              0.1       0.2       0.4       0.0       0.1       0.7
16 O  s               0.1       0.4       0.0       0.9       1.0       0.2
16 O  pz              0.3       0.8       0.9       6.4      14.6       4.7
16 O  px              0.3       0.1       0.7       0.1       4.4       0.2
16 O  py              0.2       0.0       0.1       0.0       0.5       2.0
17 H  s               0.1       0.2       0.1       0.2      10.2       0.4
18 H  s               0.0       0.5       0.1       0.2       0.3       0.7
19 H  s               2.3       0.1       2.7       1.3       1.3       1.5
20 H  s               2.2       0.3       5.0       0.3       1.2       0.4
21 H  s               0.1       0.9       0.3       0.7       0.8       2.3
22 H  s               0.7       4.0       0.2       2.3       0.7       1.3
23 H  s               0.2       0.1       0.4       1.5       5.2       1.4

                     30        31        32        33        34        35   
                  -0.41581  -0.40261  -0.39078  -0.37707  -0.36254  -0.35233
                   2.00000   2.00000   2.00000   2.00000   2.00000   2.00000
                  --------  --------  --------  --------  --------  --------
 0 C  s               0.1       0.1       0.2       0.2       0.0       0.3
 0 C  pz              0.0       9.5      10.1       7.9       0.0       5.2
 0 C  px              2.3       3.5       1.4       1.5       0.9       0.8
 0 C  py              5.7       1.7       5.9       0.7       1.7       0.7
 0 C  dz2             0.0       0.1       0.0       0.2       0.0       0.1
 0 C  dxz             0.0       0.0       0.0       0.0       0.0       0.1
 1 C  s               0.1       0.0       0.0       0.3       0.1       0.1
 1 C  pz              0.9       2.4       0.9       0.9       0.0       6.8
 1 C  px              1.1       0.1       6.0       0.1       1.0       0.7
 1 C  py              0.0       1.6       2.4       0.0       0.4       8.8
 1 C  dz2             0.0       0.0       0.0       0.1       0.1       0.3
 1 C  dyz             0.0       0.1       0.0       0.0       0.0       0.1
 1 C  dx2y2           0.0       0.0       0.2       0.0       0.0       0.1
 1 C  dxy             0.0       0.0       0.1       0.0       0.1       0.0
 2 H  s               0.1       1.4       0.0       0.8       0.0       8.8
 3 C  s               0.1       0.6       1.0       0.1       0.1       0.0
 3 C  pz              2.4       6.1       0.5       0.2       3.6       0.5
 3 C  px              0.1       0.6       0.9       0.1      10.6       0.1
 3 C  py              0.6       3.1       4.4       0.0       3.2       4.7
 3 C  dz2             0.1       0.1       0.0       0.0       0.1       0.0
 3 C  dyz             0.0       0.1       0.0       0.0       0.0       0.1
 3 C  dx2y2           0.0       0.0       0.0       0.0       0.0       0.1
 3 C  dxy             0.0       0.0       0.0       0.1       0.2       0.0
 4 H  s               1.0       1.6       0.2       0.1      10.3       1.3
 5 C  s               0.5       0.1       0.2       0.2       0.3       0.2
 5 C  pz              4.0       0.4       0.5       1.5       0.2       0.2
 5 C  px              1.1      10.5       1.8       0.0       1.1       1.5
 5 C  py              1.0       1.5       1.2      17.7       0.1       3.5
 5 C  dz2             0.5       0.0       0.0       0.1       0.1       0.0
 5 C  dx2y2           0.0       0.0       0.2       0.1       0.0       0.0
 6 H  s               2.1       0.0       1.8       9.0       0.1       2.6
 7 C  s               0.5       0.2       0.0       0.1       0.0       0.3
 7 C  pz              4.9       0.5       0.5       0.4       3.2       0.0
 7 C  px              2.5       6.3       9.5       0.4       0.3       0.8
 7 C  py              2.8       2.5       2.8       1.5       0.7       1.0
 7 C  dyz             0.1       0.0       0.0       0.0       0.0       0.0
 7 C  dx2y2           0.1       0.0       0.2       0.1       0.0       0.0
 8 H  s               4.6       1.5       3.7       0.0       0.6       0.1
 9 C  s               0.2       0.1       0.3       0.1       0.0       0.1
 9 C  pz              5.1       0.6       0.1       1.6       0.0       0.9
 9 C  px              0.1       0.1       0.2       0.8       0.9       0.3
 9 C  py              5.3       1.1       5.7       3.8       0.1       0.2
 9 C  dx2y2           0.0       0.0       0.1       0.1       0.2       0.1
 9 C  dxy             0.0       0.2       0.0       0.0       0.0       0.1
10 H  s               4.5       0.8       0.0       1.1       0.0       0.5
11 O  s               0.0       0.2       0.4       0.6       0.8       0.0
11 O  pz              0.2       0.3       2.7       1.9       9.8       0.1
11 O  px              0.2       0.1       0.4       2.0       0.0       0.4
11 O  py              2.8       0.8       0.0       2.7       3.5      11.5
12 O  s               1.2       0.0       0.1       0.7       1.3       0.1
12 O  pz              2.2       1.7       1.0       4.7       0.1       1.2
12 O  px              1.3       0.7       1.0       2.1       4.8       0.8
12 O  py              2.1       0.0       0.1       0.4       0.5       0.1
13 O  s               1.0       1.0       0.2       0.1       2.9       0.1
13 O  pz              0.1       2.5       6.3       0.0       3.8       0.9
13 O  px              6.4       0.6       1.7       0.1       2.3       1.1
13 O  py              0.2       3.0       0.3       0.2      15.1       0.4
14 O  s               0.4       0.0       0.0       1.6       0.0       0.6
14 O  pz              4.6       0.7       0.8      12.3       0.0       4.1
14 O  px              0.1       3.9       0.3       0.2       0.3       0.6
14 O  py              6.2       0.0       0.1       3.3       0.5       1.6
15 O  s               0.0       0.2       0.1       0.3       0.2       0.0
15 O  pz              1.8       1.7       0.8       0.0       2.8       0.0
15 O  px              1.8       5.1       1.5       0.7       1.1       0.0
15 O  py              1.1       1.5       1.3       0.0       4.5       0.7
16 O  s               0.0       0.3       0.1       0.2       0.0       2.0
16 O  pz              0.0       0.4       0.1       0.1       0.0       3.2
16 O  px              0.4       2.2       8.7       2.7       0.2       4.4
16 O  py              2.2       4.2       0.2       3.5       0.2       9.1
17 H  s               3.2       0.9       4.1       0.2       1.4       0.8
18 H  s               0.2       6.2       3.3       6.2       0.1       3.1
19 H  s               0.3       0.1       0.1       0.0       0.4       0.1
20 H  s               1.3       0.0       0.0       0.0       0.7       0.0
21 H  s               2.8       0.1       0.2       0.2       0.0       0.0
22 H  s               0.7       1.3       0.3       0.1       0.9       0.0
23 H  s               0.0       0.6       0.4       0.4       0.0       0.2

                     36        37        38        39        40        41   
                  -0.33422  -0.32858  -0.32512  -0.29814  -0.28506  -0.27917
                   2.00000   2.00000   2.00000   2.00000   2.00000   2.00000
                  --------  --------  --------  --------  --------  --------
 0 C  s               0.1       0.5       0.2       0.0       0.0       0.0
 0 C  pz              0.0       0.0       0.6       0.0       6.2       0.1
 0 C  px              0.5       1.7       0.9       0.0       3.3       0.1
 0 C  py              0.8       3.0       0.8       0.1       2.7       0.0
 0 C  dz2             0.0       0.1       0.0       0.0       0.6       0.0
[...]
 5 C  dxz             0.0       0.7       0.0       0.6       0.4       0.0
 5 C  dyz             0.0       0.0       0.1       0.1       0.7       0.0
 6 H  s               0.0       0.0       0.0       0.0       0.1       0.0
 7 C  s               0.1       1.7       0.2       0.2       0.4       0.1
 7 C  pz              0.0       1.9       0.1       0.4       0.7       0.0
 7 C  px              0.0       0.2       0.0       0.0       0.1       0.0
 7 C  py              0.1       0.4       0.1       0.1       0.1       0.0
 7 C  dz2             0.0       4.7       0.0       0.9       0.7       0.0
 7 C  dxz             0.0       2.4       0.0       0.0       0.1       0.0
 7 C  dyz             0.0       1.9       0.0       0.7       1.5       0.0
 7 C  dx2y2           0.2       0.0       0.3       0.0       0.1       0.0
 7 C  dxy             0.1       0.5       0.0       0.1       0.1       0.1
 9 C  s               1.5       0.0       1.1       0.0       0.1       0.4
 9 C  pz              0.4       0.0       0.2       0.0       0.0       0.0
 9 C  px              0.2       0.0       0.4       0.1       0.0       3.3
 9 C  py              0.6       0.0       0.4       0.1       0.0       0.1
 9 C  dz2             0.4       0.1       1.0       0.0       0.0       0.1
 9 C  dxz             0.3       0.0       1.5       0.1       0.1       4.4
 9 C  dyz             0.6       0.1       0.0       0.0       0.1       0.6
 9 C  dx2y2           1.0       0.0       1.1       0.0       0.1       2.6
 9 C  dxy             1.9       0.3       3.7       0.4       0.2       1.6
11 O  s               0.0       0.0       0.9       0.0       0.0       0.0
11 O  px              0.2       0.0       0.5       0.0       0.0       5.9
11 O  py              0.0       0.0       0.0       0.0       0.0       0.3
11 O  dz2             0.0       0.0       3.7       0.0       0.0       0.0
11 O  dxz             2.9       0.1       3.7       0.1       0.0      29.0
11 O  dyz             0.0       0.0       0.0       0.0       0.0       1.9
11 O  dx2y2           0.3       0.0       4.9       0.0       0.8       5.2
11 O  dxy             2.0       0.2       7.4       0.5       0.6      17.0
12 O  s               1.5       0.0       1.4       0.1       0.0       1.2
12 O  pz              0.3       0.0       0.4       0.0       0.0       0.1
12 O  px              0.3       0.0       0.3       0.0       0.0       0.4
12 O  py              1.1       0.0       1.0       0.1       0.0       0.4
12 O  dz2             0.3       0.0       0.0       0.0       0.0       1.6
12 O  dxz             6.0       0.0       7.2       0.4       0.1       2.4
12 O  dyz             4.7       0.0       6.6       0.2       0.1       1.1
12 O  dx2y2           0.1       0.0       0.1       0.0       0.1       1.7
12 O  dxy            12.4       0.2       9.7       1.1       0.2       6.2
13 O  s               0.0       2.9       0.1       0.7       1.1       0.0
13 O  pz              0.0       2.4       0.0       0.3       0.7       0.0
13 O  px              0.0       0.8       0.0       0.4       0.2       0.0
13 O  py              0.0       0.2       0.0       0.0       0.0       0.0
13 O  dz2             0.4      19.8       0.2       2.7       4.8       0.0
13 O  dxz             0.0       5.5       0.3       1.4       3.2       0.0
13 O  dyz             0.2      17.5       0.3       2.0       1.8       0.1
13 O  dx2y2           0.0       0.7       0.0       0.0       0.0       0.0
13 O  dxy             0.0       3.1       0.0       0.8       0.4       0.0
14 O  s               0.0       0.6       0.2       0.6       4.0       0.0
14 O  pz              0.0       1.0       0.2       0.5       2.4       0.0
14 O  px              0.0       0.0       0.0       0.1       0.0       0.0
14 O  py              0.0       0.3       0.0       0.1       0.2       0.0
14 O  dz2             0.1      17.8       2.6       7.4      34.2       0.0
14 O  dxz             0.0       0.0       0.1       3.0       0.4       0.0
14 O  dyz             0.0       2.1       0.0       0.2       0.3       0.0
14 O  dx2y2           0.0       0.2       0.0       0.0       0.0       0.0
15 O  s               0.0       0.0       0.0       2.7       1.7       0.0
15 O  pz              0.0       0.1       0.0       2.7       1.3       0.0
15 O  px              0.0       0.0       0.0       0.6       0.0       0.0
15 O  py              0.0       0.0       0.0       0.3       0.1       0.0
15 O  dz2             0.0       0.4       0.7      30.8      14.0       0.2
15 O  dxz             0.0       0.5       0.0       0.2       0.2       0.0
15 O  dyz             0.0       0.3       0.1      13.0       3.8       0.0
15 O  dx2y2           0.0       0.0       0.0       2.5       0.0       0.0
15 O  dxy             0.0       0.0       0.0       0.1       0.0       0.0
16 O  s               2.2       0.1       1.2       0.3       0.0       0.0
16 O  pz              0.8       0.0       0.4       0.0       0.0       0.0
16 O  px              1.3       0.0       0.8       0.1       0.0       0.0
16 O  py              0.5       0.0       0.2       0.0       0.0       0.0
16 O  dz2             7.3       0.1       3.9       0.1       0.0       0.1
16 O  dxz             7.4       0.1       3.2       0.2       0.0       0.2
16 O  dyz             4.2       0.0       1.6       0.1       0.0       0.1
16 O  dx2y2           3.1       0.1       2.2       0.3       0.0       0.5
16 O  dxy            19.9       0.3       9.7       0.6       0.1       0.0
19 H  s               0.2       0.0       0.1       0.0       0.0       0.1
20 H  s               0.0       0.6       0.0       0.1       0.0       0.0
21 H  s               0.0       0.3       0.0       0.1       0.3       0.0
22 H  s               0.0       0.1       0.0       0.8       0.2       0.0
23 H  s               0.4       0.0       0.2       0.0       0.0       0.0



                      *****************************
                      * MAYER POPULATION ANALYSIS *
                      *****************************

  NA   - Mulliken gross atomic population
  ZA   - Total nuclear charge
  QA   - Mulliken gross atomic charge
  VA   - Mayer's total valence
  BVA  - Mayer's bonded valence
  FA   - Mayer's free valence

  ATOM       NA         ZA         QA         VA         BVA        FA
  0 C      5.9086     6.0000     0.0914     3.9574     3.9574     0.0000
  1 C      6.0374     6.0000    -0.0374     3.9764     3.9764     0.0000
  2 H      0.9437     1.0000     0.0563     0.9934     0.9934    -0.0000
  3 C      5.9543     6.0000     0.0457     3.9564     3.9564     0.0000
  4 H      0.9093     1.0000     0.0907     0.9958     0.9958     0.0000
  5 C      5.9811     6.0000     0.0189     4.0815     4.0815     0.0000
  6 H      0.9080     1.0000     0.0920     0.9703     0.9703     0.0000
  7 C      5.9766     6.0000     0.0234     3.8892     3.8892     0.0000
  8 H      0.9137     1.0000     0.0863     0.9902     0.9902     0.0000
  9 C      5.8121     6.0000     0.1879     4.1633     4.1633     0.0000
 10 H      0.9639     1.0000     0.0361     0.9873     0.9873     0.0000
 11 O      8.3193     8.0000    -0.3193     2.1413     2.1413    -0.0000
 12 O      8.3833     8.0000    -0.3833     2.0460     2.0460     0.0000
 13 O      8.4203     8.0000    -0.4203     2.0295     2.0295     0.0000
 14 O      8.4164     8.0000    -0.4164     2.0068     2.0068     0.0000
 15 O      8.4296     8.0000    -0.4296     2.0124     2.0124     0.0000
 16 O      8.4202     8.0000    -0.4202     2.0390     2.0390    -0.0000
 17 H      0.9194     1.0000     0.0806     0.9501     0.9501     0.0000
 18 H      0.9194     1.0000     0.0806     0.9800     0.9800     0.0000
 19 H      0.6943     1.0000     0.3057     0.8949     0.8949     0.0000
 20 H      0.6826     1.0000     0.3174     0.8718     0.8718     0.0000
 21 H      0.6936     1.0000     0.3064     0.9131     0.9131    -0.0000
 22 H      0.6977     1.0000     0.3023     0.9323     0.9323    -0.0000
 23 H      0.6951     1.0000     0.3049     0.8785     0.8785     0.0000

  Mayer bond orders larger than 0.100000
B(  0-C ,  1-C ) :   1.0412 B(  0-C , 16-O ) :   1.0719 B(  0-C , 17-H ) :   0.9128 
B(  0-C , 18-H ) :   0.9103 B(  1-C ,  2-H ) :   0.8763 B(  1-C ,  3-C ) :   0.9373 
B(  1-C , 11-O ) :   0.9649 B(  3-C ,  4-H ) :   0.8925 B(  3-C ,  5-C ) :   1.0048 
B(  3-C , 15-O ) :   1.0696 B(  5-C ,  6-H ) :   0.8943 B(  5-C ,  7-C ) :   0.9909 
B(  5-C , 14-O ) :   1.0551 B(  7-C ,  8-H ) :   0.8853 B(  7-C ,  9-C ) :   0.9709 
B(  7-C , 13-O ) :   1.0204 B(  9-C , 10-H ) :   0.8771 B(  9-C , 11-O ) :   1.0253 
B(  9-C , 12-O ) :   1.1604 B( 12-O , 19-H ) :   0.8389 B( 13-O , 20-H ) :   0.8410 
B( 14-O , 21-H ) :   0.8243 B( 15-O , 22-H ) :   0.8130 B( 16-O , 23-H ) :   0.8467 


-------
TIMINGS
-------

Total SCF time: 0 days 0 hours 0 min 5 sec 

Total time                  ....       5.600 sec
Sum of individual times     ....       5.568 sec  ( 99.4%)

SCF preparation             ....       0.063 sec  (  1.1%)
Fock matrix formation       ....       5.291 sec  ( 94.5%)
  Startup                   ....       0.007 sec  (  0.1% of F)
  Split-RI-J                ....       2.788 sec  ( 52.7% of F)
  XC integration            ....       2.407 sec  ( 45.5% of F)
    XC Preparation          ....       0.000 sec  (  0.0% of XC)
    Basis function eval.    ....       0.994 sec  ( 41.3% of XC)
    Density eval.           ....       0.548 sec  ( 22.8% of XC)
    XC-Functional eval.     ....       0.147 sec  (  6.1% of XC)
    XC-Potential eval.      ....       0.565 sec  ( 23.5% of XC)
Diagonalization             ....       0.000 sec  (  0.0%)
Density matrix formation    ....       0.030 sec  (  0.5%)
Total Energy calculation    ....       0.002 sec  (  0.0%)
Population analysis         ....       0.060 sec  (  1.1%)
Orbital Transformation      ....       0.018 sec  (  0.3%)
Orbital Orthonormalization  ....       0.000 sec  (  0.0%)
DIIS solution               ....       0.082 sec  (  1.5%)
  MO trafo                  ....       0.000 sec  (  0.0 % of DIIS)
  Orb grad                  ....       0.000 sec  (  0.0 % of DIIS)
  Energy W gradient         ....       0.000 sec  (  0.0 % of DIIS)
  DIIS error                ....       0.005 sec  (  6.0 % of DIIS)
  DIIS work                 ....       0.067 sec  ( 81.2 % of DIIS)
  Form Q                    ....       0.000 sec  (  0.0 % of DIIS)
  Form QpQm                 ....       0.000 sec  (  0.0 % of DIIS)
  Exp/Cayley                ....       0.000 sec  (  0.0 % of DIIS)
  Orb update                ....       0.000 sec  (  0.0 % of DIIS)
  Wake-sleep                ....       0.001 sec  (  1.2 % of DIIS)
SOSCF solution              ....       0.022 sec  (  0.4%)
  MO trafo                  ....       0.014 sec  ( 62.2 % of SOSCF)
  Orb grad                  ....       0.000 sec  (  0.8 % of SOSCF)
  Rot update                ....       0.002 sec  (  7.4 % of SOSCF)
  Step                      ....       0.006 sec  ( 29.3 % of SOSCF)
Finished LeanSCF after   5.6 sec

Maximum memory used throughout the entire LEANSCF-calculation: 19.0 MB


-------------------------------------------------------------------------------
                          DFT DISPERSION CORRECTION                            
                                                                               
                                DFTD4 V3.4.0                                   
-------------------------------------------------------------------------------
The PBE functional is recognized
Active option DFTDOPT                   ...         5   

-------------------------   ----------------
Dispersion correction           -0.024971722
-------------------------   ----------------

------------------   -----------------
gCP correction             0.157832882
------------------   -----------------

-------------------------   --------------------
FINAL SINGLE POINT ENERGY      -685.690121836501
-------------------------   --------------------


------------------------------------------------------------------------------
                              ORCA PROPERTY CALCULATIONS
------------------------------------------------------------------------------

GBWName                                 ... sp.gbw
Number of atoms                         ...     24
Number of basis functions               ...    192
Max core memory                         ...   1024 MB

Electric properties:
Dipole moment                           ... YES
Quadrupole moment                       ...  NO
Static polarizability (Dipole/Dipole)   ...  NO
Static polarizability (Dipole/Quad.)    ...  NO
Static polarizability (Quad./Quad.)     ...  NO
Static polarizability (Velocity)        ...  NO

Atomic electric properties:
Dipole moment                           ...  NO
Quadrupole moment                       ...  NO
Static polarizability                   ...  NO

Choice of electric origin               ... Center of mass
Position of electric origin             ...    -0.000004    -0.000002     0.000000

General magnetic properties:
Magnetizability                         ...  NO

EPR properties:
g-Tensor (aka g-matrix)                 ...  NO
Zero-Field splitting spin-orbit         ...  NO
Zero-field splitting spin-spin          ...  NO
Hyperfine couplings                     ...  NO (   0 nuclei)
Quadrupole couplings                    ...  NO (   0 nuclei)
Contact density                         ...  NO (   0 nuclei)

NMR properties:
Chemical shifts                         ...  NO (   0 nuclei)
Spin-rotation constants                 ...  NO (   0 nuclei)
Spin-spin couplings                     ...  NO (   0 nuclei,    0 pairs)

Choice of magnetic origin               ... GIAO
Position of magnetic origin             ...     0.000000     0.000000     0.000000

Properties with geometric perturbations:
SCF Hessian                             ...  NO
IR spectrum                             ...  NO
VCD spectrum                            ...  NO
X-ray spectroscopy properties:
SCF XES/XAS/RIXS spectra                ...  NO


-------------
DIPOLE MOMENT
-------------

Method             : SCF
Type of density    : Electron Density
Multiplicity       :   1
Irrep              :   0
Energy             :  -685.8229829966610396 Eh
Relativity type    : 
Basis              : AO
                                X                 Y                 Z
Electronic contribution:      1.994184941       0.177413512      -0.222413227
Nuclear contribution   :     -1.264608748      -1.508723883       0.881833724
                        -----------------------------------------
Total Dipole Moment    :      0.729576193      -1.331310371       0.659420497
                        -----------------------------------------
Magnitude (a.u.)       :      1.655144742
Magnitude (Debye)      :      4.207043596



--------------------
Rotational spectrum 
--------------------
 
Rotational constants in cm-1:             0.043607             0.025144             0.021407 
Rotational constants in MHz :          1307.301522           753.789629           641.765927 

Dipole components along the rotational axes: 
x,y,z [a.u.] :     0.797618    -0.920410     1.120783 
x,y,z [Debye]:     2.027383    -2.339497     2.848805 

 

Dipole moment calculation done in   1.7 sec 

Maximum memory used throughout the entire PROP-calculation: 12.6 MB

--------------------------------
SUGGESTED CITATIONS FOR THIS RUN
--------------------------------

Below you find a list of papers that are relevant to this ORCA run
We neither can nor want to force you to cite these papers, but we appreciate if you do
You receive ORCA, which is the product of decades of hard work by many enthusiastic individuals, for free
The only thing we kindly ask in return is that you cite our papers,
We deeply appreciate it, if you show your appreciation for ORCA by not just citing the generic ORCA reference.

Please note that relegating all ORCA citations to the supporting information does *not* help us.
SI sections are not indexed - citations you put there will not count into any citation statistics
But we need these citations in order to attract the funding resources that allow us to do what we are doing

Therefore, if you are a happy ORCA user, please consider citing a few of the papers listed below in the main body of your paper

In addition to the list printed below, the program has created the file sp.bibtex that contains the list in bibtex format
You can import this file easily into all common literature databanks and citation aid programs


List of essential papers. We consider these as the minimum necessary citations

  1. Neese,F.
     Software update: the ORCA program system, version 5.0
     WIRES Comput. Molec. Sci., 2022 12(1)e1606
     doi.org/10.1002/wcms.1606

List of papers to cite with high priority. The work reported in these papers was absolutely
necessary for this run to complete.
Our perspective: the developers of density functionals and basis sets usually get cited in chemistry papers
Good! But without the algorithms to do something with them, the functionals or basis sets would not do anything.
Hence, in our opinion, the algorithm design and method developments papers are equally worthy of getting cited

  1. Neese,F.
     An improvement of the resolution of the identity approximation for the formation of the Coulomb matrix
     J. Comp. Chem., 2003 24(14)1740-1747
     doi.org/10.1002/jcc.10318
  2. Neese,F.
     The SHARK Integral Generation and Digestion System
     J. Comp. Chem., 2022  1-16
     doi.org/10.1002/jcc.26942
  3. Caldeweyher,E.; Bannwarth,C.; Grimme,S.
     Extension of the D3 dispersion coefficient model
     J. Chem. Phys., 2017 147 034112
     doi.org/10.1063/1.4993215
  4. Caldeweyher,E.; Ehlert,S.; Hansen,A.; Neugebauer,H.; Spicher,S.; Bannwarth,C.; Grimme,S.
     A generally applicable atomic-charge dependent London dispersion correction
     J. Chem. Phys., 2019 150 154122
     doi.org/10.1063/1.5090222
  5. Caldeweyher,E.; Mewes,J.; Ehlert,S.; Grimme,S.
     Extension and evaluation of the D4 London-dispersion model for periodic systems
     Phys. Chem. Chem. Phys., 2020 22(16)8499-8512
     doi.org/10.1039/D0CP00502A
  6. Wittmann,L.; Gordiy,I.; Friede,M.; Helmich-Paris,B.; Grimme,S.; Hansen,A.; Bursch,M.
     Extension of the D3 and D4 London Dispersion Corrections to the full Actinides Series
     Phys. Chem. Chem. Phys., 2024 26(32)21379-21394
     doi.org/https://doi.org/10.1039/D4CP01514B 

List of suggested additional citations. These are papers that are important in the 'surrounding' of 
of this run, or papers that preceded the highly important papers. If you like your results we are grateful for a citation.

  1. Neese,F.
     The ORCA program system
     WIRES Comput. Molec. Sci., 2012 2(1)73-78
     doi.org/10.1002/wcms.81
  2. Neese,F.
     Software update: the ORCA program system, version 4.0
     WIRES Comput. Molec. Sci., 2018 8(1)1-6
     doi.org/10.1002/wcms.1327
  3. Neese,F.; Wennmohs,F.; Becker,U.; Riplinger,C.
     The ORCA quantum chemistry program package
     J. Chem. Phys., 2020 152 Art. No. L224108
     doi.org/10.1063/5.0004608

List of optional additional citations

  1. Neese,F.
     Approximate second-order SCF convergence for spin unrestricted wavefunctions
     Chem. Phys. Lett., 2000 325(1-3)93-98
     doi.org/10.1016/s0009-2614(00)00662-x

Timings for individual modules:

Sum of individual times          ...        8.630 sec (=   0.144 min)
Startup calculation              ...        0.575 sec (=   0.010 min)   6.7 %
SCF iterations                   ...        6.306 sec (=   0.105 min)  73.1 %
Property calculations            ...        1.749 sec (=   0.029 min)  20.3 %
                             ****ORCA TERMINATED NORMALLY****
TOTAL RUN TIME: 0 days 0 hours 0 minutes 9 seconds 95 msec
