
                                 *****************
                                 * O   R   C   A *
                                 *****************

                                            #,                                       
                                            ###                                      
                                            ####                                     
                                            #####                                    
                                            ######                                   
                                           ########,                                 
                                     ,,################,,,,,                         
                               ,,#################################,,                 
                          ,,##########################################,,             
                       ,#########################################, ''#####,          
                    ,#############################################,,   '####,        
                  ,##################################################,,,,####,       
                ,###########''''           ''''###############################       
              ,#####''   ,,,,##########,,,,          '''####'''          '####       
            ,##' ,,,,###########################,,,                        '##       
           ' ,,###''''                  '''############,,,                           
         ,,##''                                '''############,,,,        ,,,,,,###''
      ,#''                                            '''#######################'''  
     '                                                          ''''####''''         
             ,#######,   #######,   ,#######,      ##                                
            ,#'     '#,  ##    ##  ,#'     '#,    #''#        ,####,   ,####,        
            ##       ##  ##   ,#'  ##            #'  '#       #'       #'  '#        
            ##       ##  #######   ##           ,######,      #####,   #    #        
            '#,     ,#'  ##    ##  '#,     ,#' ,#      #,     #,   #   #,  ,#        
             '#######'   ##     ##  '#######'  #'      '#     '####' # '####'        



                #########################################################
                #                        -***-                          #
                #          Department of theory and spectroscopy        #
                #                                                       #
                #                      Frank Neese                      #
                #                                                       #
                #     Directorship, Architecture, Infrastructure        #
                #                    SHARK, DRIVERS                     #
                #        Core code/Algorithms in most modules           #
                #                                                       #
                #        Max Planck Institute fuer Kohlenforschung      #
                #                Kaiser Wilhelm Platz 1                 #
                #                 D-45470 Muelheim/Ruhr                 #
                #                      Germany                          #
                #                                                       #
                #                  All rights reserved                  #
                #                        -***-                          #
                #########################################################


                         Program Version 6.0.1  -  RELEASE   -


 With contributions from (in alphabetic order):
[Max-Planck-Institut fuer Kohlenforschung]                               
  Daniel Aravena         : Magnetic Suceptibility                        
  Michael Atanasov       : Ab Initio Ligand Field Theory (pilot matlab implementation)
  Alexander A. Auer      : GIAO ZORA, VPT2 properties, NMR spectrum      
  Ute Becker             : All parallelization in ORCA, NUMFREQ, NUMCALC 
  Giovanni Bistoni       : ED, misc. LED, open-shell LED, HFLD           
  Martin Brehm           : Molecular dynamics                            
  Dmytro Bykov           : pre 5.0 version of the SCF Hessian            
  Marcos Casanova-Páez   : Triplet and SCS-CIS(D). UHF-(DLPNO)-IP/EA/STEOM-CCSD. UHF-CVS-IP/STEOM-CCSD   
  Vijay G. Chilkuri      : MRCI spin determinant printing, contributions to CSF-ICE 
  Pauline Colinet        : FMM embedding                                 
  Dipayan Datta          : RHF DLPNO-CCSD density                        
  Achintya Kumar Dutta   : EOM-CC, STEOM-CC                              
  Nicolas Foglia         : Exact transition moments, OPA infrastructure, MCD improvements    
  Dmitry Ganyushin       : Spin-Orbit,Spin-Spin,Magnetic field MRCI      
  Miquel Garcia-Rates    : C-PCM and meta-GGA Hessian, CCSD/C-PCM, Gaussian charge scheme 
  Tiago L. C. Gouveia    : GS-ROHF, GS-ROCIS                             
  Yang Guo               : DLPNO-NEVPT2, F12-NEVPT2, CIM, IAO-localization        
  Andreas Hansen         : Spin unrestricted coupled pair/coupled cluster methods 
  Ingolf Harden          : AUTO-CI MPn and infrastructure                
  Benjamin Helmich-Paris : MC-RPA, TRAH-(SCF,CASSCF), AVAS, COSX integrals, SCF dyn. polar. 
  Lee Huntington         : MR-EOM, pCC                                   
  Robert Izsak           : Overlap fitted RIJCOSX, COSX-SCS-MP3, EOM     
  Riya Kayal             : Wick's Theorem for AUTO-CI, AUTO-CI UHF-CCSDT 
  Emily Kempfer          : AUTO-CI, RHF CISDT and CCSDT                  
  Christian Kollmar      : KDIIS, OOCD, Brueckner-CCSD(T), CCSD density, CASPT2, CASPT2-K, improved NEVPT2 
  Axel Koslowski         : Symmetry handling                             
  Simone Kossmann        : meta-GGA functionals, TD-DFT gradient, OOMP2, (MP2 Hessian; deprecated post 5.0) 
  Lucas Lang             : DCDCAS                                        
  Marvin Lechner         : AUTO-CI (C++ implementation), FIC-MRCC        
  Spencer Leger          : CASSCF response                               
  Dagmar Lenk            : GEPOL surface, SMD, ORCA-2-JSON               
  Dimitrios Liakos       : Extrapolation schemes; Compound Job, initial MDCI parallelization 
  Dimitrios Manganas     : Further ROCIS development; embedding schemes. LFT, Crystal Embedding 
  Dimitrios Pantazis     : SARC Basis sets                               
  Anastasios Papadopoulos: AUTO-CI, single reference methods and gradients 
  Taras Petrenko         : pre 6.0 DFT Hessian and TD-DFT gradient, (ASA, deprecated), ECA, 1-Electron XAS/XES, NRVS 
  Peter Pinski           : DLPNO-MP2, DLPNO-MP2 Gradient                 
  Christoph Reimann      : Effective Core Potentials                     
  Marius Retegan         : Local ZFS, SOC                                
  Christoph Riplinger    : Optimizer, TS searches, QM/MM, DLPNO-CCSD(T), (RO)-DLPNO pert. Triples 
  Michael Roemelt        : Original ROCIS implementation                 
  Masaaki Saitow         : Open-shell DLPNO-CCSD energy and density      
  Barbara Sandhoefer     : DKH picture change effects                    
  Kantharuban Sivalingam : CASSCF convergence/infrastructure, NEVPT2 and variants, FIC-MRCI 
  Bernardo de Souza      : ESD, SOC TD-DFT                               
  Georgi L. Stoychev     : AutoAux, RI-MP2 NMR, DLPNO-MP2 response, X2C  
  Van Anh Tran           : RI-MP2 g-tensors                              
  Willem Van den Heuvel  : Paramagnetic NMR                              
  Zikuan Wang            : NOTCH, Electric field optimization            
  Frank Wennmohs         : Technical directorship and infrastructure     
  Hang Xu                : AUTO-CI-Response properties                   
                                                                         
[FACCTs GmbH]                                                            
  Markus Bursch, Miquel Garcia-Rates, Christoph Riplinger, Bernardo de Souza, Georgi L. Stoychev 
                                                                 
  APM, Basis sets (HGBS, AHGBS, def-TZVP (Ac-Lr), def2-XVPD (La-Lu)), CI-OPT, improved COSX, DLPNO-Multilevel,           
  DOCKER, DRACO, updates on ESD, GOAT, IRC, LR-CPCM, MBIS, meta-GGA TD-DFT gradient, ML-optimized integration grids, 
  MM, NACMEs, nearIR, NEB, NEB-TS, NL-DFT gradient (VV10), 2- and 3-layer-ONIOM, interface openCOSMO-RS, QMMM,   
  Crystal-QMMM, SF, symmetry and pop. for TD-DFT, r2SCAN hybrids, SOLVATOR                                   
                                                                         
[Other institutions]                                                     
  V. Asgeirsson          : NEB                                           
  Christoph Bannwarth    : sTDA-DFT, sTD-DFT, PBEh-3c, B97-3c, D3        
  Sebastian Ehlert       : rSCAN, r2SCAN, r2SCAN-3c, D4, dhf basis sets  
  Marvin Friede          : D4 for Fr, Ra, Ac-Lr                          
  Lars Goerigk           : TD-DFT with DH, B97 family of functionals     
  Stefan Grimme          : VdW corrections, initial TS optimization, DFT functionals, gCP, sTDA/sTD-DF 
  Waldemar Hujo          : DFT-NL                                        
  H. Jonsson             : NEB                                           
  Holger Kruse           : gCP                                           
  Marcel Mueller         : wB97X-3c, vDZP basis set                      
  Hagen Neugebauer       : wr2SCAN                                       
  Tobias Risthaus        : range-separated hybrid DFT                    
  Lukas Wittmann         : regularized MP2, r2SCAN double-hybrids, wr2SCAN        
                                                                         
We gratefully acknowledge several colleagues who have allowed us to      
interface, adapt or use parts of their codes:                            
  Ed Valeev, F. Pavosevic, A. Kumar             : LibInt (2-el integral package), F12 methods 
  Garnet Chan, S. Sharma, J. Yang, R. Olivares  : DMRG                   
  Ulf Ekstrom                                   : XCFun DFT Library      
  Mihaly Kallay                                 : mrcc  (arbitrary order and MRCC methods)
  Frank Weinhold                                : gennbo (NPA and NBO analysis)           
  Simon Mueller                                 : openCOSMO-RS                            
  Christopher J. Cramer and Donald G. Truhlar   : smd solvation model                     
  S Lehtola, MJT Oliveira, MAL Marques          : LibXC Library                           
  Liviu Ungur et al                             : ANISO software                          


 Your calculation uses the libint2 library for the computation of 2-el integrals
 For citations please refer to: http://libint.valeyev.net

 Your ORCA version has been built with support for libXC version: 6.2.2
 For citations please refer to: https://libxc.gitlab.io

 This ORCA versions uses:
   CBLAS   interface :  Fast vector & matrix operations
   LAPACKE interface :  Fast linear algebra routines
   SCALAPACK package :  Parallel linear algebra routines
   Shared memory     :  Shared parallel matrices
   BLAS/LAPACK       :  OpenBLAS 0.3.27  USE64BITINT DYNAMIC_ARCH NO_AFFINITY Zen SINGLE_THREADED
        Core in use  :  Zen
   Copyright (c) 2011-2014, The OpenBLAS Project


Your calculation utilizes the geometrical counterpoise correction gCP
Please cite in your paper:
H.Kruse, S. Grimme J.Chem.Phys., 136, (2012), 154101 
   

Your calculation utilizes the atom-pairwise dispersion correction
based on EEQ partial charges (D4)


================================================================================

----- Orbital basis set information -----
Your calculation utilizes the basis: def2-SV(P)
   F. Weigend and R. Ahlrichs, Phys. Chem. Chem. Phys. 7, 3297 (2005).

----- AuxJ basis set information -----
Your calculation utilizes the auxiliary basis: def2/J
   F. Weigend, Phys. Chem. Chem. Phys. 8, 1057 (2006).

================================================================================
                                        WARNINGS
                       Please study these warnings very carefully!
================================================================================


================================================================================
                                       INPUT FILE
================================================================================
NAME = sp.inp
|  1> ! pbe def2-sv(p) def2/J RI DEFGRID1 loosescf d4 GCP(DFT/SV(P)) printgap
|  2> %output
|  3>     printlevel normal
|  4> end
|  5> * xyz 0 1
|  6> C -2.2970804921 -1.0495240856 -0.2788862277
|  7> C -0.922328587 -0.5720526559 0.1848839701
|  8> H -0.8490619221 -0.728171034 1.2738517596
|  9> C -0.7356027655 0.9355231439 -0.0988593327
| 10> H -1.3375968001 1.2290331099 -0.970281431
| 11> C 0.744311333 1.2420362244 -0.4335612358
| 12> H 0.9227873248 2.2963616409 -0.1934305154
| 13> C 1.6335187013 0.3531634275 0.4431078981
| 14> H 2.6910027823 0.5315141909 0.2124797065
| 15> C 1.3588337858 -1.1304269009 0.0813333585
| 16> H 1.4582147407 -1.7334373513 1.0055587286
| 17> O 0.0643562442 -1.3392096638 -0.4650335336
| 18> O 2.2725939704 -1.5177928574 -0.8855717385
| 19> O 1.4354159221 0.5953461551 1.8091646037
| 20> O 1.0178762222 1.0892702944 -1.7951041
| 21> O -1.1001227317 1.6925040229 1.0337447099
| 22> O -3.2572567036 -0.2484549638 0.3772380619
| 23> H -2.4193143829 -2.109052444 -0.0233244137
| 24> H -2.3649682585 -0.9395012519 -1.3687046725
| 25> H 2.0577310768 -2.4125370933 -1.1761061202
| 26> H 0.6011147114 1.0771697536 1.9231417036
| 27> H 1.1360765212 0.1482272653 -1.9832613663
| 28> H -2.0281229958 1.4991693071 1.2228056406
| 29> H -4.1371047237 -0.5341809474 0.1109422184
| 30> *
| 31> 
| 32>                          ****END OF INPUT****
================================================================================

                       ****************************
                       * Single Point Calculation *
                       ****************************

---------------------------------
CARTESIAN COORDINATES (ANGSTROEM)
---------------------------------
  C     -2.297080   -1.049524   -0.278886
  C     -0.922329   -0.572053    0.184884
  H     -0.849062   -0.728171    1.273852
  C     -0.735603    0.935523   -0.098859
  H     -1.337597    1.229033   -0.970281
  C      0.744311    1.242036   -0.433561
  H      0.922787    2.296362   -0.193431
  C      1.633519    0.353163    0.443108
  H      2.691003    0.531514    0.212480
  C      1.358834   -1.130427    0.081333
  H      1.458215   -1.733437    1.005559
  O      0.064356   -1.339210   -0.465034
  O      2.272594   -1.517793   -0.885572
  O      1.435416    0.595346    1.809165
  O      1.017876    1.089270   -1.795104
  O     -1.100123    1.692504    1.033745
  O     -3.257257   -0.248455    0.377238
  H     -2.419314   -2.109052   -0.023324
  H     -2.364968   -0.939501   -1.368705
  H      2.057731   -2.412537   -1.176106
  H      0.601115    1.077170    1.923142
  H      1.136077    0.148227   -1.983261
  H     -2.028123    1.499169    1.222806
  H     -4.137105   -0.534181    0.110942

----------------------------
CARTESIAN COORDINATES (A.U.)
----------------------------
  NO LB      ZA    FRAG     MASS         X           Y           Z
   0 C     6.0000    0    12.011   -4.340853   -1.983313   -0.527019
   1 C     6.0000    0    12.011   -1.742948   -1.081023    0.349380
   2 H     1.0000    0     1.008   -1.604495   -1.376044    2.407231
   3 C     6.0000    0    12.011   -1.390088    1.767883   -0.186817
   4 H     1.0000    0     1.008   -2.527692    2.322536   -1.833566
   5 C     6.0000    0    12.011    1.406545    2.347108   -0.819312
   6 H     1.0000    0     1.008    1.743815    4.339495   -0.365531
   7 C     6.0000    0    12.011    3.086903    0.667382    0.837353
   8 H     1.0000    0     1.008    5.085258    1.004416    0.401528
   9 C     6.0000    0    12.011    2.567824   -2.136197    0.153698
  10 H     1.0000    0     1.008    2.755627   -3.275722    1.900231
  11 O     8.0000    0    15.999    0.121616   -2.530740   -0.878786
  12 O     8.0000    0    15.999    4.294580   -2.868213   -1.673488
  13 O     8.0000    0    15.999    2.712543    1.125041    3.418826
  14 O     8.0000    0    15.999    1.923507    2.058423   -3.392255
  15 O     8.0000    0    15.999   -2.078931    3.198369    1.953494
  16 O     8.0000    0    15.999   -6.155323   -0.469512    0.712877
  17 H     1.0000    0     1.008   -4.571842   -3.985532   -0.044077
  18 H     1.0000    0     1.008   -4.469142   -1.775400   -2.586477
  19 H     1.0000    0     1.008    3.888548   -4.559034   -2.222518
  20 H     1.0000    0     1.008    1.135942    2.035556    3.634211
  21 H     1.0000    0     1.008    2.146873    0.280109   -3.747821
  22 H     1.0000    0     1.008   -3.832597    2.833019    2.310768
  23 H     1.0000    0     1.008   -7.817995   -1.009456    0.209650

--------------------------------
INTERNAL COORDINATES (ANGSTROEM)
--------------------------------
 C      0   0   0     0.000000000000     0.00000000     0.00000000
 C      1   0   0     1.527417612548     0.00000000     0.00000000
 H      2   1   0     1.102538796929   108.38736181     0.00000000
 C      2   1   3     1.545367783552   110.97490599   241.38397202
 H      4   2   1     1.099054771720   109.87220983   331.52877453
 C      4   2   1     1.547941010309   110.38893030   213.24004173
 H      6   4   2     1.095955531218   107.38606901   204.52303469
 C      6   4   2     1.532753523317   108.42962243   323.06312818
 H      8   6   4     1.096937071638   110.16533489   178.73136973
 C      8   6   4     1.551571101441   108.56881917    62.95954361
 H     10   8   6     1.108012054188   108.05997980   214.13102130
 O      2   1   3     1.408712033208   108.66847949   118.79162230
 O     10   8   6     1.385610163726   108.25661104    92.91761671
 O      8   6   4     1.401430735923   112.04266260   299.29942971
 O      6   4   2     1.397130684305   112.10250564    87.67941095
 O      4   2   1     1.410208060622   110.17946713    93.63244987
 O      1   2   3     1.412143469494   107.07221941    61.99030123
 H      1   2   3     1.096746692308   109.36304528   301.22605911
 H      1   2   3     1.097459801263   109.01728745   182.44865379
 H     13  10   8     0.964957790617   108.81323716   185.21381727
 H     14   8   6     0.970156311915   108.77824485    16.70594419
 H     15   6   4     0.966921118894   108.66230245   280.11529241
 H     16   4   2     0.966595488310   107.33096115   300.13312190
 H     17   1   2     0.962644977364   108.93870471   180.63622783

---------------------------
INTERNAL COORDINATES (A.U.)
---------------------------
 C      0   0   0     0.000000000000     0.00000000     0.00000000
 C      1   0   0     2.886400979844     0.00000000     0.00000000
 H      2   1   0     2.083496378220   108.38736181     0.00000000
 C      2   1   3     2.920321887099   110.97490599   241.38397202
 H      4   2   1     2.076912524730   109.87220983   331.52877453
 C      4   2   1     2.925184580949   110.38893030   213.24004173
 H      6   4   2     2.071055808958   107.38606901   204.52303469
 C      6   4   2     2.896484389872   108.42962243   323.06312818
 H      8   6   4     2.072910651542   110.16533489   178.73136973
 C      8   6   4     2.932044459031   108.56881917    62.95954361
 H     10   8   6     2.093839335498   108.05997980   214.13102130
 O      2   1   3     2.662079944323   108.66847949   118.79162230
 O     10   8   6     2.618423737819   108.25661104    92.91761671
 O      8   6   4     2.648320286554   112.04266260   299.29942971
 O      6   4   2     2.640194366634   112.10250564    87.67941095
 O      4   2   1     2.664907026424   110.17946713    93.63244987
 O      1   2   3     2.668564419149   107.07221941    61.99030123
 H      1   2   3     2.072550886746   109.36304528   301.22605911
 H      1   2   3     2.073898467375   109.01728745   182.44865379
 H     13  10   8     1.823505955060   108.81323716   185.21381727
 H     14   8   6     1.833329736615   108.77824485    16.70594419
 H     15   6   4     1.827216107814   108.66230245   280.11529241
 H     16   4   2     1.826600755189   107.33096115   300.13312190
 H     17   1   2     1.819135371412   108.93870471   180.63622783

---------------------
BASIS SET INFORMATION
---------------------
There are 3 groups of distinct atoms

 Group   1 Type C   : 7s4p1d contracted to 3s2p1d pattern {511/31/1}
 Group   2 Type H   : 4s contracted to 2s pattern {31}
 Group   3 Type O   : 7s4p1d contracted to 3s2p1d pattern {511/31/1}

Atom   0C    basis set group =>   1
Atom   1C    basis set group =>   1
Atom   2H    basis set group =>   2
Atom   3C    basis set group =>   1
Atom   4H    basis set group =>   2
Atom   5C    basis set group =>   1
Atom   6H    basis set group =>   2
Atom   7C    basis set group =>   1
Atom   8H    basis set group =>   2
Atom   9C    basis set group =>   1
Atom  10H    basis set group =>   2
Atom  11O    basis set group =>   3
Atom  12O    basis set group =>   3
Atom  13O    basis set group =>   3
Atom  14O    basis set group =>   3
Atom  15O    basis set group =>   3
Atom  16O    basis set group =>   3
Atom  17H    basis set group =>   2
Atom  18H    basis set group =>   2
Atom  19H    basis set group =>   2
Atom  20H    basis set group =>   2
Atom  21H    basis set group =>   2
Atom  22H    basis set group =>   2
Atom  23H    basis set group =>   2
---------------------------------
AUXILIARY/J BASIS SET INFORMATION
---------------------------------
There are 3 groups of distinct atoms

 Group   1 Type C   : 12s5p4d2f1g contracted to 6s4p3d1f1g pattern {711111/2111/211/2/1}
 Group   2 Type H   : 5s2p1d contracted to 3s1p1d pattern {311/2/1}
 Group   3 Type O   : 12s5p4d2f1g contracted to 6s4p3d1f1g pattern {711111/2111/211/2/1}

Atom   0C    basis set group =>   1
Atom   1C    basis set group =>   1
Atom   2H    basis set group =>   2
Atom   3C    basis set group =>   1
Atom   4H    basis set group =>   2
Atom   5C    basis set group =>   1
Atom   6H    basis set group =>   2
Atom   7C    basis set group =>   1
Atom   8H    basis set group =>   2
Atom   9C    basis set group =>   1
Atom  10H    basis set group =>   2
Atom  11O    basis set group =>   3
Atom  12O    basis set group =>   3
Atom  13O    basis set group =>   3
Atom  14O    basis set group =>   3
Atom  15O    basis set group =>   3
Atom  16O    basis set group =>   3
Atom  17H    basis set group =>   2
Atom  18H    basis set group =>   2
Atom  19H    basis set group =>   2
Atom  20H    basis set group =>   2
Atom  21H    basis set group =>   2
Atom  22H    basis set group =>   2
Atom  23H    basis set group =>   2
------------------------------------------------------------------------------
                             ORCA STARTUP CALCULATIONS
                           -- RI-GTO INTEGRALS CHOSEN --
------------------------------------------------------------------------------
------------------------------------------------------------------------------
                   ___                                                        
                  /   \      - P O W E R E D   B Y -                         
                 /     \                                                     
                 |  |  |   _    _      __       _____    __    __             
                 |  |  |  | |  | |    /  \     |  _  \  |  |  /  |          
                  \  \/   | |  | |   /    \    | | | |  |  | /  /          
                 / \  \   | |__| |  /  /\  \   | |_| |  |  |/  /          
                |  |  |   |  __  | /  /__\  \  |    /   |      \           
                |  |  |   | |  | | |   __   |  |    \   |  |\   \          
                \     /   | |  | | |  |  |  |  | |\  \  |  | \   \       
                 \___/    |_|  |_| |__|  |__|  |_| \__\ |__|  \__/        
                                                                              
                      - O R C A' S   B I G   F R I E N D -                    
                                      &                                       
                       - I N T E G R A L  F E E D E R -                       
                                                                              
 v1 FN, 2020, v2 2021, v3 2022-2024                                           
------------------------------------------------------------------------------


----------------------
SHARK INTEGRAL PACKAGE
----------------------

Number of atoms                             ...     24
Number of basis functions                   ...    192
Number of shells                            ...     96
Maximum angular momentum                    ...      2
Integral batch strategy                     ... SHARK/LIBINT Hybrid
RI-J (if used) integral strategy            ... SPLIT-RIJ (Revised 2003 algorithm where possible)
Printlevel                                  ...      1
Contraction scheme used                     ... SEGMENTED contraction
Prescreening option                         ... SCHWARTZ
   Thresh                                   ... 1.000e-09
   Tcut                                     ... 1.000e-10
   Tpresel                                  ... 1.000e-10 
Coulomb Range Separation                    ... NOT USED
Exchange Range Separation                   ... NOT USED
Multipole approximations                    ... NOT USED
Finite Nucleus Model                        ... NOT USED
CABS basis                                  ... NOT available
Auxiliary Coulomb fitting basis             ... AVAILABLE
   # of basis functions in Aux-J            ...    720
   # of shells in Aux-J                     ...    240
   Maximum angular momentum in Aux-J        ...      4
Auxiliary J/K fitting basis                 ... NOT available
Auxiliary Correlation fitting basis         ... NOT available
Auxiliary 'external' fitting basis          ... NOT available

Checking pre-screening integrals            ... done (  0.0 sec) Dimension = 96
Check shell pair data                       ... done (  0.0 sec)
Shell pair information
Shell pair cut-off parameter TPreSel        ...   1.0e-10
Total number of shell pairs                 ...      4656
Shell pairs after pre-screening             ...      4229
Total number of primitive shell pairs       ...     18720
Primitive shell pairs kept                  ...     11407
          la=0 lb=0:   1635 shell pairs
          la=1 lb=0:   1346 shell pairs
          la=1 lb=1:    290 shell pairs
          la=2 lb=0:    622 shell pairs
          la=2 lb=1:    268 shell pairs
          la=2 lb=2:     68 shell pairs

Calculating one electron integrals          ... done (  0.0 sec)
Calculating RI/J V-Matrix + Cholesky decomp.... done (  0.0 sec)
Calculating Nuclear repulsion               ... done (  0.0 sec) ENN=    852.657238532089 Eh

Diagonalization of the overlap matrix:
Smallest eigenvalue                        ... 7.678e-04
Time for diagonalization                   ...    0.003 sec
Threshold for overlap eigenvalues          ... 1.000e-07
Number of eigenvalues below threshold      ... 0
Time for construction of square roots      ...    0.004 sec
Total time needed                          ...    0.009 sec

-------------------
DFT GRID GENERATION
-------------------

General Integration Accuracy     IntAcc      ... 4.159
Radial Grid Type                 RadialGrid  ... OptM3 with GC (2021)
Angular Grid (max. ang.)         AngularGrid ... 3 (Lebedev-194)
Angular grid pruning method      GridPruning ... 4 (adaptive)
Weight generation scheme         WeightScheme... mBecke (2022)
Basis function cutoff            BFCut       ... 1.0000e-10
Integration weight cutoff        WCut        ... 1.0000e-14
Partially contracted basis set               ... off
Rotationally invariant grid construction     ... off
Angular grids for H and He will be reduced by one unit

Total number of grid points                  ...    55597
Total number of batches                      ...      883
Average number of points per batch           ...       62
Average number of grid points per atom       ...     2317
Initializing property integral containers    ... done (  0.0 sec)

SHARK setup successfully completed in   0.6 seconds

Maximum memory used throughout the entire STARTUP-calculation: 28.7 MB
-------------------------------------------------------------------------------
                                 ORCA GUESS
                   Start orbitals & Density for SCF / CASSCF
-------------------------------------------------------------------------------

------------
SCF SETTINGS
------------
Hamiltonian:
 Density Functional     Method          .... DFT(GTOs)
 Exchange Functional    Exchange        .... PBE
   PBE kappa parameter   XKappa         ....  0.804000
   PBE mue parameter    XMuePBE         ....  0.219520
 Correlation Functional Correlation     .... PBE
   PBE beta parameter  CBetaPBE         ....  0.066725
 LDA part of GGA corr.  LDAOpt          .... PW91-LDA
 Gradients option       PostSCFGGA      .... off
   NL short-range parameter             ....  6.400000
 RI-approximation to the Coulomb term is turned on
   Number of AuxJ basis functions       .... 720


General Settings:
 Integral files         IntName         .... sp
 Hartree-Fock type      HFTyp           .... RHF
 Total Charge           Charge          ....    0
 Multiplicity           Mult            ....    1
 Number of Electrons    NEL             ....   96
 Basis Dimension        Dim             ....  192
 Nuclear Repulsion      ENuc            ....    852.6572385321 Eh

Convergence Acceleration:
 AO-DIIS                CNVDIIS         .... on
   Start iteration      DIISMaxIt       ....    12
   Startup error        DIISStart       ....  0.200000
   # of expansion vecs  DIISMaxEq       ....     5
   Bias factor          DIISBfac        ....   1.050
   Max. coefficient     DIISMaxC        ....  10.000
 MO-DIIS                CNVKDIIS        .... off
 Trust-Rad. Augm. Hess. CNVTRAH         .... auto
   Auto Start mean grad. ratio tolernc. ....  1.125000
   Auto Start start iteration           ....    50
   Auto Start num. interpolation iter.  ....    10
   Max. Number of Micro iterations      ....    24
   Max. Number of Macro iterations      .... Maxiter - #DIIS iter
   Number of Davidson start vectors     ....     2
   Converg. threshold    (grad. norm)   ....   1.000e-04
   Grad. Scal. Fac. for Micro threshold ....   0.100
   Minimum threshold for Micro iter.    ....   1.000e-02
   NR start threshold (gradient norm)   ....   1.000e-04
   Initial trust radius                 ....   0.400
   Minimum AH scaling param. (alpha)    ....   1.000
   Maximum AH scaling param. (alpha)    .... 1000.000
   Quad. conv. algorithm                .... NR
   White noise on init. David. guess    .... on
   Maximum white noise                  ....   0.010
   Pseudo random numbers                .... off
   Inactive MOs                         .... canonical
   Orbital update algorithm             .... Taylor
   Preconditioner                       .... Diag
   Full preconditioner red. dimension   ....   250
 SOSCF                  CNVSOSCF        .... on
   Start iteration      SOSCFMaxIt      ....   150
   Startup grad/error   SOSCFStart      ....  0.003300
   Hessian update       SOSCFHessUp     .... L-BFGS
 Level Shifting         CNVShift        .... on
   Level shift para.    LevelShift      ....    0.2500
   Turn off err/grad.   ShiftErr        ....    0.0010
 Zerner damping         CNVZerner       .... off
 Static damping         CNVDamp         .... on
   Fraction old density DampFac         ....    0.7000
   Max. Damping (<1)    DampMax         ....    0.9800
   Min. Damping (>=0)   DampMin         ....    0.0000
   Turn off err/grad.   DampErr         ....    0.1000

SCF Procedure:
 Maximum # iterations   MaxIter         ....   125
 SCF integral mode      SCFMode         .... Direct
   Integral package                     .... SHARK and LIBINT hybrid scheme
 Reset frequency        DirectResetFreq ....    20
 Integral Threshold     Thresh          ....  1.000e-09 Eh
 Primitive CutOff       TCut            ....  1.000e-10 Eh

Convergence Tolerance:
 Convergence Check Mode ConvCheckMode   .... Total+1el-Energy
 Convergence forced     ConvForced      .... 0
 Energy Change          TolE            ....  1.000e-05 Eh
 1-El. energy change                    ....  1.000e-02 Eh
 Orbital Gradient       TolG            ....  1.000e-04
 Orbital Rotation angle TolX            ....  1.000e-04
 DIIS Error             TolErr          ....  5.000e-04

------------------------------
INITIAL GUESS: MODEL POTENTIAL
------------------------------
Loading Hartree-Fock densities                     ... done
Calculating cut-offs                               ... done
Initializing the effective Hamiltonian             ... done
Setting up the integral package (SHARK)            ... done
Starting the Coulomb interaction                   ... done (   0.2 sec)
Making the grid                                    ... done (   0.2 sec)
Mapping shells                                     ... done
Starting the XC term evaluation                    ... done (   0.2 sec)
  promolecular density results
     # of electrons  =     96.002190325
     EX              =    -83.251387086
     EC              =     -3.277958120
     EX+EC           =    -86.529345206
Transforming the Hamiltonian                       ... done (   0.0 sec)
Diagonalizing the Hamiltonian                      ... done (   0.0 sec)
Back transforming the eigenvectors                 ... done (   0.0 sec)
Now organizing SCF variables                       ... done
                      ------------------
                      INITIAL GUESS DONE (   0.6 sec)
                      ------------------
             **** ENERGY FILE WAS UPDATED (sp.en.tmp) ****
Finished Guess after   8.9 sec
Maximum memory used throughout the entire GUESS-calculation: 22.5 MB

-------------------------------------------------------------------------------------------
                                      ORCA LEAN-SCF
                              memory conserving SCF solver
-------------------------------------------------------------------------------------------

----------------------------------------D-I-I-S--------------------------------------------
Iteration    Energy (Eh)           Delta-E    RMSDP     MaxDP     DIISErr   Damp  Time(sec)
-------------------------------------------------------------------------------------------
               ***  Starting incremental Fock matrix formation  ***
    1    -685.5418252766978640     0.00e+00  4.92e-03  1.43e-01  2.18e-01  0.700  49.3
    2    -685.6844760139010759    -1.43e-01  3.24e-03  9.97e-02  8.60e-02  0.700 117.3
                               ***Turning on AO-DIIS***
    3    -685.7299246669590502    -4.54e-02  1.16e-03  3.00e-02  1.82e-02  0.700 211.6
    4    -685.7600802362849208    -3.02e-02  1.51e-03  2.45e-02  9.19e-03  0.000 279.1
    5    -685.8296818298986182    -6.96e-02  5.21e-04  1.72e-02  4.98e-03  0.000 746.1
                              *** Initializing SOSCF ***
---------------------------------------S-O-S-C-F--------------------------------------
Iteration    Energy (Eh)           Delta-E    RMSDP     MaxDP     MaxGrad    Time(sec)
--------------------------------------------------------------------------------------
    6    -685.8299735537536890    -2.92e-04  1.43e-04  3.16e-03  1.16e-03     1.4
               *** Restarting incremental Fock matrix formation ***
    7    -685.8299984176267117    -2.49e-05  9.93e-05  2.59e-03  1.67e-04     1.7
    8    -685.8299986770789474    -2.59e-07  3.48e-05  8.95e-04  1.60e-04     1.0
                 **** Energy Check signals convergence ****

               *****************************************************
               *                     SUCCESS                       *
               *           SCF CONVERGED AFTER   8 CYCLES          *
               *****************************************************

             **** ENERGY FILE WAS UPDATED (sp.en.tmp) ****

----------------
TOTAL SCF ENERGY
----------------

Total Energy       :       -685.82999867707895 Eh          -18662.38304 eV

Components:
Nuclear Repulsion  :        852.65723853208942 Eh           23201.98303 eV
Electronic Energy  :      -1538.48723720916837 Eh          -41864.36607 eV
One Electron Energy:      -2634.25336363296810 Eh          -71681.67825 eV
Two Electron Energy:       1095.76612642379973 Eh           29817.31218 eV

Virial components:
Potential Energy   :      -1366.94654261936921 Eh          -37196.50646 eV
Kinetic Energy     :        681.11654394229038 Eh           18534.12342 eV
Virial Ratio       :          2.00692018829481

DFT components:
N(Alpha)           :       48.000304990760 electrons
N(Beta)            :       48.000304990760 electrons
N(Total)           :       96.000609981520 electrons
E(X)               :      -84.608733165882 Eh       
E(C)               :       -3.286740956372 Eh       
E(XC)              :      -87.895474122253 Eh       

---------------
SCF CONVERGENCE
---------------

  Last Energy change         ...    2.5945e-07  Tolerance :   1.0000e-05
  Last MAX-Density change    ...    8.9462e-04  Tolerance :   1.0000e-03
  Last RMS-Density change    ...    3.4845e-05  Tolerance :   1.0000e-04
  Last DIIS Error            ...    1.1598e-03  Tolerance :   5.0000e-04
  Last Orbital Gradient      ...    1.5990e-04  Tolerance :   1.0000e-04
  Last Orbital Rotation      ...    1.1642e-04  Tolerance :   1.0000e-04


----------------
ORBITAL ENERGIES
----------------

  NO   OCC          E(Eh)            E(eV) 
   0   2.0000     -18.779307      -511.0109 
   1   2.0000     -18.778823      -510.9978 
   2   2.0000     -18.773040      -510.8404 
   3   2.0000     -18.763423      -510.5787 
   4   2.0000     -18.740035      -509.9423 
   5   2.0000     -18.739424      -509.9256 
   6   2.0000      -9.987458      -271.7725 
   7   2.0000      -9.950566      -270.7687 
   8   2.0000      -9.950356      -270.7630 
   9   2.0000      -9.940241      -270.4877 
  10   2.0000      -9.938188      -270.4318 
  11   2.0000      -9.934609      -270.3345 
  12   2.0000      -0.993455       -27.0333 
  13   2.0000      -0.954524       -25.9739 
  14   2.0000      -0.942604       -25.6496 
  15   2.0000      -0.925693       -25.1894 
  16   2.0000      -0.922211       -25.0946 
  17   2.0000      -0.915035       -24.8994 
  18   2.0000      -0.705299       -19.1922 
  19   2.0000      -0.682990       -18.5851 
  20   2.0000      -0.632829       -17.2202 
  21   2.0000      -0.576996       -15.7009 
  22   2.0000      -0.569233       -15.4896 
  23   2.0000      -0.516204       -14.0466 
  24   2.0000      -0.510304       -13.8861 
  25   2.0000      -0.497818       -13.5463 
  26   2.0000      -0.495973       -13.4961 
  27   2.0000      -0.474329       -12.9072 
  28   2.0000      -0.445802       -12.1309 
  29   2.0000      -0.424055       -11.5391 
  30   2.0000      -0.419713       -11.4210 
  31   2.0000      -0.407647       -11.0926 
  32   2.0000      -0.382494       -10.4082 
  33   2.0000      -0.377312       -10.2672 
  34   2.0000      -0.357162        -9.7189 
  35   2.0000      -0.350116        -9.5271 
  36   2.0000      -0.332574        -9.0498 
  37   2.0000      -0.325713        -8.8631 
  38   2.0000      -0.321638        -8.7522 
  39   2.0000      -0.314885        -8.5685 
  40   2.0000      -0.282042        -7.6748 
  41   2.0000      -0.267566        -7.2808 
  42   2.0000      -0.260946        -7.1007 
  43   2.0000      -0.246064        -6.6957 
  44   2.0000      -0.242371        -6.5953 
  45   2.0000      -0.224499        -6.1089 
  46   2.0000      -0.207884        -5.6568 
  47   2.0000      -0.205235        -5.5847 
  48   0.0000       0.000291         0.0079 
  49   0.0000       0.022731         0.6185 
  50   0.0000       0.045698         1.2435 
  51   0.0000       0.053828         1.4647 
  52   0.0000       0.059071         1.6074 
  53   0.0000       0.076955         2.0941 
  54   0.0000       0.087354         2.3770 
  55   0.0000       0.095642         2.6025 
  56   0.0000       0.101337         2.7575 
  57   0.0000       0.109310         2.9745 
  58   0.0000       0.113396         3.0857 
*Only the first 10 virtual orbitals were printed.

                    ********************************
                    * MULLIKEN POPULATION ANALYSIS *
                    ********************************

-----------------------
MULLIKEN ATOMIC CHARGES
-----------------------
   0 C :    0.059348
   1 C :    0.004386
   2 H :    0.059527
   3 C :    0.030239
   4 H :    0.067945
   5 C :    0.035825
   6 H :    0.086870
   7 C :    0.022671
   8 H :    0.090605
   9 C :    0.170014
  10 H :    0.067310
  11 O :   -0.319504
  12 O :   -0.380251
  13 O :   -0.421495
  14 O :   -0.406290
  15 O :   -0.422397
  16 O :   -0.446345
  17 H :    0.085723
  18 H :    0.082492
  19 H :    0.306726
  20 H :    0.307876
  21 H :    0.291881
  22 H :    0.312666
  23 H :    0.314180
Sum of atomic charges:   -0.0000000

--------------------------------
MULLIKEN REDUCED ORBITAL CHARGES
--------------------------------
  0 C s       :     3.005953  s :     3.005953
      pz      :     1.004011  p :     2.873038
      px      :     0.899277
      py      :     0.969749
      dz2     :     0.017146  d :     0.061662
      dxz     :     0.010802
      dyz     :     0.006476
      dx2y2   :     0.015072
      dxy     :     0.012165

  1 C s       :     3.057418  s :     3.057418
      pz      :     1.006412  p :     2.871297
      px      :     0.906488
      py      :     0.958397
      dz2     :     0.016800  d :     0.066899
      dxz     :     0.011493
      dyz     :     0.008014
      dx2y2   :     0.014709
      dxy     :     0.015883

  2 H s       :     0.940473  s :     0.940473

  3 C s       :     3.075241  s :     3.075241
      pz      :     0.850361  p :     2.828966
      px      :     1.067255
      py      :     0.911349
      dz2     :     0.016419  d :     0.065553
      dxz     :     0.013070
      dyz     :     0.014887
      dx2y2   :     0.012650
      dxy     :     0.008528

  4 H s       :     0.932055  s :     0.932055

  5 C s       :     3.053552  s :     3.053552
      pz      :     0.777320  p :     2.841552
      px      :     0.982961
      py      :     1.081271
      dz2     :     0.020247  d :     0.069072
      dxz     :     0.018465
      dyz     :     0.012445
      dx2y2   :     0.012550
      dxy     :     0.005365

  6 H s       :     0.913130  s :     0.913130

  7 C s       :     3.073474  s :     3.073474
      pz      :     0.760892  p :     2.836727
      px      :     1.087843
      py      :     0.987992
      dz2     :     0.020066  d :     0.067127
      dxz     :     0.013252
      dyz     :     0.016744
      dx2y2   :     0.012765
      dxy     :     0.004300

  8 H s       :     0.909395  s :     0.909395

  9 C s       :     3.044744  s :     3.044744
      pz      :     0.882612  p :     2.687199
      px      :     0.722848
      py      :     1.081739
      dz2     :     0.019837  d :     0.098043
      dxz     :     0.024704
      dyz     :     0.015138
      dx2y2   :     0.021246
      dxy     :     0.017119

 10 H s       :     0.932690  s :     0.932690

 11 O s       :     3.765503  s :     3.765503
      pz      :     1.646908  p :     4.538899
      px      :     1.210105
      py      :     1.681886
      dz2     :     0.002053  d :     0.015102
      dxz     :     0.004305
      dyz     :     0.002593
      dx2y2   :     0.002749
      dxy     :     0.003402

 12 O s       :     3.774022  s :     3.774022
      pz      :     1.561565  p :     4.590486
      px      :     1.645910
      py      :     1.383011
      dz2     :     0.002700  d :     0.015743
      dxz     :     0.003697
      dyz     :     0.001671
      dx2y2   :     0.004892
      dxy     :     0.002783

 13 O s       :     3.767220  s :     3.767220
      pz      :     1.378197  p :     4.638861
      px      :     1.520197
      py      :     1.740468
      dz2     :     0.006152  d :     0.015414
      dxz     :     0.001867
      dyz     :     0.001845
      dx2y2   :     0.001933
      dxy     :     0.003617

 14 O s       :     3.767550  s :     3.767550
      pz      :     1.358347  p :     4.623032
      px      :     1.861436
      py      :     1.403249
      dz2     :     0.005688  d :     0.015708
      dxz     :     0.002073
      dyz     :     0.002118
      dx2y2   :     0.005052
      dxy     :     0.000777

 15 O s       :     3.783154  s :     3.783154
      pz      :     1.508557  p :     4.624082
      px      :     1.371767
      py      :     1.743758
      dz2     :     0.003633  d :     0.015162
      dxz     :     0.001296
      dyz     :     0.003315
      dx2y2   :     0.004769
      dxy     :     0.002149

 16 O s       :     3.785467  s :     3.785467
      pz      :     1.757274  p :     4.645853
      px      :     1.206126
      py      :     1.682454
      dz2     :     0.002182  d :     0.015025
      dxz     :     0.003152
      dyz     :     0.002633
      dx2y2   :     0.003296
      dxy     :     0.003761

 17 H s       :     0.914277  s :     0.914277

 18 H s       :     0.917508  s :     0.917508

 19 H s       :     0.693274  s :     0.693274

 20 H s       :     0.692124  s :     0.692124

 21 H s       :     0.708119  s :     0.708119

 22 H s       :     0.687334  s :     0.687334

 23 H s       :     0.685820  s :     0.685820


------------------------
MULLIKEN OVERLAP CHARGES
------------------------
B(  0-C ,  1-C ) :   0.4658 B(  0-C , 11-O ) :  -0.0752 B(  0-C , 16-O ) :   0.6435 
B(  0-C , 17-H ) :   0.6920 B(  0-C , 18-H ) :   0.6683 B(  1-C ,  2-H ) :   0.5910 
B(  1-C ,  3-C ) :   0.2024 B(  1-C ,  4-H ) :  -0.0801 B(  1-C ,  7-C ) :  -0.0837 
B(  1-C , 11-O ) :   0.5886 B(  1-C , 15-O ) :  -0.0532 B(  1-C , 16-O ) :  -0.1392 
B(  2-H ,  3-C ) :  -0.0730 B(  2-H , 11-O ) :  -0.0555 B(  3-C ,  4-H ) :   0.6238 
B(  3-C ,  6-H ) :  -0.1166 B(  3-C ,  7-C ) :   0.1587 B(  3-C ,  9-C ) :  -0.1842 
B(  3-C , 11-O ) :  -0.1404 B(  3-C , 14-O ) :  -0.1203 B(  3-C , 15-O ) :   0.4383 
B(  3-C , 18-H ) :  -0.0616 B(  3-C , 22-H ) :  -0.0682 B(  4-H ,  5-C ) :  -0.0543 
B(  5-C ,  6-H ) :   0.7021 B(  5-C ,  7-C ) :   0.3908 B(  5-C ,  8-H ) :  -0.0540 
B(  5-C ,  9-C ) :   0.1005 B(  5-C , 11-O ) :   0.0537 B(  5-C , 13-O ) :  -0.0579 
B(  5-C , 14-O ) :   0.6103 B(  5-C , 15-O ) :  -0.0588 B(  5-C , 21-H ) :  -0.1110 
B(  6-H ,  7-C ) :  -0.0782 B(  7-C ,  8-H ) :   0.6715 B(  7-C , 10-H ) :  -0.1396 
B(  7-C , 11-O ) :  -0.1216 B(  7-C , 13-O ) :   0.6028 B(  7-C , 14-O ) :  -0.0565 
B(  7-C , 20-H ) :  -0.1126 B(  7-C , 21-H ) :  -0.0534 B(  8-H ,  9-C ) :  -0.1094 
B(  9-C , 10-H ) :   0.7152 B(  9-C , 11-O ) :   0.5395 B(  9-C , 12-O ) :   0.6007 
B(  9-C , 13-O ) :  -0.1089 B( 10-H , 11-O ) :  -0.0875 B( 10-H , 12-O ) :  -0.0503 
B( 11-O , 12-O ) :  -0.1249 B( 12-O , 19-H ) :   0.5058 B( 12-O , 21-H ) :   0.0645 
B( 13-O , 20-H ) :   0.5520 B( 14-O , 21-H ) :   0.5590 B( 15-O , 20-H ) :   0.1159 
B( 15-O , 22-H ) :   0.5210 B( 16-O , 17-H ) :  -0.0516 B( 16-O , 18-H ) :  -0.0609 
B( 16-O , 22-H ) :   0.0623 B( 16-O , 23-H ) :   0.5244 B( 17-H , 18-H ) :  -0.1020 



                     *******************************
                     * LOEWDIN POPULATION ANALYSIS *
                     *******************************

----------------------
LOEWDIN ATOMIC CHARGES
----------------------
   0 C :   -0.120037
   1 C :   -0.075697
   2 H :    0.105047
   3 C :   -0.080473
   4 H :    0.110305
   5 C :   -0.068804
   6 H :    0.121669
   7 C :   -0.084122
   8 H :    0.120782
   9 C :   -0.005078
  10 H :    0.091960
  11 O :   -0.163433
  12 O :   -0.289674
  13 O :   -0.319055
  14 O :   -0.308956
  15 O :   -0.313764
  16 O :   -0.340427
  17 H :    0.102856
  18 H :    0.102090
  19 H :    0.290178
  20 H :    0.274777
  21 H :    0.269611
  22 H :    0.284758
  23 H :    0.295486

-------------------------------
LOEWDIN REDUCED ORBITAL CHARGES
-------------------------------
  0 C s       :     2.924688  s :     2.924688
      pz      :     1.064105  p :     3.054279
      px      :     0.957349
      py      :     1.032825
      dz2     :     0.040967  d :     0.141070
      dxz     :     0.023791
      dyz     :     0.013440
      dx2y2   :     0.034955
      dxy     :     0.027918

  1 C s       :     2.899629  s :     2.899629
      pz      :     1.059584  p :     3.019836
      px      :     0.949556
      py      :     1.010696
      dz2     :     0.040707  d :     0.156232
      dxz     :     0.025177
      dyz     :     0.016924
      dx2y2   :     0.038752
      dxy     :     0.034671

  2 H s       :     0.894953  s :     0.894953

  3 C s       :     2.904571  s :     2.904571
      pz      :     0.955275  p :     3.022032
      px      :     1.071987
      py      :     0.994771
      dz2     :     0.039203  d :     0.153869
      dxz     :     0.029268
      dyz     :     0.032900
      dx2y2   :     0.035367
      dxy     :     0.017132

  4 H s       :     0.889695  s :     0.889695

  5 C s       :     2.886029  s :     2.886029
      pz      :     0.885899  p :     3.020973
      px      :     1.044850
      py      :     1.090225
      dz2     :     0.047807  d :     0.161801
      dxz     :     0.042165
      dyz     :     0.027292
      dx2y2   :     0.031603
      dxy     :     0.012934

  6 H s       :     0.878331  s :     0.878331

  7 C s       :     2.896931  s :     2.896931
      pz      :     0.882192  p :     3.028871
      px      :     1.096498
      py      :     1.050182
      dz2     :     0.046983  d :     0.158320
      dxz     :     0.029530
      dyz     :     0.037916
      dx2y2   :     0.032854
      dxy     :     0.011038

  8 H s       :     0.879218  s :     0.879218

  9 C s       :     2.902691  s :     2.902691
      pz      :     0.982680  p :     2.884137
      px      :     0.816575
      py      :     1.084881
      dz2     :     0.043702  d :     0.218250
      dxz     :     0.056811
      dyz     :     0.033638
      dx2y2   :     0.050780
      dxy     :     0.033321

 10 H s       :     0.908040  s :     0.908040

 11 O s       :     3.476814  s :     3.476814
      pz      :     1.684400  p :     4.657164
      px      :     1.270161
      py      :     1.702603
      dz2     :     0.003295  d :     0.029455
      dxz     :     0.008612
      dyz     :     0.003732
      dx2y2   :     0.006449
      dxy     :     0.007368

 12 O s       :     3.530310  s :     3.530310
      pz      :     1.608027  p :     4.731463
      px      :     1.681238
      py      :     1.442198
      dz2     :     0.004445  d :     0.027901
      dxz     :     0.006888
      dyz     :     0.003728
      dx2y2   :     0.008300
      dxy     :     0.004540

 13 O s       :     3.522153  s :     3.522153
      pz      :     1.444357  p :     4.770046
      px      :     1.569910
      py      :     1.755779
      dz2     :     0.011868  d :     0.026855
      dxz     :     0.003190
      dyz     :     0.003158
      dx2y2   :     0.002844
      dxy     :     0.005795

 14 O s       :     3.521607  s :     3.521607
      pz      :     1.430066  p :     4.759875
      px      :     1.858685
      py      :     1.471123
      dz2     :     0.011257  d :     0.027474
      dxz     :     0.003469
      dyz     :     0.003780
      dx2y2   :     0.007918
      dxy     :     0.001050

 15 O s       :     3.530121  s :     3.530121
      pz      :     1.565345  p :     4.756975
      px      :     1.431780
      py      :     1.759850
      dz2     :     0.006323  d :     0.026668
      dxz     :     0.003037
      dyz     :     0.006013
      dx2y2   :     0.007963
      dxy     :     0.003332

 16 O s       :     3.533763  s :     3.533763
      pz      :     1.787667  p :     4.780457
      px      :     1.270857
      py      :     1.721933
      dz2     :     0.003342  d :     0.026206
      dxz     :     0.005821
      dyz     :     0.003661
      dx2y2   :     0.006253
      dxy     :     0.007129

 17 H s       :     0.897144  s :     0.897144

 18 H s       :     0.897910  s :     0.897910

 19 H s       :     0.709822  s :     0.709822

 20 H s       :     0.725223  s :     0.725223

 21 H s       :     0.730389  s :     0.730389

 22 H s       :     0.715242  s :     0.715242

 23 H s       :     0.704514  s :     0.704514


---------------------------------
LOEWDIN BOND ORDERS (THRESH 0.050000)
---------------------------------
B(  0-C ,  1-C ) :   1.0674 B(  0-C ,  3-C ) :   0.0568 B(  0-C , 11-O ) :   0.0604 
B(  0-C , 16-O ) :   1.2150 B(  0-C , 17-H ) :   0.9101 B(  0-C , 18-H ) :   0.9068 
B(  1-C ,  2-H ) :   0.8597 B(  1-C ,  3-C ) :   1.0096 B(  1-C ,  5-C ) :   0.0518 
B(  1-C ,  9-C ) :   0.0688 B(  1-C , 11-O ) :   1.1405 B(  1-C , 15-O ) :   0.0804 
B(  1-C , 16-O ) :   0.0634 B(  3-C ,  4-H ) :   0.8691 B(  3-C ,  5-C ) :   1.0086 
B(  3-C ,  7-C ) :   0.0563 B(  3-C , 11-O ) :   0.0638 B(  3-C , 14-O ) :   0.0838 
B(  3-C , 15-O ) :   1.1959 B(  5-C ,  6-H ) :   0.8700 B(  5-C ,  7-C ) :   1.0242 
B(  5-C ,  9-C ) :   0.0553 B(  5-C , 13-O ) :   0.0717 B(  5-C , 14-O ) :   1.2443 
B(  5-C , 15-O ) :   0.0581 B(  7-C ,  8-H ) :   0.8686 B(  7-C ,  9-C ) :   1.0040 
B(  7-C , 11-O ) :   0.0538 B(  7-C , 12-O ) :   0.0616 B(  7-C , 13-O ) :   1.2360 
B(  7-C , 14-O ) :   0.0762 B(  9-C , 10-H ) :   0.8776 B(  9-C , 11-O ) :   1.1385 
B(  9-C , 12-O ) :   1.2773 B(  9-C , 13-O ) :   0.0810 B( 11-O , 12-O ) :   0.0800 
B( 12-O , 19-H ) :   0.8731 B( 13-O , 20-H ) :   0.8485 B( 14-O , 21-H ) :   0.8643 
B( 15-O , 20-H ) :   0.0828 B( 15-O , 22-H ) :   0.8634 B( 16-O , 23-H ) :   0.8840 


------------------------------------------
LOEWDIN REDUCED ORBITAL POPULATIONS PER MO
-------------------------------------------
THRESHOLD FOR PRINTING IS 0.1%%
                      0         1         2         3         4         5   
                 -18.77931 -18.77882 -18.77304 -18.76342 -18.74003 -18.73942
                   2.00000   2.00000   2.00000   2.00000   2.00000   2.00000
                  --------  --------  --------  --------  --------  --------
11 O  s              99.7       0.2       0.0       0.0       0.0       0.0
12 O  s               0.0       0.0      99.9       0.0       0.0       0.0
13 O  s               0.0       0.0       0.0       0.0       0.1      99.8
14 O  s               0.0       0.0       0.0       0.0      99.8       0.1
15 O  s               0.0       0.0       0.0      99.9       0.0       0.0
16 O  s               0.2      99.8       0.0       0.0       0.0       0.0

                      6         7         8         9        10        11   
                  -9.98746  -9.95057  -9.95036  -9.94024  -9.93819  -9.93461
                   2.00000   2.00000   2.00000   2.00000   2.00000   2.00000
                  --------  --------  --------  --------  --------  --------
 0 C  s               0.0       1.4      98.2       0.0       0.0       0.0
 1 C  s               0.0      98.1       1.4       0.0       0.0       0.0
 1 C  py              0.0       0.0       0.0       0.1       0.0       0.0
 3 C  s               0.0       0.0       0.0      99.6       0.0       0.0
 5 C  s               0.0       0.0       0.0       0.0      99.5       0.0
 7 C  s               0.0       0.0       0.0       0.0       0.0      99.6
 9 C  s              99.6       0.0       0.0       0.0       0.0       0.0
13 O  pz              0.0       0.0       0.0       0.0       0.0       0.1
14 O  pz              0.0       0.0       0.0       0.0       0.1       0.0

                     12        13        14        15        16        17   
                  -0.99345  -0.95452  -0.94260  -0.92569  -0.92221  -0.91504
                   2.00000   2.00000   2.00000   2.00000   2.00000   2.00000
                  --------  --------  --------  --------  --------  --------
 0 C  s               0.5       8.2       1.6       0.1       0.0       0.0
 0 C  pz              0.0       1.4       0.3       0.0       0.0       0.0
 0 C  px              0.3       2.8       1.4       0.7       0.5       0.0
 0 C  py              0.0       2.3       0.4       0.0       0.0       0.0
 0 C  dxz             0.0       0.2       0.1       0.0       0.0       0.0
 0 C  dyz             0.0       0.1       0.0       0.0       0.0       0.0
 0 C  dxy             0.0       0.3       0.1       0.0       0.0       0.0
 1 C  s               4.7       1.4       0.2       3.2       1.2       0.0
 1 C  pz              0.8       0.0       0.0       0.8       0.1       0.0
 1 C  px              2.3       1.1       0.4       2.0       0.4       0.0
 1 C  py              0.7       0.1       1.0       1.8       0.1       0.0
 1 C  dxz             0.1       0.0       0.0       0.1       0.0       0.0
 1 C  dxy             0.2       0.0       0.0       0.2       0.0       0.0
 2 H  s               0.7       0.3       0.1       0.3       0.1       0.0
 3 C  s               0.9       2.2       6.8       0.4       0.5       0.4
 3 C  pz              0.0       0.9       2.9       1.1       1.6       0.0
 3 C  px              0.1       0.2       0.1       0.4       1.5       0.0
 3 C  py              0.3       0.1       1.3       1.6       0.0       0.1
 3 C  dyz             0.0       0.1       0.2       0.1       0.1       0.0
 4 H  s               0.1       0.4       0.8       0.0       0.0       0.1
 5 C  s               0.9       0.3       2.9       0.2       6.1       1.9
 5 C  pz              0.0       0.0       0.1       0.3       3.3       6.3
 5 C  px              0.0       0.2       0.3       0.1       1.2       0.1
 5 C  py              0.4       0.0       0.1       0.1       0.4       0.0
 5 C  dz2             0.0       0.0       0.0       0.0       0.4       0.2
 6 H  s               0.1       0.1       0.5       0.0       0.7       0.2
 7 C  s               2.0       0.0       1.4       0.0       4.3       4.7
 7 C  pz              0.1       0.0       0.4       0.0       0.6       8.6
 7 C  px              0.3       0.1       0.4       0.2       0.2       0.1
 7 C  py              1.0       0.1       0.4       0.0       0.5       0.1
 7 C  dz2             0.0       0.0       0.1       0.0       0.2       0.4
 8 H  s               0.3       0.0       0.1       0.0       0.6       0.4
 9 C  s              14.7       0.5       0.3       0.2       0.0       0.2
 9 C  pz              3.7       0.4       0.5       1.0       0.1       0.4
 9 C  px              0.6       0.4       0.4      10.3       1.4       0.0
 9 C  py              0.3       0.1       0.5       0.5       0.6       0.3
 9 C  dz2             0.0       0.0       0.0       0.1       0.0       0.0
 9 C  dxz             0.0       0.0       0.1       0.8       0.1       0.0
 9 C  dx2y2           0.3       0.0       0.0       0.0       0.1       0.0
 9 C  dxy             0.0       0.0       0.0       0.1       0.0       0.0
10 H  s               1.6       0.0       0.0       0.0       0.0       0.1
11 O  s              28.1       0.0       0.0      20.4       5.6       0.0
11 O  pz              0.8       0.0       0.0       0.7       0.2       0.0
11 O  px              0.6       0.2       0.1       0.4       0.0       0.0
11 O  py              0.6       0.0       0.0       0.6       0.1       0.0
12 O  s              20.6       3.9       4.4      29.6       0.7       0.1
12 O  pz              0.5       0.0       0.0       0.1       0.0       0.0
12 O  px              1.6       0.2       0.1       0.6       0.0       0.0
12 O  py              0.1       0.1       0.1       0.6       0.0       0.0
13 O  s               0.8       0.2       5.1       0.0      13.3      37.9
13 O  pz              0.1       0.0       0.3       0.0       0.7       1.4
13 O  px              0.0       0.0       0.1       0.0       0.2       0.7
14 O  s               0.9       0.2       4.0       1.3      29.9      20.9
14 O  pz              0.1       0.0       0.3       0.0       1.1       0.6
14 O  py              0.0       0.0       0.1       0.0       0.8       0.6
15 O  s               0.6       7.9      31.4       9.5       8.3       0.9
15 O  pz              0.0       0.2       0.6       0.1       0.1       0.0
15 O  px              0.0       0.1       0.3       0.2       0.2       0.0
15 O  py              0.0       0.3       0.8       0.2       0.2       0.0
16 O  s               0.4      45.3      12.8       0.3       1.0       0.0
16 O  pz              0.0       1.0       0.3       0.0       0.0       0.0
16 O  py              0.0       1.4       0.4       0.0       0.0       0.0
17 H  s               0.1       0.9       0.2       0.0       0.0       0.0
18 H  s               0.1       1.0       0.2       0.0       0.0       0.0
19 H  s               4.3       0.8       0.9       5.8       0.1       0.0
20 H  s               0.3       0.2       2.0       0.0       2.2       7.1
21 H  s               0.6       0.0       0.7       0.2       6.0       4.2
22 H  s               0.2       2.2       5.6       1.9       1.7       0.2
23 H  s               0.1       9.2       2.7       0.1       0.2       0.0

                     18        19        20        21        22        23   
                  -0.70530  -0.68299  -0.63283  -0.57700  -0.56923  -0.51620
                   2.00000   2.00000   2.00000   2.00000   2.00000   2.00000
                  --------  --------  --------  --------  --------  --------
 0 C  s              10.8       1.1       9.9       2.3       6.9       0.8
 0 C  pz              0.0       0.0       0.0       0.4       0.6       5.5
 0 C  px              4.9       0.3       0.3       0.1       1.6       0.6
 0 C  py              0.1       0.1       0.2       1.7       0.3       0.4
 0 C  dx2y2           0.0       0.0       0.0       0.0       0.1       0.0
 0 C  dxy             0.1       0.0       0.0       0.0       0.0       0.0
 1 C  s              18.0       0.3       0.3       1.5       5.4       3.3
 1 C  pz              0.2       0.1       0.1       1.1       0.4      10.0
 1 C  px              3.0       0.6       4.5       0.1       2.8       0.0
 1 C  py              0.6       2.8       1.3       7.3       0.1       0.2
 1 C  dyz             0.0       0.0       0.0       0.1       0.0       0.0
 2 H  s               3.1       0.0       0.2       1.0       1.9       7.4
 3 C  s               7.8       4.9       5.2       6.5       0.8       2.8
 3 C  pz              0.3       0.3       0.4       0.0       0.5       1.2
 3 C  px              0.0       3.2       1.9       2.0       0.2       0.8
 3 C  py              3.7       0.1       0.3       2.1       3.7       1.4
 4 H  s               1.7       0.7       1.0       2.2       0.7       2.8
 5 C  s               1.3      11.9       2.9       7.5       1.2       2.3
 5 C  pz              0.2       4.0       0.1       0.6       0.1       1.0
 5 C  px              1.5       0.1       3.9       4.5       1.8       0.9
 5 C  py              0.0       0.7       0.8       1.1       1.8       1.6
 5 C  dz2             0.0       0.2       0.0       0.0       0.0       0.1
 6 H  s               0.2       2.3       1.1       4.0       1.0       1.7
 7 C  s               0.1      12.6       5.2       2.5       4.1       1.9
 7 C  pz              0.0       4.2       0.1       0.8       0.0       1.0
 7 C  px              0.1       0.6       1.3       0.0       0.9       1.6
 7 C  py              0.8       0.2       3.9       6.2       0.0       0.0
 7 C  dz2             0.0       0.2       0.0       0.0       0.0       0.0
 8 H  s               0.0       2.5       1.9       1.1       2.1       1.3
 9 C  s               3.4       5.1       6.5       4.2       2.1       1.3
 9 C  pz              0.0       0.6       1.1       0.5       0.7       1.0
 9 C  px              1.4       0.2       1.2       0.1       1.7       0.0
 9 C  py              0.0       3.9       1.7       0.2       3.9       1.4
 9 C  dxz             0.1       0.0       0.0       0.0       0.1       0.1
 9 C  dx2y2           0.0       0.1       0.1       0.0       0.1       0.0
10 H  s               0.6       0.8       1.8       1.9       0.6       1.7
11 O  s               2.6       1.6       1.3       1.8       0.3       1.5
11 O  pz              0.0       0.1       0.1       0.3       0.4       3.8
11 O  px              7.6       1.9       0.4       2.4      13.3       0.1
11 O  py              0.6       0.2       0.0       0.3       2.5       0.0
12 O  s               1.7       0.9       0.9       0.4       1.0       0.0
12 O  pz              0.4       1.1       2.7       2.6       0.8       1.5
12 O  px              0.4       0.1       0.3       0.6       1.8       0.1
12 O  py              0.5       1.7       3.8       2.4       0.1       0.0
13 O  s               0.0       5.3       0.4       0.4       0.4       0.0
13 O  pz              0.0       2.0       1.1       1.0       2.2       3.1
13 O  px              0.0       0.7       1.0       0.4       1.6       3.8
13 O  py              0.0       0.5       0.8       0.1       0.8       0.8
14 O  s               0.4       4.9       0.3       0.8       0.0       0.0
14 O  pz              0.2       2.1       0.6       4.2       0.6       5.0
14 O  px              0.1       0.1       0.3       0.0       0.3       0.1
14 O  py              0.1       0.8       0.6       2.7       0.9       5.5
15 O  s               2.8       1.1       0.7       1.4       0.0       0.0
15 O  pz              0.8       1.0       1.4       2.1       1.1       4.2
15 O  px              0.9       1.2       2.5       1.1       1.9       1.1
15 O  py              0.3       0.1       0.1       1.3       0.0       0.0
16 O  s               2.4       0.2       1.4       0.2       0.8       0.3
16 O  pz              0.1       0.0       0.2       0.1       0.8       1.0
16 O  px              4.2       0.3       6.2       0.2       7.3       0.7
16 O  py              0.2       0.0       0.4       0.4       1.1       0.1
17 H  s               2.0       0.3       2.7       1.6       2.5       0.4
18 H  s               2.3       0.2       2.3       1.0       2.8       3.0
19 H  s               0.7       1.2       2.3       1.7       0.4       0.2
20 H  s               0.0       2.0       1.0       0.3       1.4       2.1
21 H  s               0.2       1.9       0.5       2.1       0.5       3.1
22 H  s               1.2       0.9       1.3       1.2       0.9       1.1
23 H  s               2.0       0.1       2.3       0.1       2.4       0.2

                     24        25        26        27        28        29   
                  -0.51030  -0.49782  -0.49597  -0.47433  -0.44580  -0.42406
                   2.00000   2.00000   2.00000   2.00000   2.00000   2.00000
                  --------  --------  --------  --------  --------  --------
 0 C  s               0.1       0.0       1.0       1.2       0.2       0.0
 0 C  pz              2.9       0.2       0.0       7.6       0.3       8.8
 0 C  px              1.0       0.4       0.1       0.2       3.8       2.4
 0 C  py              3.0       0.3       8.6       2.3       1.8      11.1
 0 C  dxz             0.0       0.0       0.0       0.0       0.2       0.0
 0 C  dyz             0.1       0.0       0.1       0.1       0.1       0.0
 0 C  dxy             0.0       0.0       0.0       0.1       0.3       0.0
 1 C  s               0.1       0.0       0.1       0.0       1.6       0.0
 1 C  pz              3.4       0.0       4.7       0.6       3.3       3.4
 1 C  px              0.2       0.0       0.5       0.5       5.3       1.1
 1 C  py              2.2       0.8       2.9       2.0       1.5       0.1
 1 C  dxz             0.0       0.0       0.0       0.0       0.2       0.1
 1 C  dxy             0.0       0.0       0.0       0.1       0.1       0.0
 2 H  s               0.5       0.0       2.2       0.1       2.6       1.0
 3 C  s               0.0       0.5       0.3       0.0       0.1       0.3
 3 C  pz              0.4       2.2       9.1       2.6       0.5       0.8
 3 C  px              0.1       1.3       3.3       0.4       3.4       0.7
 3 C  py              0.5       1.4       1.9       4.3       1.4       0.3
 3 C  dyz             0.0       0.0       0.1       0.1       0.1       0.0
 4 H  s               0.0       2.1       3.8       0.2       0.1       0.2
 5 C  s               0.1       0.0       0.1       0.1       0.0       0.1
 5 C  pz              0.6       4.7       2.7       0.1       0.0       3.5
 5 C  px              0.3       0.9       0.0       0.5       3.5       4.3
 5 C  py              0.7       5.0       0.0       4.6       0.4       0.6
 6 H  s               0.2       0.4       0.0       1.1       0.2       1.3
 7 C  s               1.1       0.0       0.0       0.1       0.2       0.2
 7 C  pz              0.7       7.9       0.0       0.4       0.0       1.5
 7 C  px              0.5       2.4       1.0       5.9       1.7       0.0
 7 C  py              0.4       1.2       0.1       1.3       5.7       2.2
 7 C  dz2             0.0       0.1       0.0       0.0       0.1       0.2
 8 H  s               0.0       0.0       0.2       2.0       1.2       0.3
 9 C  s               0.2       1.1       0.2       0.6       0.3       0.7
 9 C  pz              1.0      11.6       3.2       1.8       7.5       4.0
 9 C  px              9.6       0.1       0.2       2.0       1.6       0.3
 9 C  py              0.1       4.2       0.1       0.4       1.8       5.0
 9 C  dxz             0.4       0.0       0.0       0.0       0.1       0.0
 9 C  dx2y2           0.0       0.0       0.0       0.1       0.0       0.1
10 H  s               0.0       7.1       1.4       0.7       1.8       5.3
11 O  s               0.0       0.0       0.6       2.2       0.0       0.0
11 O  pz              0.5       1.6       2.9       0.4       1.0       0.0
11 O  px              8.5       0.8       0.1       1.9      10.3       0.9
11 O  py              0.3       1.5       0.2       1.8       3.6       1.4
12 O  s               0.2       0.2       0.0       0.1       0.5       0.8
12 O  pz              9.4       0.4       0.2       1.6       0.0       1.2
12 O  px              0.2       0.3       0.3       0.1       4.2       0.0
12 O  py             15.4       4.4       1.5       4.0       0.1       3.1
13 O  s               0.3       0.3       0.7       0.0       0.0       0.7
13 O  pz              3.1       2.1       0.1       0.5       0.6       0.3
13 O  px              1.2       6.5       0.6       2.3       1.5       2.2
13 O  py              0.8       4.0       0.0       0.0       0.4       2.4
14 O  s               0.0       0.7       0.3       0.3       0.0       0.0
14 O  pz              0.6       1.1       2.8       0.4       0.1       1.5
14 O  px              0.1       0.9       0.5       0.4       0.5       2.2
14 O  py              0.7       6.9       1.7       0.2       0.2       0.8
15 O  s               0.2       0.0       0.6       0.0       0.7       0.0
15 O  pz              0.0       1.1       1.8       6.0       0.2       0.0
15 O  px              0.1       0.4      15.8       8.5       0.6       0.6
15 O  py              0.3       0.1       0.2       0.2       1.8       0.1
16 O  s               0.2       0.0       0.6       1.1       0.5       0.2
16 O  pz              0.0       0.0       0.0       0.9       0.4       1.3
16 O  px             12.4       2.1       5.0       8.0      13.5       0.1
16 O  py              0.0       0.1       2.0       0.1       0.3       6.3
17 H  s               0.7       0.0       4.3       1.4       0.9       7.3
18 H  s               1.0       0.0       0.2       4.8       0.2       3.5
19 H  s               6.9       0.7       0.5       1.6       0.1       0.3
20 H  s               1.5       3.7       0.2       0.4       0.3       1.2
21 H  s               0.3       2.6       1.2       0.0       0.0       0.6
22 H  s               0.0       0.0       5.1       3.5       0.0       0.1
23 H  s               3.5       0.6       1.4       2.2       3.9       0.0

                     30        31        32        33        34        35   
                  -0.41971  -0.40765  -0.38249  -0.37731  -0.35716  -0.35012
                   2.00000   2.00000   2.00000   2.00000   2.00000   2.00000
                  --------  --------  --------  --------  --------  --------
 0 C  pz              3.8       5.6       0.7       2.3       0.3       2.1
 0 C  px              1.0       1.4      14.7       1.8       0.5       0.4
 0 C  py              1.2       2.6       0.2       2.2       1.9       1.3
 0 C  dxz             0.0       0.0       0.0       0.1       0.0       0.0
 0 C  dxy             0.0       0.0       0.1       0.0       0.0       0.1
 1 C  s               0.0       0.3       0.0       0.1       0.5       0.1
 1 C  pz              0.0       0.0       3.1       2.3       1.2       5.6
 1 C  px              0.5       1.6       9.4       0.5       0.5       0.2
 1 C  py              1.2       2.8       0.7       3.5       0.2       5.4
 1 C  dxz             0.0       0.0       0.0       0.1       0.0       0.0
 1 C  dx2y2           0.0       0.0       0.0       0.2       0.0       0.0
 1 C  dxy             0.1       0.0       0.2       0.0       0.1       0.1
 2 H  s               0.0       0.1       1.4       2.0       2.0       3.3
 3 C  s               0.2       0.6       0.7       0.5       0.1       0.0
 3 C  pz              4.9       4.5       0.8       1.6       2.5       0.2
 3 C  px              3.5       5.4       0.8       0.7       7.1       0.2
 3 C  py              0.2       4.1       0.2       5.9       0.1       4.0
 3 C  dz2             0.1       0.0       0.0       0.0       0.0       0.0
 3 C  dyz             0.1       0.0       0.2       0.0       0.0       0.0
 3 C  dx2y2           0.2       0.0       0.0       0.0       0.0       0.2
 3 C  dxy             0.0       0.1       0.0       0.0       0.1       0.2
 4 H  s               0.5       6.8       1.8       1.8       0.0       0.7
 5 C  s               1.5       0.1       0.1       0.0       0.0       0.3
 5 C  pz              8.2       0.0       1.0       0.9       0.6       0.8
 5 C  px              3.7       1.0       0.5       0.1       6.5       0.1
 5 C  py              0.1       1.1       2.7       8.2       0.3      13.5
 5 C  dz2             0.2       0.1       0.1       0.1       0.1       0.2
 5 C  dxz             0.1       0.0       0.0       0.0       0.0       0.0
 5 C  dx2y2           0.0       0.0       0.0       0.1       0.1       0.1
 5 C  dxy             0.0       0.2       0.0       0.0       0.0       0.1
 6 H  s               1.4       0.5       1.7       4.9       0.4       8.1
 7 C  s               0.2       1.1       0.1       0.0       0.1       0.1
 7 C  pz              1.5       8.7       0.3       0.2       0.4       0.1
 7 C  px              2.4       1.7       5.3       1.9      13.7       2.5
 7 C  py              3.1       0.3       3.9       2.1       0.1       2.1
 7 C  dz2             0.0       0.3       0.1       0.0       0.1       0.3
 7 C  dx2y2           0.0       0.0       0.0       0.1       0.2       0.0
 7 C  dxy             0.1       0.0       0.0       0.0       0.0       0.0
 8 H  s               1.5       3.1       3.9       1.4       7.6       1.0
 9 C  s               0.0       0.3       0.2       0.1       0.0       0.5
 9 C  pz              0.0       1.9       0.1       0.4       0.2       0.4
 9 C  px              0.7       0.2       0.1       2.3       0.2       0.3
 9 C  py              5.5       0.8       1.7       7.4       0.1       1.6
 9 C  dxz             0.0       0.1       0.1       0.0       0.1       0.2
 9 C  dx2y2           0.0       0.1       0.3       0.1       0.0       0.0
 9 C  dxy             0.0       0.1       0.0       0.0       0.1       0.0
10 H  s               0.9       0.6       0.1       1.9       0.0       0.1
11 O  s               0.0       0.0       0.1       0.7       0.1       0.0
11 O  pz              0.1       0.2       7.5       4.2       0.0       3.0
11 O  px              0.4       0.1       0.0       1.6       1.4       1.2
11 O  py              1.7       1.4       0.4       0.7       0.3       6.0
12 O  s               0.1       0.1       0.4       1.8       0.3       0.1
12 O  pz              2.9       1.7       0.5       6.4       0.5       1.1
12 O  px              1.3       1.1       1.5       1.1       0.3       0.2
12 O  py              0.0       1.6       0.5       4.9       0.3       0.3
13 O  s               0.2       0.0       0.0       0.0       0.3       0.0
13 O  pz              3.1       7.8       0.9       0.1       4.3       1.7
13 O  px              0.3       4.4       0.2       0.4       3.2       0.0
13 O  py              0.0       2.7       2.8       0.7       0.2       0.0
14 O  s               0.3       0.5       0.0       0.1       0.5       1.2
14 O  pz              7.3       0.1       3.0       3.8       0.1      10.0
14 O  px              0.1       0.2       0.9       0.1       3.5       0.5
14 O  py              9.0       1.2       0.1       0.1       1.8       4.3
15 O  s               0.1       0.4       0.8       0.0       3.3       0.1
15 O  pz              2.9       3.2       0.0       0.8      10.2       3.8
15 O  px              4.9       0.9       4.3       0.4       6.1       0.6
15 O  py              2.3       0.2       0.2       3.2       9.9       0.0
16 O  s               0.2       0.2       1.6       0.1       0.0       0.0
16 O  pz              2.8       4.1       7.2       0.2       0.8       3.9
16 O  px              0.0       0.1       0.4       0.2       0.1       0.1
16 O  py              0.0       0.0       7.0       5.2       0.1       0.9
17 H  s               0.7       1.8       0.1       1.5       1.5       1.4
18 H  s               1.9       3.0       0.3       1.9       0.4       1.3
19 H  s               0.4       1.1       0.3       0.2       0.2       0.3
20 H  s               0.6       3.0       0.1       0.0       0.7       0.4
21 H  s               4.0       0.1       0.3       0.6       0.1       0.3
22 H  s               2.7       0.0       0.6       0.1       0.4       0.0

                     36        37        38        39        40        41   
                  -0.33257  -0.32571  -0.32164  -0.31489  -0.28204  -0.26757
                   2.00000   2.00000   2.00000   2.00000   2.00000   2.00000
                  --------  --------  --------  --------  --------  --------
 0 C  s               0.1       0.1       0.1       0.1       0.6       0.0
 0 C  pz              2.5       0.4       0.8       1.4       1.4       0.0
 0 C  px              0.0       0.2       0.0       1.4       3.7       0.0
 0 C  py              1.6       1.0       1.8       0.2       2.3       0.0
 0 C  dz2             0.1       0.0       0.1       0.0       0.1       0.0
 0 C  dx2y2           0.3       0.1       0.2       0.0       0.2       0.0
 1 C  s               1.0       0.2       0.3       0.2       0.1       0.0
 1 C  pz              0.8       1.1       0.0       3.7       2.1       0.0
 1 C  px              0.2       2.4       1.3       1.4       3.6       0.0
 1 C  py              0.5       0.4       0.0       0.7       2.1       0.2
[...]
 5 C  px              0.0       0.0       0.0       0.1       0.1       0.0
 5 C  dz2             0.0       0.4       2.9       3.6       4.1       0.0
 5 C  dxz             0.1       0.8       0.7       0.1       0.9       0.0
 5 C  dyz             0.0       0.2       0.0       0.0       0.4       0.0
 5 C  dx2y2           0.0       0.2       0.1       0.0       0.0       0.0
 7 C  s               0.0       0.5       0.8       0.5       0.8       0.0
 7 C  pz              0.0       0.6       0.8       1.0       1.5       0.1
 7 C  dz2             0.0       1.0       3.3       3.7       3.0       0.1
 7 C  dxz             0.0       0.3       0.0       0.1       0.5       0.0
 7 C  dyz             0.3       0.6       0.2       0.0       0.7       0.0
 7 C  dx2y2           0.0       0.1       0.1       0.1       0.0       0.0
 7 C  dxy             0.0       0.0       0.0       0.0       0.0       0.1
 9 C  s               1.1       0.8       0.4       0.4       0.6       0.3
 9 C  pz              0.7       0.3       0.1       0.3       0.4       0.0
 9 C  px              0.0       0.4       0.3       0.3       0.0       2.8
 9 C  py              0.2       0.1       0.0       0.1       0.1       0.0
 9 C  dz2             0.1       0.0       0.0       0.1       0.0       1.5
 9 C  dxz             0.1       2.5       0.9       2.0       0.8       4.0
 9 C  dyz             0.5       0.0       0.5       0.0       0.0       0.5
 9 C  dx2y2           1.3       0.8       0.1       0.5       0.9       1.9
 9 C  dxy             0.0       1.2       0.3       0.7       0.1       0.4
11 O  s               0.4       0.7       0.0       0.3       0.0       0.2
11 O  px              0.1       0.2       0.0       0.0       0.4       5.9
11 O  py              0.0       0.0       0.0       0.0       0.0       0.5
11 O  dz2             0.7       2.0       0.3       1.7       0.1       0.1
11 O  dxz             1.2       3.5       0.0       0.2       1.9      25.6
11 O  dyz             0.1       0.0       0.0       0.0       0.0       3.3
11 O  dx2y2           4.4       3.8       0.1       0.6       0.5       5.8
11 O  dxy             0.6       3.2       0.2       2.1       2.0      19.1
12 O  s               0.8       0.7       0.5       1.0       0.7       0.9
12 O  pz              0.4       0.7       0.3       0.4       0.2       0.3
12 O  px              0.2       0.3       0.2       0.2       0.1       0.4
12 O  py              0.4       0.2       0.1       0.3       0.3       0.1
12 O  dz2             0.7       3.3       0.6       0.9       0.6       0.0
12 O  dxz             6.9       9.8       4.9       6.1       2.4       6.1
12 O  dyz             0.9       1.5       0.5       1.6       1.0       0.5
12 O  dx2y2           2.2       0.9       1.5       0.5       0.0       2.7
12 O  dxy             2.1       1.3       0.7       2.3       1.5       0.5
13 O  s               0.0       0.3       0.8       1.2       2.2       0.1
13 O  pz              0.0       0.5       1.1       0.8       1.5       0.0
13 O  px              0.0       0.2       0.2       0.2       0.1       0.0
13 O  py              0.0       0.1       0.1       0.2       0.1       0.0
13 O  dz2             0.5      11.4      15.0      11.4      19.6       0.2
13 O  dxz             0.0       0.4       1.6       0.9       0.1       0.0
13 O  dyz             0.1       0.2       1.5       3.3       1.0       0.4
13 O  dx2y2           0.0       0.2       0.0       0.2       0.0       0.1
13 O  dxy             0.1       0.2       0.0       0.2       0.0       0.0
14 O  s               0.0       0.1       0.6       1.4       3.0       0.0
14 O  pz              0.0       0.3       1.0       0.8       2.0       0.0
14 O  px              0.0       0.0       0.0       0.2       0.1       0.0
14 O  py              0.0       0.1       0.3       0.1       0.1       0.0
14 O  dz2             0.1       6.4      16.5       9.3      24.9       0.0
14 O  dxz             0.0       0.0       1.1       5.1       2.4       0.0
14 O  dyz             0.0       0.0       1.0       0.5       0.0       0.0
14 O  dx2y2           0.0       0.1       0.3       0.2       0.1       0.0
15 O  s               0.0       0.8       1.5       2.0       0.6       0.3
15 O  pz              0.0       0.6       1.0       0.7       0.3       0.1
15 O  px              0.0       0.5       0.2       0.6       0.2       0.0
15 O  py              0.0       0.2       0.3       0.3       0.0       0.0
15 O  dz2             0.0       5.5       4.4       2.5       1.4       0.0
15 O  dxz             0.0       1.1       1.7       2.5       1.5       0.2
15 O  dyz             0.3       7.6      13.1       9.5       2.1       1.2
15 O  dx2y2           0.2       1.0       2.2       1.2       0.0       0.1
15 O  dxy             0.0       1.5       1.2       2.1       0.9       0.0
16 O  s               2.4       0.2       0.1       0.1       0.0       0.1
16 O  pz              0.3       0.0       0.0       0.0       0.0       0.0
16 O  px              2.6       0.3       0.1       0.1       0.0       0.1
16 O  py              0.5       0.0       0.0       0.0       0.0       0.0
16 O  dz2             0.7       0.0       0.1       0.1       0.0       0.1
16 O  dxz            16.6       1.7       0.4       0.3       0.2       0.1
16 O  dyz             9.1       0.8       0.2       0.1       0.1       0.0
16 O  dx2y2           0.0       0.0       0.0       0.0       0.0       0.5
16 O  dxy            23.0       2.8       0.4       0.3       0.3       0.1
19 H  s               0.2       0.1       0.1       0.1       0.0       0.0
20 H  s               0.0       0.4       0.2       0.2       0.2       0.0
21 H  s               0.0       0.2       0.3       0.1       0.3       0.0
22 H  s               0.0       0.3       0.2       0.2       0.0       0.0
23 H  s               0.7       0.1       0.0       0.0       0.0       0.0



                      *****************************
                      * MAYER POPULATION ANALYSIS *
                      *****************************

  NA   - Mulliken gross atomic population
  ZA   - Total nuclear charge
  QA   - Mulliken gross atomic charge
  VA   - Mayer's total valence
  BVA  - Mayer's bonded valence
  FA   - Mayer's free valence

  ATOM       NA         ZA         QA         VA         BVA        FA
  0 C      5.9407     6.0000     0.0593     3.9678     3.9678    -0.0000
  1 C      5.9956     6.0000     0.0044     4.0704     4.0704    -0.0000
  2 H      0.9405     1.0000     0.0595     1.0038     1.0038    -0.0000
  3 C      5.9698     6.0000     0.0302     3.9429     3.9429    -0.0000
  4 H      0.9321     1.0000     0.0679     0.9838     0.9838    -0.0000
  5 C      5.9642     6.0000     0.0358     4.1038     4.1038     0.0000
  6 H      0.9131     1.0000     0.0869     0.9718     0.9718     0.0000
  7 C      5.9773     6.0000     0.0227     4.0199     4.0199     0.0000
  8 H      0.9094     1.0000     0.0906     0.9756     0.9756    -0.0000
  9 C      5.8300     6.0000     0.1700     4.0509     4.0509    -0.0000
 10 H      0.9327     1.0000     0.0673     0.9795     0.9795    -0.0000
 11 O      8.3195     8.0000    -0.3195     2.1357     2.1357     0.0000
 12 O      8.3803     8.0000    -0.3803     2.0695     2.0695    -0.0000
 13 O      8.4215     8.0000    -0.4215     2.0308     2.0308     0.0000
 14 O      8.4063     8.0000    -0.4063     2.0320     2.0320    -0.0000
 15 O      8.4224     8.0000    -0.4224     2.0419     2.0419    -0.0000
 16 O      8.4463     8.0000    -0.4463     2.0169     2.0169     0.0000
 17 H      0.9143     1.0000     0.0857     0.9539     0.9539     0.0000
 18 H      0.9175     1.0000     0.0825     0.9604     0.9604    -0.0000
 19 H      0.6933     1.0000     0.3067     0.8887     0.8887    -0.0000
 20 H      0.6921     1.0000     0.3079     0.9315     0.9315     0.0000
 21 H      0.7081     1.0000     0.2919     0.9387     0.9387    -0.0000
 22 H      0.6873     1.0000     0.3127     0.9092     0.9092    -0.0000
 23 H      0.6858     1.0000     0.3142     0.8722     0.8722    -0.0000

  Mayer bond orders larger than 0.100000
B(  0-C ,  1-C ) :   1.0635 B(  0-C , 16-O ) :   1.0635 B(  0-C , 17-H ) :   0.9175 
B(  0-C , 18-H ) :   0.9079 B(  1-C ,  2-H ) :   0.8646 B(  1-C ,  3-C ) :   0.9872 
B(  1-C , 11-O ) :   1.0382 B(  3-C ,  4-H ) :   0.8826 B(  3-C ,  5-C ) :   0.9718 
B(  3-C , 15-O ) :   1.0357 B(  5-C ,  6-H ) :   0.8925 B(  5-C ,  7-C ) :   1.0352 
B(  5-C , 14-O ) :   1.0889 B(  7-C ,  8-H ) :   0.8948 B(  7-C ,  9-C ) :   0.9335 
B(  7-C , 13-O ) :   1.0867 B(  9-C , 10-H ) :   0.8983 B(  9-C , 11-O ) :   0.9947 
B(  9-C , 12-O ) :   1.1309 B( 12-O , 19-H ) :   0.8410 B( 13-O , 20-H ) :   0.8060 
B( 14-O , 21-H ) :   0.8303 B( 15-O , 20-H ) :   0.1073 B( 15-O , 22-H ) :   0.8224 
B( 16-O , 23-H ) :   0.8454 

-------
TIMINGS
-------

Total SCF time: 0 days 0 hours 23 min 27 sec 

Total time                  ....    1407.871 sec
Sum of individual times     ....       6.257 sec  (  0.4%)

SCF preparation             ....       0.077 sec  (  0.0%)
Fock matrix formation       ....       5.972 sec  (  0.4%)
  Startup                   ....       0.009 sec  (  0.1% of F)
  Split-RI-J                ....       3.031 sec  ( 50.7% of F)
  XC integration            ....       2.845 sec  ( 47.6% of F)
    XC Preparation          ....       0.000 sec  (  0.0% of XC)
    Basis function eval.    ....       1.088 sec  ( 38.3% of XC)
    Density eval.           ....       0.599 sec  ( 21.0% of XC)
    XC-Functional eval.     ....       0.160 sec  (  5.6% of XC)
    XC-Potential eval.      ....       0.616 sec  ( 21.7% of XC)
Diagonalization             ....       0.000 sec  (  0.0%)
Density matrix formation    ....       0.028 sec  (  0.0%)
Total Energy calculation    ....       0.002 sec  (  0.0%)
Population analysis         ....       0.062 sec  (  0.0%)
Orbital Transformation      ....       0.017 sec  (  0.0%)
Orbital Orthonormalization  ....       0.000 sec  (  0.0%)
DIIS solution               ....       0.078 sec  (  0.0%)
  MO trafo                  ....       0.000 sec  (  0.0 % of DIIS)
  Orb grad                  ....       0.000 sec  (  0.0 % of DIIS)
  Energy W gradient         ....       0.000 sec  (  0.0 % of DIIS)
  DIIS error                ....       0.005 sec  (  6.6 % of DIIS)
  DIIS work                 ....       0.064 sec  ( 81.7 % of DIIS)
  Form Q                    ....       0.000 sec  (  0.0 % of DIIS)
  Form QpQm                 ....       0.000 sec  (  0.0 % of DIIS)
  Exp/Cayley                ....       0.000 sec  (  0.0 % of DIIS)
  Orb update                ....       0.000 sec  (  0.0 % of DIIS)
  Wake-sleep                ....       0.001 sec  (  1.3 % of DIIS)
SOSCF solution              ....       0.021 sec  (  0.0%)
  MO trafo                  ....       0.013 sec  ( 61.5 % of SOSCF)
  Orb grad                  ....       0.000 sec  (  0.9 % of SOSCF)
  Rot update                ....       0.002 sec  (  7.9 % of SOSCF)
  Step                      ....       0.006 sec  ( 29.5 % of SOSCF)
Finished LeanSCF after 1407.9 sec

Maximum memory used throughout the entire LEANSCF-calculation: 19.0 MB


-------------------------------------------------------------------------------
                          DFT DISPERSION CORRECTION                            
                                                                               
                                DFTD4 V3.4.0                                   
-------------------------------------------------------------------------------
The PBE functional is recognized
Active option DFTDOPT                   ...         5   

-------------------------   ----------------
Dispersion correction           -0.025190125
-------------------------   ----------------

------------------   -----------------
gCP correction             0.159432632
------------------   -----------------

-------------------------   --------------------
FINAL SINGLE POINT ENERGY      -685.695756169845
-------------------------   --------------------


------------------------------------------------------------------------------
                              ORCA PROPERTY CALCULATIONS
------------------------------------------------------------------------------

GBWName                                 ... sp.gbw
Number of atoms                         ...     24
Number of basis functions               ...    192
Max core memory                         ...   1024 MB

Electric properties:
Dipole moment                           ... YES
Quadrupole moment                       ...  NO
Static polarizability (Dipole/Dipole)   ...  NO
Static polarizability (Dipole/Quad.)    ...  NO
Static polarizability (Quad./Quad.)     ...  NO
Static polarizability (Velocity)        ...  NO

Atomic electric properties:
Dipole moment                           ...  NO
Quadrupole moment                       ...  NO
Static polarizability                   ...  NO

Choice of electric origin               ... Center of mass
Position of electric origin             ...    -0.000006    -0.000003    -0.000000

General magnetic properties:
Magnetizability                         ...  NO

EPR properties:
g-Tensor (aka g-matrix)                 ...  NO
Zero-Field splitting spin-orbit         ...  NO
Zero-field splitting spin-spin          ...  NO
Hyperfine couplings                     ...  NO (   0 nuclei)
Quadrupole couplings                    ...  NO (   0 nuclei)
Contact density                         ...  NO (   0 nuclei)

NMR properties:
Chemical shifts                         ...  NO (   0 nuclei)
Spin-rotation constants                 ...  NO (   0 nuclei)
Spin-spin couplings                     ...  NO (   0 nuclei,    0 pairs)

Choice of magnetic origin               ... GIAO
Position of magnetic origin             ...     0.000000     0.000000     0.000000

Properties with geometric perturbations:
SCF Hessian                             ...  NO
IR spectrum                             ...  NO
VCD spectrum                            ...  NO
X-ray spectroscopy properties:
SCF XES/XAS/RIXS spectra                ...  NO


-------------
DIPOLE MOMENT
-------------

Method             : SCF
Type of density    : Electron Density
Multiplicity       :   1
Irrep              :   0
Energy             :  -685.8299986770789474 Eh
Relativity type    : 
Basis              : AO
                                X                 Y                 Z
Electronic contribution:      2.382175540       0.343236085      -0.268598511
Nuclear contribution   :     -3.998862557      -1.567790221       0.032692111
                        -----------------------------------------
Total Dipole Moment    :     -1.616687018      -1.224554136      -0.235906400
                        -----------------------------------------
Magnitude (a.u.)       :      2.041779022
Magnitude (Debye)      :      5.189789834



--------------------
Rotational spectrum 
--------------------
 
Rotational constants in cm-1:             0.044346             0.025623             0.022043 
Rotational constants in MHz :          1329.445578           768.171195           660.827349 

Dipole components along the rotational axes: 
x,y,z [a.u.] :    -1.488898    -1.389613    -0.144983 
x,y,z [Debye]:    -3.784478    -3.532115    -0.368519 

 

Dipole moment calculation done in   0.0 sec 

Maximum memory used throughout the entire PROP-calculation: 12.6 MB

--------------------------------
SUGGESTED CITATIONS FOR THIS RUN
--------------------------------

Below you find a list of papers that are relevant to this ORCA run
We neither can nor want to force you to cite these papers, but we appreciate if you do
You receive ORCA, which is the product of decades of hard work by many enthusiastic individuals, for free
The only thing we kindly ask in return is that you cite our papers,
We deeply appreciate it, if you show your appreciation for ORCA by not just citing the generic ORCA reference.

Please note that relegating all ORCA citations to the supporting information does *not* help us.
SI sections are not indexed - citations you put there will not count into any citation statistics
But we need these citations in order to attract the funding resources that allow us to do what we are doing

Therefore, if you are a happy ORCA user, please consider citing a few of the papers listed below in the main body of your paper

In addition to the list printed below, the program has created the file sp.bibtex that contains the list in bibtex format
You can import this file easily into all common literature databanks and citation aid programs


List of essential papers. We consider these as the minimum necessary citations

  1. Neese,F.
     Software update: the ORCA program system, version 5.0
     WIRES Comput. Molec. Sci., 2022 12(1)e1606
     doi.org/10.1002/wcms.1606

List of papers to cite with high priority. The work reported in these papers was absolutely
necessary for this run to complete.
Our perspective: the developers of density functionals and basis sets usually get cited in chemistry papers
Good! But without the algorithms to do something with them, the functionals or basis sets would not do anything.
Hence, in our opinion, the algorithm design and method developments papers are equally worthy of getting cited

  1. Neese,F.
     An improvement of the resolution of the identity approximation for the formation of the Coulomb matrix
     J. Comp. Chem., 2003 24(14)1740-1747
     doi.org/10.1002/jcc.10318
  2. Neese,F.
     The SHARK Integral Generation and Digestion System
     J. Comp. Chem., 2022  1-16
     doi.org/10.1002/jcc.26942
  3. Caldeweyher,E.; Bannwarth,C.; Grimme,S.
     Extension of the D3 dispersion coefficient model
     J. Chem. Phys., 2017 147 034112
     doi.org/10.1063/1.4993215
  4. Caldeweyher,E.; Ehlert,S.; Hansen,A.; Neugebauer,H.; Spicher,S.; Bannwarth,C.; Grimme,S.
     A generally applicable atomic-charge dependent London dispersion correction
     J. Chem. Phys., 2019 150 154122
     doi.org/10.1063/1.5090222
  5. Caldeweyher,E.; Mewes,J.; Ehlert,S.; Grimme,S.
     Extension and evaluation of the D4 London-dispersion model for periodic systems
     Phys. Chem. Chem. Phys., 2020 22(16)8499-8512
     doi.org/10.1039/D0CP00502A
  6. Wittmann,L.; Gordiy,I.; Friede,M.; Helmich-Paris,B.; Grimme,S.; Hansen,A.; Bursch,M.
     Extension of the D3 and D4 London Dispersion Corrections to the full Actinides Series
     Phys. Chem. Chem. Phys., 2024 26(32)21379-21394
     doi.org/https://doi.org/10.1039/D4CP01514B 

List of suggested additional citations. These are papers that are important in the 'surrounding' of 
of this run, or papers that preceded the highly important papers. If you like your results we are grateful for a citation.

  1. Neese,F.
     The ORCA program system
     WIRES Comput. Molec. Sci., 2012 2(1)73-78
     doi.org/10.1002/wcms.81
  2. Neese,F.
     Software update: the ORCA program system, version 4.0
     WIRES Comput. Molec. Sci., 2018 8(1)1-6
     doi.org/10.1002/wcms.1327
  3. Neese,F.; Wennmohs,F.; Becker,U.; Riplinger,C.
     The ORCA quantum chemistry program package
     J. Chem. Phys., 2020 152 Art. No. L224108
     doi.org/10.1063/5.0004608

List of optional additional citations

  1. Neese,F.
     Approximate second-order SCF convergence for spin unrestricted wavefunctions
     Chem. Phys. Lett., 2000 325(1-3)93-98
     doi.org/10.1016/s0009-2614(00)00662-x

Timings for individual modules:

Sum of individual times          ...     1417.484 sec (=  23.625 min)
Startup calculation              ...        0.608 sec (=   0.010 min)   0.0 %
SCF iterations                   ...     1416.812 sec (=  23.614 min) 100.0 %
Property calculations            ...        0.065 sec (=   0.001 min)   0.0 %
                             ****ORCA TERMINATED NORMALLY****
TOTAL RUN TIME: 0 days 0 hours 23 minutes 37 seconds 727 msec
