
                                 *****************
                                 * O   R   C   A *
                                 *****************

                                            #,                                       
                                            ###                                      
                                            ####                                     
                                            #####                                    
                                            ######                                   
                                           ########,                                 
                                     ,,################,,,,,                         
                               ,,#################################,,                 
                          ,,##########################################,,             
                       ,#########################################, ''#####,          
                    ,#############################################,,   '####,        
                  ,##################################################,,,,####,       
                ,###########''''           ''''###############################       
              ,#####''   ,,,,##########,,,,          '''####'''          '####       
            ,##' ,,,,###########################,,,                        '##       
           ' ,,###''''                  '''############,,,                           
         ,,##''                                '''############,,,,        ,,,,,,###''
      ,#''                                            '''#######################'''  
     '                                                          ''''####''''         
             ,#######,   #######,   ,#######,      ##                                
            ,#'     '#,  ##    ##  ,#'     '#,    #''#        ,####,   ,####,        
            ##       ##  ##   ,#'  ##            #'  '#       #'       #'  '#        
            ##       ##  #######   ##           ,######,      #####,   #    #        
            '#,     ,#'  ##    ##  '#,     ,#' ,#      #,     #,   #   #,  ,#        
             '#######'   ##     ##  '#######'  #'      '#     '####' # '####'        



                #########################################################
                #                        -***-                          #
                #          Department of theory and spectroscopy        #
                #                                                       #
                #                      Frank Neese                      #
                #                                                       #
                #     Directorship, Architecture, Infrastructure        #
                #                    SHARK, DRIVERS                     #
                #        Core code/Algorithms in most modules           #
                #                                                       #
                #        Max Planck Institute fuer Kohlenforschung      #
                #                Kaiser Wilhelm Platz 1                 #
                #                 D-45470 Muelheim/Ruhr                 #
                #                      Germany                          #
                #                                                       #
                #                  All rights reserved                  #
                #                        -***-                          #
                #########################################################


                         Program Version 6.0.0  -   RELEASE  -


 With contributions from (in alphabetic order):
   Daniel Aravena         : Magnetic Suceptibility
   Michael Atanasov       : Ab Initio Ligand Field Theory (pilot matlab implementation)
   Alexander A. Auer      : GIAO ZORA, VPT2 properties, NMR spectrum
   Ute Becker             : All parallelization in ORCA, NUMFREQ, NUMCALC
   Giovanni Bistoni       : ED, misc. LED, open-shell LED, HFLD
   Martin Brehm           : Molecular dynamics
   Dmytro Bykov           : pre 5.0 version of the SCF Hessian
   Marcos Casanova-Páez   : Triplet and SCS-CIS(D). UHF-(DLPNO)-IP/EA/STEOM-CCSD. UHF-CVS-IP/STEOM-CCSD
   Vijay G. Chilkuri      : MRCI spin determinant printing, contributions to CSF-ICE
   Pauline Colinet        : FMM embedding
   Dipayan Datta          : RHF DLPNO-CCSD density
   Achintya Kumar Dutta   : EOM-CC, STEOM-CC
   Nicolas Foglia         : Exact transition moments, OPA infrastructure, MCD improvements
   Dmitry Ganyushin       : Spin-Orbit,Spin-Spin,Magnetic field MRCI
   Miquel Garcia          : C-PCM and meta-GGA Hessian, CCSD/C-PCM, Gaussian charge scheme
   Tiago L. C. Gouveia    : GS-ROHF, GS-ROCIS
   Yang Guo               : DLPNO-NEVPT2, F12-NEVPT2, CIM, IAO-localization
   Andreas Hansen         : Spin unrestricted coupled pair/coupled cluster methods
   Ingolf Harden          : AUTO-CI MPn and infrastructure 
   Benjamin Helmich-Paris : MC-RPA, TRAH-(SCF,CASSCF), AVAS, COSX integrals, SCF dyn. polar.
   Lee Huntington         : MR-EOM, pCC
   Robert Izsak           : Overlap fitted RIJCOSX, COSX-SCS-MP3, EOM
   Riya Kayal             : Wick's Theorem for AUTO-CI, AUTO-CI UHF-CCSDT
   Emily Kempfer          : AUTO-CI, RHF CISDT and CCSDT
   Christian Kollmar      : KDIIS, OOCD, Brueckner-CCSD(T), CCSD density, CASPT2, CASPT2-K, improved NEVPT2
   Axel Koslowski         : Symmetry handling
   Simone Kossmann        : Meta GGA functionals, TD-DFT gradient, OOMP2, (MP2 Hessian; deprecated post 5.0)
   Lucas Lang             : DCDCAS
   Marvin Lechner         : AUTO-CI (C++ implementation), FIC-MRCC
   Spencer Leger          : CASSCF response
   Dagmar Lenk            : GEPOL surface, SMD, ORCA-2-JSON
   Dimitrios Liakos       : Extrapolation schemes; Compound Job, initial MDCI parallelization
   Dimitrios Manganas     : Further ROCIS development; embedding schemes. LFT, Crystal Embedding
   Dimitrios Pantazis     : SARC Basis sets
   Anastasios Papadopoulos: AUTO-CI, single reference methods and gradients
   Taras Petrenko         : pre 6.0 DFT Hessian and TD-DFT gradient, (ASA, deprecated), ECA, 1-Electron XAS/XES, NRVS
   Peter Pinski           : DLPNO-MP2, DLPNO-MP2 Gradient
   Christoph Reimann      : Effective Core Potentials
   Marius Retegan         : Local ZFS, SOC
   Christoph Riplinger    : Optimizer, TS searches, QM/MM, DLPNO-CCSD(T), (RO)-DLPNO pert. Triples
   Michael Roemelt        : Original ROCIS implementation
   Masaaki Saitow         : Open-shell DLPNO-CCSD energy and density
   Barbara Sandhoefer     : DKH picture change effects
   Kantharuban Sivalingam : CASSCF convergence/infrastructure, NEVPT2 and variants, FIC-MRCI
   Bernardo de Souza      : ESD, SOC TD-DFT
   Georgi Stoychev        : AutoAux, RI-MP2 NMR, DLPNO-MP2 response, X2C
   Van Anh Tran           : RI-MP2 g-tensors
   Willem Van den Heuvel  : Paramagnetic NMR
   Zikuan Wang            : NOTCH, Electric field optimization 
   Frank Wennmohs         : Technical directorship and infrastructure
   Hang Xu                : AUTO-CI-Response properties 


 We gratefully acknowledge several colleagues who have allowed us to
 interface, adapt or use parts of their codes:
   Stefan Grimme, W. Hujo, H. Kruse, P. Pracht,  : VdW corrections, initial TS optimization,
                  C. Bannwarth, S. Ehlert,         DFT functionals, gCP, sTDA/sTD-DF
                  L. Wittmann, M. Mueller
   Ed Valeev, F. Pavosevic, A. Kumar             : LibInt (2-el integral package), F12 methods
   Garnet Chan, S. Sharma, J. Yang, R. Olivares  : DMRG
   Ulf Ekstrom                                   : XCFun DFT Library
   Mihaly Kallay                                 : mrcc  (arbitrary order and MRCC methods)
   Frank Weinhold                                : gennbo (NPA and NBO analysis)
   Simon Mueller                                 : openCOSMO-RS
   Christopher J. Cramer and Donald G. Truhlar   : smd solvation model
   Lars Goerigk                                  : TD-DFT with DH, B97 family of functionals
   V. Asgeirsson, H. Jonsson                     : NEB implementation
   FAccTs GmbH                                   : IRC, NEB, NEB-TS, DLPNO-Multilevel, CI-OPT
                                                   MM, QMMM, 2- and 3-layer-ONIOM, Crystal-QMMM,
                                                   LR-CPCM, SF, NACMEs, symmetry and pop. for TD-DFT,
                                                   nearIR, NL-DFT gradient (VV10), updates on ESD,
                                                   ML-optimized integration grids, MBIS, APM,
                                                   GOAT, DOCKER, SOLVATOR, interface openCOSMO-RS
   S Lehtola, MJT Oliveira, MAL Marques          : LibXC Library
   Liviu Ungur et al                             : ANISO software


 Your calculation uses the libint2 library for the computation of 2-el integrals
 For citations please refer to: http://libint.valeyev.net

 Your ORCA version has been built with support for libXC version: 6.2.2
 For citations please refer to: https://libxc.gitlab.io

 This ORCA versions uses:
   CBLAS   interface :  Fast vector & matrix operations
   LAPACKE interface :  Fast linear algebra routines
   SCALAPACK package :  Parallel linear algebra routines
   Shared memory     :  Shared parallel matrices
   BLAS/LAPACK       :  OpenBLAS 0.3.27  USE64BITINT DYNAMIC_ARCH NO_AFFINITY SkylakeX SINGLE_THREADED
        Core in use  :  SkylakeX
   Copyright (c) 2011-2014, The OpenBLAS Project




***************************************
The coordinates will be read from file: censo.xyz
***************************************


Your calculation utilizes the geometrical counterpoise correction gCP
Please cite in your paper:
H.Kruse, S. Grimme J.Chem.Phys., 136, (2012), 154101 
   

Your calculation utilizes the atom-pairwise dispersion correction
based on EEQ partial charges (D4)


================================================================================

----- Orbital basis set information -----
Your calculation utilizes the basis: def2-TZVP
   F. Weigend and R. Ahlrichs, Phys. Chem. Chem. Phys. 7, 3297 (2005).

----- AuxJ basis set information -----
Your calculation utilizes the basis: def2-mTZVPP/J
   Stefan Grimme, Andreas Hansen, Sebastian Ehlert, and Jan-Michael Mewes 
   J. Chem. Phys. 154, 000000 (2021). DOI: 10.1063/5.0040021

================================================================================
                                        WARNINGS
                       Please study these warnings very carefully!
================================================================================

Using LibXC functional ID 497 : Re-regularized SCAN exchange by Furness et al
[ 1]  J. W. Furness, A. D. Kaplan, J. Ning, J. P. Perdew, and J. Sun.,  J. Phys. Chem. Lett. 11, 8208-8215 (2020)
[ 2]  J. W. Furness, A. D. Kaplan, J. Ning, J. P. Perdew, and J. Sun.,  J. Phys. Chem. Lett. 11, 9248-9248 (2020)
Using LibXC functional ID 498 : Re-regularized SCAN correlation by Furness et al
[ 1]  J. W. Furness, A. D. Kaplan, J. Ning, J. P. Perdew, and J. Sun.,  J. Phys. Chem. Lett. 11, 8208-8215 (2020)
[ 2]  J. W. Furness, A. D. Kaplan, J. Ning, J. P. Perdew, and J. Sun.,  J. Phys. Chem. Lett. 11, 9248-9248 (2020)
Using LibXC functional ID 497 : Re-regularized SCAN exchange by Furness et al
[ 1]  J. W. Furness, A. D. Kaplan, J. Ning, J. P. Perdew, and J. Sun.,  J. Phys. Chem. Lett. 11, 8208-8215 (2020)
[ 2]  J. W. Furness, A. D. Kaplan, J. Ning, J. P. Perdew, and J. Sun.,  J. Phys. Chem. Lett. 11, 9248-9248 (2020)
Using LibXC functional ID 498 : Re-regularized SCAN correlation by Furness et al
[ 1]  J. W. Furness, A. D. Kaplan, J. Ning, J. P. Perdew, and J. Sun.,  J. Phys. Chem. Lett. 11, 8208-8215 (2020)
[ 2]  J. W. Furness, A. D. Kaplan, J. Ning, J. P. Perdew, and J. Sun.,  J. Phys. Chem. Lett. 11, 9248-9248 (2020)

================================================================================
                                       INPUT FILE
================================================================================
NAME = censo.inp
|  1> ! r2SCAN-3c DEF2-TZVP FREQ
|  2> * xyzfile 0 1 censo.xyz
|  3> 
|  4>                          ****END OF INPUT****
================================================================================

                       ****************************
                       * Single Point Calculation *
                       ****************************

---------------------------------
CARTESIAN COORDINATES (ANGSTROEM)
---------------------------------
  C      3.351990    1.444871   -0.000308
  C      2.023399    1.861551    0.000978
  C      0.999796    0.929357    0.002062
  C      1.294088   -0.432566    0.001929
  C      2.609492   -0.869040    0.000457
  C      3.621931    0.083594   -0.000610
  Cl     5.292273   -0.464592   -0.002413
  O      0.305051   -1.399577    0.003421
  C     -0.999804   -0.929368    0.002067
  C     -2.023408   -1.861562    0.000987
  C     -3.351998   -1.444880   -0.000285
  C     -3.621940   -0.083603   -0.000576
  C     -2.609500    0.869030    0.000486
  C     -1.294096    0.432555    0.001944
  O     -0.305059    1.399566    0.003432
  Cl    -5.292281    0.464582   -0.002361
  H      4.153043    2.173920   -0.001090
  H      1.775160    2.917449    0.001208
  H      2.819378   -1.932308    0.000248
  H     -1.775170   -2.917460    0.001210
  H     -4.153052   -2.173929   -0.001064
  H     -2.819384    1.932298    0.000285

----------------------------
CARTESIAN COORDINATES (A.U.)
----------------------------
  NO LB      ZA    FRAG     MASS         X           Y           Z
   0 C     6.0000    0    12.011    6.334342    2.730410   -0.000582
   1 C     6.0000    0    12.011    3.823670    3.517822    0.001848
   2 C     6.0000    0    12.011    1.889341    1.756231    0.003897
   3 C     6.0000    0    12.011    2.445471   -0.817431    0.003646
   4 C     6.0000    0    12.011    4.931225   -1.642247    0.000863
   5 C     6.0000    0    12.011    6.844458    0.157969   -0.001152
   6 Cl   17.0000    0    35.453   10.000946   -0.877951   -0.004560
   7 O     8.0000    0    15.999    0.576462   -2.644817    0.006465
   8 C     6.0000    0    12.011   -1.889356   -1.756251    0.003906
   9 C     6.0000    0    12.011   -3.823687   -3.517842    0.001865
  10 C     6.0000    0    12.011   -6.334358   -2.730428   -0.000538
  11 C     6.0000    0    12.011   -6.844474   -0.157987   -0.001089
  12 C     6.0000    0    12.011   -4.931240    1.642228    0.000917
  13 C     6.0000    0    12.011   -2.445486    0.817410    0.003673
  14 O     8.0000    0    15.999   -0.576478    2.644797    0.006486
  15 Cl   17.0000    0    35.453  -10.000961    0.877933   -0.004461
  16 H     1.0000    0     1.008    7.848114    4.108113   -0.002060
  17 H     1.0000    0     1.008    3.354567    5.513179    0.002283
  18 H     1.0000    0     1.008    5.327852   -3.651532    0.000469
  19 H     1.0000    0     1.008   -3.354586   -5.513200    0.002287
  20 H     1.0000    0     1.008   -7.848130   -4.108130   -0.002011
  21 H     1.0000    0     1.008   -5.327864    3.651514    0.000539

--------------------------------
INTERNAL COORDINATES (ANGSTROEM)
--------------------------------
 C      0   0   0     0.000000000000     0.00000000     0.00000000
 C      1   0   0     1.392399708797     0.00000000     0.00000000
 C      2   1   0     1.384467338885   120.26316469     0.00000000
 C      3   2   1     1.393356221595   120.13076821     0.00000000
 C      4   3   2     1.385929330924   120.55003336     0.00000000
 C      1   2   3     1.387783789431   118.62902100     0.00000000
 Cl     6   1   2     1.757996598936   119.38544207   179.99302646
 O      4   3   2     1.383223458057   122.16153966   179.97864504
 C      8   4   3     1.386991483149   115.82823492     0.13735236
 C      9   8   4     1.384467309417   117.85916556   179.88328942
 C     10   9   8     1.392399708283   120.26315194   179.99485889
 C     11  10   9     1.387783740435   118.62906465     0.00000000
 C     12  11  10     1.390159994041   122.04046589     0.00000000
 C     13  12  11     1.385929369809   118.38650917     0.00000000
 O     14  13  12     1.383223302135   117.28839971   180.02110879
 Cl    12  11  10     1.757996013364   119.38545093   179.99309012
 H      1   2   3     1.083143319813   120.28152549   180.00407503
 H      2   1   3     1.084685480974   120.64261246   179.99607684
 H      5   4   3     1.083785404877   119.52320470   180.00777520
 H     10   9   8     1.084685685321   119.09428470     0.00000000
 H     11  10   9     1.083143284672   120.28150985   180.00402303
 H     13  12  11     1.083785597067   122.09035465   180.00165788

---------------------------
INTERNAL COORDINATES (A.U.)
---------------------------
 C      0   0   0     0.000000000000     0.00000000     0.00000000
 C      1   0   0     2.631254118578     0.00000000     0.00000000
 C      2   1   0     2.616264111851   120.26316469     0.00000000
 C      3   2   1     2.633061665810   120.13076821     0.00000000
 C      4   3   2     2.619026876415   120.55003336     0.00000000
 C      1   2   3     2.622531295121   118.62902100     0.00000000
 Cl     6   1   2     3.322132116353   119.38544207   179.99302646
 O      4   3   2     2.613913517744   122.16153966   179.97864504
 C      8   4   3     2.621034053232   115.82823492     0.13735236
 C      9   8   4     2.616264056165   117.85916556   179.88328942
 C     10   9   8     2.631254117606   120.26315194   179.99485889
 C     11  10   9     2.622531202530   118.62906465     0.00000000
 C     12  11  10     2.627021671071   122.04046589     0.00000000
 C     13  12  11     2.619026949896   118.38650917     0.00000000
 O     14  13  12     2.613913223092   117.28839971   180.02110879
 Cl    12  11  10     3.322131009782   119.38545093   179.99309012
 H      1   2   3     2.046844238232   120.28152549   180.00407503
 H      2   1   3     2.049758500482   120.64261246   179.99607684
 H      5   4   3     2.048057603158   119.52320470   180.00777520
 H     10   9   8     2.049758886642   119.09428470     0.00000000
 H     11  10   9     2.046844171826   120.28150985   180.00402303
 H     13  12  11     2.048057966345   122.09035465   180.00165788

---------------------
BASIS SET INFORMATION
---------------------
There are 4 groups of distinct atoms

 Group   1 Type C   : 11s6p2d1f contracted to 5s3p2d1f pattern {62111/411/11/1}
 Group   2 Type Cl  : 14s9p3d1f contracted to 5s5p2d1f pattern {73211/51111/21/1}
 Group   3 Type O   : 11s6p2d1f contracted to 5s3p2d1f pattern {62111/411/11/1}
 Group   4 Type H   : 5s1p contracted to 3s1p pattern {311/1}

Atom   0C    basis set group =>   1
Atom   1C    basis set group =>   1
Atom   2C    basis set group =>   1
Atom   3C    basis set group =>   1
Atom   4C    basis set group =>   1
Atom   5C    basis set group =>   1
Atom   6Cl   basis set group =>   2
Atom   7O    basis set group =>   3
Atom   8C    basis set group =>   1
Atom   9C    basis set group =>   1
Atom  10C    basis set group =>   1
Atom  11C    basis set group =>   1
Atom  12C    basis set group =>   1
Atom  13C    basis set group =>   1
Atom  14O    basis set group =>   3
Atom  15Cl   basis set group =>   2
Atom  16H    basis set group =>   4
Atom  17H    basis set group =>   4
Atom  18H    basis set group =>   4
Atom  19H    basis set group =>   4
Atom  20H    basis set group =>   4
Atom  21H    basis set group =>   4
---------------------------------
AUXILIARY/J BASIS SET INFORMATION
---------------------------------
There are 4 groups of distinct atoms

 Group   1 Type C   : 8s3p3d contracted to 6s3p3d pattern {311111/111/111}
 Group   2 Type Cl  : 14s5p5d2f contracted to 8s4p3d1f pattern {71111111/2111/311/2}
 Group   3 Type O   : 8s3p3d contracted to 6s3p3d pattern {311111/111/111}
 Group   4 Type H   : 5s2p1d contracted to 3s1p1d pattern {311/2/1}

Atom   0C    basis set group =>   1
Atom   1C    basis set group =>   1
Atom   2C    basis set group =>   1
Atom   3C    basis set group =>   1
Atom   4C    basis set group =>   1
Atom   5C    basis set group =>   1
Atom   6Cl   basis set group =>   2
Atom   7O    basis set group =>   3
Atom   8C    basis set group =>   1
Atom   9C    basis set group =>   1
Atom  10C    basis set group =>   1
Atom  11C    basis set group =>   1
Atom  12C    basis set group =>   1
Atom  13C    basis set group =>   1
Atom  14O    basis set group =>   3
Atom  15Cl   basis set group =>   2
Atom  16H    basis set group =>   4
Atom  17H    basis set group =>   4
Atom  18H    basis set group =>   4
Atom  19H    basis set group =>   4
Atom  20H    basis set group =>   4
Atom  21H    basis set group =>   4
------------------------------------------------------------------------------
                             ORCA STARTUP CALCULATIONS
                           -- RI-GTO INTEGRALS CHOSEN --
------------------------------------------------------------------------------
------------------------------------------------------------------------------
                   ___                                                        
                  /   \      - P O W E R E D   B Y -                         
                 /     \                                                     
                 |  |  |   _    _      __       _____    __    __             
                 |  |  |  | |  | |    /  \     |  _  \  |  |  /  |          
                  \  \/   | |  | |   /    \    | | | |  |  | /  /          
                 / \  \   | |__| |  /  /\  \   | |_| |  |  |/  /          
                |  |  |   |  __  | /  /__\  \  |    /   |      \           
                |  |  |   | |  | | |   __   |  |    \   |  |\   \          
                \     /   | |  | | |  |  |  |  | |\  \  |  | \   \       
                 \___/    |_|  |_| |__|  |__|  |_| \__\ |__|  \__/        
                                                                              
                      - O R C A' S   B I G   F R I E N D -                    
                                      &                                       
                       - I N T E G R A L  F E E D E R -                       
                                                                              
 v1 FN, 2020, v2 2021, v3 2022-2024                                           
------------------------------------------------------------------------------


----------------------
SHARK INTEGRAL PACKAGE
----------------------

Number of atoms                             ...     22
Number of basis functions                   ...    544
Number of shells                            ...    204
Maximum angular momentum                    ...      3
Integral batch strategy                     ... SHARK/LIBINT Hybrid
RI-J (if used) integral strategy            ... SPLIT-RIJ (Revised 2003 algorithm where possible)
Printlevel                                  ...      1
Contraction scheme used                     ... SEGMENTED contraction
Prescreening option                         ... SCHWARTZ
   Thresh                                   ... 1.000e-10
   Tcut                                     ... 1.000e-11
   Tpresel                                  ... 1.000e-11 
Coulomb Range Separation                    ... NOT USED
Exchange Range Separation                   ... NOT USED
Multipole approximations                    ... NOT USED
Finite Nucleus Model                        ... NOT USED
CABS basis                                  ... NOT available
Auxiliary Coulomb fitting basis             ... AVAILABLE
   # of basis functions in Aux-J            ...    570
   # of shells in Aux-J                     ...    230
   Maximum angular momentum in Aux-J        ...      3
Auxiliary J/K fitting basis                 ... NOT available
Auxiliary Correlation fitting basis         ... NOT available
Auxiliary 'external' fitting basis          ... NOT available

Checking pre-screening integrals            ... done (  0.0 sec) Dimension = 204
Check shell pair data                       ... done (  0.0 sec)
Shell pair information
Shell pair cut-off parameter TPreSel        ...   1.0e-11
Total number of shell pairs                 ...     20910
Shell pairs after pre-screening             ...     15752
Total number of primitive shell pairs       ...     69033
Primitive shell pairs kept                  ...     34969
          la=0 lb=0:   3432 shell pairs
          la=1 lb=0:   4386 shell pairs
          la=1 lb=1:   1398 shell pairs
          la=2 lb=0:   2348 shell pairs
          la=2 lb=1:   1474 shell pairs
          la=2 lb=2:    403 shell pairs
          la=3 lb=0:   1112 shell pairs
          la=3 lb=1:    708 shell pairs
          la=3 lb=2:    386 shell pairs
          la=3 lb=3:    105 shell pairs

Calculating one electron integrals          ... done (  0.1 sec)
Calculating RI/J V-Matrix + Cholesky decomp.... done (  0.1 sec)
Calculating Nuclear repulsion               ... done (  0.0 sec) ENN=   1183.267079344620 Eh

Diagonalization of the overlap matrix:
Smallest eigenvalue                        ... 5.670e-06
Time for diagonalization                   ...    0.038 sec
Threshold for overlap eigenvalues          ... 1.000e-07
Number of eigenvalues below threshold      ... 0
Time for construction of square roots      ...    0.063 sec
Total time needed                          ...    0.113 sec

-------------------
DFT GRID GENERATION
-------------------

General Integration Accuracy     IntAcc      ... 4.388
Radial Grid Type                 RadialGrid  ... OptM3 with GC (2021)
Angular Grid (max. ang.)         AngularGrid ... 4 (Lebedev-302)
Angular grid pruning method      GridPruning ... 4 (adaptive)
Weight generation scheme         WeightScheme... mBecke (2022)
Basis function cutoff            BFCut       ... 1.0000e-10
Integration weight cutoff        WCut        ... 1.0000e-14
Partially contracted basis set               ... off
Rotationally invariant grid construction     ... off
Angular grids for H and He will be reduced by one unit

Total number of grid points                  ...   117760
Total number of batches                      ...     1850
Average number of points per batch           ...       63
Average number of grid points per atom       ...     5353
Initializing property integral containers    ... done (  0.0 sec)

SHARK setup successfully completed in   2.4 seconds

Maximum memory used throughout the entire STARTUP-calculation: 84.8 MB
-------------------------------------------------------------------------------
                                 ORCA GUESS
                   Start orbitals & Density for SCF / CASSCF
-------------------------------------------------------------------------------

------------
SCF SETTINGS
------------
Hamiltonian:
 Density Functional     Method          .... DFT(GTOs)
  Functional kind                       .... Exchange
  Functional name                       .... Re-regularized SCAN exchange by Furness et al
  Functional family                     .... MGGA
  Functional refs                              
    [ 0] J. W. Furness, A. D. Kaplan, J. Ning, J. P. Perdew, and J. Sun.,  J. Phys. Chem. Lett. 11, 8208-8215 (2020), doi: 10.1021/acs.jpclett.0c02405
    [ 1] J. W. Furness, A. D. Kaplan, J. Ning, J. P. Perdew, and J. Sun.,  J. Phys. Chem. Lett. 11, 9248-9248 (2020), doi: 10.1021/acs.jpclett.0c03077
  Functional external parameters        .... 6
    Parameter  0 _c1        =  6.670000e-01 : c1 parameter        
    Parameter  1 _c2        =  8.000000e-01 : c2 parameter        
    Parameter  2 _d         =  1.240000e+00 : d parameter         
    Parameter  3 _k1        =  6.500000e-02 : k1 parameter        
    Parameter  4 _eta       =  1.000000e-03 : eta parameter       
    Parameter  5 _dp2       =  3.610000e-01 : dp2 parameter       
  Functional kind                       .... Correlation
  Functional name                       .... Re-regularized SCAN correlation by Furness et al
  Functional family                     .... MGGA
  Functional refs                              
    [ 0] J. W. Furness, A. D. Kaplan, J. Ning, J. P. Perdew, and J. Sun.,  J. Phys. Chem. Lett. 11, 8208-8215 (2020), doi: 10.1021/acs.jpclett.0c02405
    [ 1] J. W. Furness, A. D. Kaplan, J. Ning, J. P. Perdew, and J. Sun.,  J. Phys. Chem. Lett. 11, 9248-9248 (2020), doi: 10.1021/acs.jpclett.0c03077
  Functional external parameters        .... 1
    Parameter  0 _eta       =  1.000000e-03 : Regularization parameter
 Gradients option       PostSCFGGA      .... off
 RI-approximation to the Coulomb term is turned on
   Number of AuxJ basis functions       .... 570


General Settings:
 Integral files         IntName         .... censo
 Hartree-Fock type      HFTyp           .... RHF
 Total Charge           Charge          ....    0
 Multiplicity           Mult            ....    1
 Number of Electrons    NEL             ....  128
 Basis Dimension        Dim             ....  544
 Nuclear Repulsion      ENuc            ....   1183.2670793446 Eh

Convergence Acceleration:
 AO-DIIS                CNVDIIS         .... on
   Start iteration      DIISMaxIt       ....    12
   Startup error        DIISStart       ....  0.200000
   # of expansion vecs  DIISMaxEq       ....     5
   Bias factor          DIISBfac        ....   1.050
   Max. coefficient     DIISMaxC        ....  10.000
 MO-DIIS                CNVKDIIS        .... off
 Trust-Rad. Augm. Hess. CNVTRAH         .... auto
   Auto Start mean grad. ratio tolernc. ....  1.125000
   Auto Start start iteration           ....    50
   Auto Start num. interpolation iter.  ....    10
   Max. Number of Micro iterations      ....    24
   Max. Number of Macro iterations      .... Maxiter - #DIIS iter
   Number of Davidson start vectors     ....     2
   Converg. threshold    (grad. norm)   ....   5.000e-05
   Grad. Scal. Fac. for Micro threshold ....   0.100
   Minimum threshold for Micro iter.    ....   1.000e-02
   NR start threshold (gradient norm)   ....   1.000e-04
   Initial trust radius                 ....   0.400
   Minimum AH scaling param. (alpha)    ....   1.000
   Maximum AH scaling param. (alpha)    .... 1000.000
   Quad. conv. algorithm                .... NR
   White noise on init. David. guess    .... on
   Maximum white noise                  ....   0.010
   Pseudo random numbers                .... off
   Inactive MOs                         .... canonical
   Orbital update algorithm             .... Taylor
   Preconditioner                       .... Diag
   Full preconditioner red. dimension   ....   250
   COSX micro iterations for RIJONX calc.... off
 SOSCF                  CNVSOSCF        .... on
   Start iteration      SOSCFMaxIt      ....   150
   Startup grad/error   SOSCFStart      ....  0.003300
   Hessian update       SOSCFHessUp     .... L-BFGS
 Level Shifting         CNVShift        .... on
   Level shift para.    LevelShift      ....    0.2500
   Turn off err/grad.   ShiftErr        ....    0.0010
 Zerner damping         CNVZerner       .... off
 Static damping         CNVDamp         .... on
   Fraction old density DampFac         ....    0.7000
   Max. Damping (<1)    DampMax         ....    0.9800
   Min. Damping (>=0)   DampMin         ....    0.0000
   Turn off err/grad.   DampErr         ....    0.1000

SCF Procedure:
 Maximum # iterations   MaxIter         ....   125
 SCF integral mode      SCFMode         .... Direct
   Integral package                     .... SHARK and LIBINT hybrid scheme
 Reset frequency        DirectResetFreq ....    20
 Integral Threshold     Thresh          ....  1.000e-10 Eh
 Primitive CutOff       TCut            ....  1.000e-11 Eh

Convergence Tolerance:
 Convergence Check Mode ConvCheckMode   .... Total+1el-Energy
 Convergence forced     ConvForced      .... 0
 Energy Change          TolE            ....  1.000e-06 Eh
 1-El. energy change                    ....  1.000e-03 Eh
 Orbital Gradient       TolG            ....  5.000e-05
 Orbital Rotation angle TolX            ....  5.000e-05
 DIIS Error             TolErr          ....  1.000e-06

------------------------------
INITIAL GUESS: MODEL POTENTIAL
------------------------------
Loading Hartree-Fock densities                     ... done
Calculating cut-offs                               ... done
Initializing the effective Hamiltonian             ... done
Setting up the integral package (SHARK)            ... done
Starting the Coulomb interaction                   ... done (   1.2 sec)
Making the grid                                    ... done (   0.4 sec)
Mapping shells                                     ... done
Starting the XC term evaluation                    ... done (   1.1 sec)
  promolecular density results
     # of electrons  =    128.004472379
     EX              =   -134.298586780
     EC              =     -4.533396436
     EX+EC           =   -138.831983216
Transforming the Hamiltonian                       ... done (   0.0 sec)
Diagonalizing the Hamiltonian                      ... done (   0.0 sec)
Back transforming the eigenvectors                 ... done (   0.0 sec)
Now organizing SCF variables                       ... done
                      ------------------
                      INITIAL GUESS DONE (   2.9 sec)
                      ------------------
             **** ENERGY FILE WAS UPDATED (censo.en.tmp) ****
Finished Guess after   3.3 sec
Maximum memory used throughout the entire GUESS-calculation: 62.4 MB

-------------------------------------------------------------------------------------------
                                      ORCA LEAN-SCF
                              memory conserving SCF solver
-------------------------------------------------------------------------------------------

----------------------------------------D-I-I-S--------------------------------------------
Iteration    Energy (Eh)           Delta-E    RMSDP     MaxDP     DIISErr   Damp  Time(sec)
-------------------------------------------------------------------------------------------
               ***  Starting incremental Fock matrix formation  ***
    1    -1531.3658368800618064     0.00e+00  1.09e-03  3.04e-02  1.39e-01  0.700   9.6
    2    -1531.4831954931548808    -1.17e-01  8.46e-04  2.62e-02  6.89e-02  0.700   8.3
                               ***Turning on AO-DIIS***
    3    -1531.5279426019026232    -4.47e-02  5.25e-04  2.30e-02  2.93e-02  0.700   8.0
    4    -1531.5550586985098107    -2.71e-02  1.22e-03  6.29e-02  1.72e-02  0.000   7.8
    5    -1531.6151397267437915    -6.01e-02  1.98e-04  1.02e-02  5.92e-03  0.000   7.9
                              *** Initializing SOSCF ***
---------------------------------------S-O-S-C-F--------------------------------------
Iteration    Energy (Eh)           Delta-E    RMSDP     MaxDP     MaxGrad    Time(sec)
--------------------------------------------------------------------------------------
    6    -1531.6155260156208442    -3.86e-04  7.20e-05  3.09e-03  1.40e-03     7.4
               *** Restarting incremental Fock matrix formation ***
    7    -1531.6155540505540102    -2.80e-05  7.39e-05  3.78e-03  4.86e-04     9.4
    8    -1531.6155326373097978     2.14e-05  2.77e-05  1.37e-03  9.52e-04     6.7
    9    -1531.6155640292538465    -3.14e-05  1.52e-05  5.79e-04  1.71e-04     6.7
   10    -1531.6155607497273650     3.28e-06  6.12e-06  2.47e-04  3.94e-04     6.4
   11    -1531.6155647062857952    -3.96e-06  1.11e-05  4.98e-04  2.15e-05     6.3
   12    -1531.6155647222219613    -1.59e-08  3.45e-06  1.65e-04  3.54e-05     6.0
                 **** Energy Check signals convergence ****

               *****************************************************
               *                     SUCCESS                       *
               *           SCF CONVERGED AFTER  12 CYCLES          *
               *****************************************************

             **** ENERGY FILE WAS UPDATED (censo.en.tmp) ****

----------------
TOTAL SCF ENERGY
----------------

Total Energy       :      -1531.61556472222196 Eh          -41677.37835 eV

Components:
Nuclear Repulsion  :       1183.26707934461979 Eh           32198.33416 eV
Electronic Energy  :      -2714.88264406684175 Eh          -73875.71251 eV
One Electron Energy:      -4451.71993019515321 Eh         -121137.45781 eV
Two Electron Energy:       1736.83728612831146 Eh           47261.74530 eV

Virial components:
Potential Energy   :      -3059.11490520150437 Eh          -83242.74855 eV
Kinetic Energy     :       1527.49934047928264 Eh           41565.37020 eV
Virial Ratio       :          2.00269474698539

DFT components:
N(Alpha)           :       64.000030443867 electrons
N(Beta)            :       64.000030443867 electrons
N(Total)           :      128.000060887734 electrons
E(X)               :     -136.365249283782 Eh       
E(C)               :       -4.452528562348 Eh       
E(XC)              :     -140.817777846130 Eh       

---------------
SCF CONVERGENCE
---------------

  Last Energy change         ...    1.5936e-08  Tolerance :   1.0000e-06
  Last MAX-Density change    ...    1.6477e-04  Tolerance :   1.0000e-05
  Last RMS-Density change    ...    3.4529e-06  Tolerance :   1.0000e-06
  Last DIIS Error            ...    1.4043e-03  Tolerance :   1.0000e-06
  Last Orbital Gradient      ...    3.5369e-05  Tolerance :   5.0000e-05
  Last Orbital Rotation      ...    8.1259e-05  Tolerance :   5.0000e-05


----------------
ORBITAL ENERGIES
----------------

  NO   OCC          E(Eh)            E(eV) 
   0   2.0000    -101.197401     -2753.7213 
   1   2.0000    -101.197400     -2753.7213 
   2   2.0000     -19.029894      -517.8298 
   3   2.0000     -19.029882      -517.8294 
   4   2.0000     -10.127654      -275.5875 
   5   2.0000     -10.127653      -275.5875 
   6   2.0000     -10.123169      -275.4654 
   7   2.0000     -10.123167      -275.4654 
   8   2.0000     -10.112911      -275.1863 
   9   2.0000     -10.112910      -275.1863 
  10   2.0000     -10.064036      -273.8563 
  11   2.0000     -10.064036      -273.8563 
  12   2.0000     -10.063558      -273.8433 
  13   2.0000     -10.063558      -273.8433 
  14   2.0000     -10.060674      -273.7649 
  15   2.0000     -10.060674      -273.7648 
  16   2.0000      -9.373229      -255.0585 
  17   2.0000      -9.373228      -255.0585 
  18   2.0000      -7.118191      -193.6958 
  19   2.0000      -7.118191      -193.6958 
  20   2.0000      -7.108132      -193.4221 
  21   2.0000      -7.108131      -193.4221 
  22   2.0000      -7.107767      -193.4122 
  23   2.0000      -7.107767      -193.4122 
  24   2.0000      -1.091670       -29.7058 
  25   2.0000      -1.058781       -28.8109 
  26   2.0000      -0.876746       -23.8575 
  27   2.0000      -0.864211       -23.5164 
  28   2.0000      -0.824773       -22.4432 
  29   2.0000      -0.803113       -21.8538 
  30   2.0000      -0.762132       -20.7387 
  31   2.0000      -0.744553       -20.2603 
  32   2.0000      -0.718633       -19.5550 
  33   2.0000      -0.700002       -19.0480 
  34   2.0000      -0.642524       -17.4840 
  35   2.0000      -0.624167       -16.9844 
  36   2.0000      -0.599537       -16.3142 
  37   2.0000      -0.575074       -15.6486 
  38   2.0000      -0.548822       -14.9342 
  39   2.0000      -0.509039       -13.8516 
  40   2.0000      -0.492838       -13.4108 
  41   2.0000      -0.465988       -12.6802 
  42   2.0000      -0.463070       -12.6008 
  43   2.0000      -0.462665       -12.5898 
  44   2.0000      -0.438732       -11.9385 
  45   2.0000      -0.436916       -11.8891 
  46   2.0000      -0.428893       -11.6708 
  47   2.0000      -0.401452       -10.9241 
  48   2.0000      -0.398524       -10.8444 
  49   2.0000      -0.392838       -10.6897 
  50   2.0000      -0.389841       -10.6081 
  51   2.0000      -0.385848       -10.4994 
  52   2.0000      -0.366369        -9.9694 
  53   2.0000      -0.365181        -9.9371 
  54   2.0000      -0.365036        -9.9331 
  55   2.0000      -0.325848        -8.8668 
  56   2.0000      -0.324311        -8.8250 
  57   2.0000      -0.295662        -8.0454 
  58   2.0000      -0.293471        -7.9857 
  59   2.0000      -0.292985        -7.9725 
  60   2.0000      -0.262345        -7.1388 
  61   2.0000      -0.254981        -6.9384 
  62   2.0000      -0.234816        -6.3897 
  63   2.0000      -0.197594        -5.3768 
  64   0.0000      -0.062934        -1.7125 
  65   0.0000      -0.058811        -1.6003 
  66   0.0000      -0.056184        -1.5289 
  67   0.0000      -0.022083        -0.6009 
  68   0.0000      -0.015225        -0.4143 
  69   0.0000      -0.008107        -0.2206 
  70   0.0000       0.029525         0.8034 
  71   0.0000       0.070986         1.9316 
  72   0.0000       0.079020         2.1503 
  73   0.0000       0.085215         2.3188 
  74   0.0000       0.093601         2.5470 
*Only the first 10 virtual orbitals were printed.

                    ********************************
                    * MULLIKEN POPULATION ANALYSIS *
                    ********************************

-----------------------
MULLIKEN ATOMIC CHARGES
-----------------------
   0 C :   -0.160099
   1 C :   -0.228328
   2 C :    0.214661
   3 C :    0.281313
   4 C :   -0.360798
   5 C :    0.236883
   6 Cl:   -0.115674
   7 O :   -0.243932
   8 C :    0.214717
   9 C :   -0.228433
  10 C :   -0.160050
  11 C :    0.236860
  12 C :   -0.360748
  13 C :    0.281283
  14 O :   -0.243929
  15 Cl:   -0.115675
  16 H :    0.128667
  17 H :    0.120871
  18 H :    0.126448
  19 H :    0.120856
  20 H :    0.128662
  21 H :    0.126445
Sum of atomic charges:   -0.0000000

--------------------------------
MULLIKEN REDUCED ORBITAL CHARGES
--------------------------------
  0 C s       :     3.234985  s :     3.234985
      pz      :     0.992954  p :     2.835937
      px      :     0.926310
      py      :     0.916673
      dz2     :     0.003847  d :     0.080379
      dxz     :     0.014700
      dyz     :     0.015469
      dx2y2   :     0.020567
      dxy     :     0.025796
      f0      :     0.001833  f :     0.008798
      f+1     :     0.000740
      f-1     :     0.000695
      f+2     :     0.001297
      f-2     :     0.000175
      f+3     :     0.002138
      f-3     :     0.001919

  1 C s       :     3.341871  s :     3.341871
      pz      :     0.991271  p :     2.808802
      px      :     0.891266
      py      :     0.926265
      dz2     :     0.003601  d :     0.068628
      dxz     :     0.024906
      dyz     :     0.006662
      dx2y2   :     0.014393
      dxy     :     0.019065
      f0      :     0.001862  f :     0.009027
      f+1     :     0.000727
      f-1     :     0.000707
      f+2     :     0.000445
      f-2     :     0.001191
      f+3     :     0.002150
      f-3     :     0.001943

  2 C s       :     3.111867  s :     3.111867
      pz      :     1.005749  p :     2.501803
      px      :     0.657931
      py      :     0.838122
      dz2     :     0.004814  d :     0.154852
      dxz     :     0.044209
      dyz     :     0.025755
      dx2y2   :     0.041676
      dxy     :     0.038400
      f0      :     0.002618  f :     0.016816
      f+1     :     0.001154
      f-1     :     0.000781
      f+2     :     0.001952
      f-2     :     0.001795
      f+3     :     0.004391
      f-3     :     0.004125

  3 C s       :     3.076506  s :     3.076506
      pz      :     0.988499  p :     2.467945
      px      :     0.711987
      py      :     0.767459
      dz2     :     0.005196  d :     0.157201
      dxz     :     0.039205
      dyz     :     0.033966
      dx2y2   :     0.051163
      dxy     :     0.027672
      f0      :     0.002651  f :     0.017035
      f+1     :     0.001024
      f-1     :     0.000928
      f+2     :     0.001281
      f-2     :     0.002586
      f+3     :     0.004847
      f-3     :     0.003718

  4 C s       :     3.422655  s :     3.422655
      pz      :     1.011907  p :     2.857027
      px      :     0.928646
      py      :     0.916475
      dz2     :     0.003885  d :     0.072032
      dxz     :     0.024135
      dyz     :     0.006208
      dx2y2   :     0.017948
      dxy     :     0.019856
      f0      :     0.001879  f :     0.009084
      f+1     :     0.000767
      f-1     :     0.000746
      f+2     :     0.000423
      f-2     :     0.001182
      f+3     :     0.002065
      f-3     :     0.002020

  5 C s       :     3.061442  s :     3.061442
      pz      :     0.995545  p :     2.531852
      px      :     0.737602
      py      :     0.798705
      dz2     :     0.005373  d :     0.157580
      dxz     :     0.029282
      dyz     :     0.028570
      dx2y2   :     0.045822
      dxy     :     0.048532
      f0      :     0.002147  f :     0.012243
      f+1     :     0.001041
      f-1     :     0.000730
      f+2     :     0.001138
      f-2     :     0.001228
      f+3     :     0.003200
      f-3     :     0.002759

  6 Cls       :     5.907874  s :     5.907874
      pz      :     3.918216  p :    11.142962
      px      :     3.323931
      py      :     3.900814
      dz2     :     0.006717  d :     0.059577
      dxz     :     0.018607
      dyz     :     0.002435
      dx2y2   :     0.017236
      dxy     :     0.014582
      f0      :     0.000556  f :     0.005262
      f+1     :     0.000918
      f-1     :     0.000165
      f+2     :     0.000535
      f-2     :     0.000304
      f+3     :     0.001272
      f-3     :     0.001513

  7 O s       :     3.781191  s :     3.781191
      pz      :     1.722151  p :     4.414959
      px      :     1.181865
      py      :     1.510942
      dz2     :     0.004588  d :     0.045510
      dxz     :     0.008234
      dyz     :     0.004758
      dx2y2   :     0.010864
      dxy     :     0.017066
      f0      :     0.000310  f :     0.002272
      f+1     :     0.000391
      f-1     :     0.000198
      f+2     :     0.000107
      f-2     :     0.000225
      f+3     :     0.000501
      f-3     :     0.000539

  8 C s       :     3.111878  s :     3.111878
      pz      :     1.005749  p :     2.501738
      px      :     0.657876
      py      :     0.838113
      dz2     :     0.004813  d :     0.154852
      dxz     :     0.044209
      dyz     :     0.025755
      dx2y2   :     0.041675
      dxy     :     0.038400
      f0      :     0.002618  f :     0.016816
      f+1     :     0.001154
      f-1     :     0.000781
      f+2     :     0.001952
      f-2     :     0.001795
      f+3     :     0.004391
      f-3     :     0.004125

  9 C s       :     3.342010  s :     3.342010
      pz      :     0.991271  p :     2.808768
      px      :     0.891269
      py      :     0.926229
      dz2     :     0.003601  d :     0.068627
      dxz     :     0.024906
      dyz     :     0.006662
      dx2y2   :     0.014392
      dxy     :     0.019065
      f0      :     0.001862  f :     0.009027
      f+1     :     0.000727
      f-1     :     0.000707
      f+2     :     0.000445
      f-2     :     0.001191
      f+3     :     0.002150
      f-3     :     0.001943

 10 C s       :     3.234970  s :     3.234970
      pz      :     0.992954  p :     2.835905
      px      :     0.926278
      py      :     0.916673
      dz2     :     0.003847  d :     0.080378
      dxz     :     0.014700
      dyz     :     0.015469
      dx2y2   :     0.020566
      dxy     :     0.025795
      f0      :     0.001833  f :     0.008798
      f+1     :     0.000740
      f-1     :     0.000695
      f+2     :     0.001297
      f-2     :     0.000175
      f+3     :     0.002138
      f-3     :     0.001919

 11 C s       :     3.061461  s :     3.061461
      pz      :     0.995545  p :     2.531856
      px      :     0.737609
      py      :     0.798702
      dz2     :     0.005374  d :     0.157580
      dxz     :     0.029282
      dyz     :     0.028570
      dx2y2   :     0.045822
      dxy     :     0.048532
      f0      :     0.002147  f :     0.012243
      f+1     :     0.001041
      f-1     :     0.000730
      f+2     :     0.001138
      f-2     :     0.001228
      f+3     :     0.003200
      f-3     :     0.002759

 12 C s       :     3.422629  s :     3.422629
      pz      :     1.011907  p :     2.857003
      px      :     0.928645
      py      :     0.916452
      dz2     :     0.003885  d :     0.072031
      dxz     :     0.024135
      dyz     :     0.006208
      dx2y2   :     0.017947
      dxy     :     0.019856
      f0      :     0.001879  f :     0.009084
      f+1     :     0.000767
      f-1     :     0.000746
      f+2     :     0.000423
      f-2     :     0.001182
      f+3     :     0.002065
      f-3     :     0.002020

 13 C s       :     3.076435  s :     3.076435
      pz      :     0.988499  p :     2.468045
      px      :     0.712068
      py      :     0.767479
      dz2     :     0.005196  d :     0.157201
      dxz     :     0.039205
      dyz     :     0.033966
      dx2y2   :     0.051163
      dxy     :     0.027672
      f0      :     0.002651  f :     0.017035
      f+1     :     0.001024
      f-1     :     0.000928
      f+2     :     0.001281
      f-2     :     0.002586
      f+3     :     0.004847
      f-3     :     0.003718

 14 O s       :     3.781188  s :     3.781188
      pz      :     1.722151  p :     4.414959
      px      :     1.181864
      py      :     1.510944
      dz2     :     0.004588  d :     0.045510
      dxz     :     0.008234
      dyz     :     0.004758
      dx2y2   :     0.010864
      dxy     :     0.017066
      f0      :     0.000310  f :     0.002272
      f+1     :     0.000391
      f-1     :     0.000198
      f+2     :     0.000107
      f-2     :     0.000225
      f+3     :     0.000501
      f-3     :     0.000539

 15 Cls       :     5.907874  s :     5.907874
      pz      :     3.918216  p :    11.142961
      px      :     3.323931
      py      :     3.900814
      dz2     :     0.006717  d :     0.059577
      dxz     :     0.018607
      dyz     :     0.002435
      dx2y2   :     0.017236
      dxy     :     0.014582
      f0      :     0.000556  f :     0.005262
      f+1     :     0.000918
      f-1     :     0.000165
      f+2     :     0.000535
      f-2     :     0.000304
      f+3     :     0.001272
      f-3     :     0.001513

 16 H s       :     0.847567  s :     0.847567
      pz      :     0.005698  p :     0.023766
      px      :     0.009594
      py      :     0.008473

 17 H s       :     0.855570  s :     0.855570
      pz      :     0.005582  p :     0.023558
      px      :     0.004630
      py      :     0.013346

 18 H s       :     0.849951  s :     0.849951
      pz      :     0.005602  p :     0.023602
      px      :     0.004278
      py      :     0.013721

 19 H s       :     0.855586  s :     0.855586
      pz      :     0.005582  p :     0.023558
      px      :     0.004630
      py      :     0.013346

 20 H s       :     0.847572  s :     0.847572
      pz      :     0.005698  p :     0.023766
      px      :     0.009594
      py      :     0.008473

 21 H s       :     0.849954  s :     0.849954
      pz      :     0.005602  p :     0.023602
      px      :     0.004278
      py      :     0.013721



                     *******************************
                     * LOEWDIN POPULATION ANALYSIS *
                     *******************************

----------------------
LOEWDIN ATOMIC CHARGES
----------------------
   0 C :   -0.146366
   1 C :   -0.100813
   2 C :   -0.199135
   3 C :   -0.196159
   4 C :   -0.110534
   5 C :   -0.415739
   6 Cl:    0.375678
   7 O :    0.326631
   8 C :   -0.199135
   9 C :   -0.100814
  10 C :   -0.146366
  11 C :   -0.415740
  12 C :   -0.110534
  13 C :   -0.196160
  14 O :    0.326631
  15 Cl:    0.375679
  16 H :    0.151458
  17 H :    0.156501
  18 H :    0.158478
  19 H :    0.156501
  20 H :    0.151458
  21 H :    0.158479

-------------------------------
LOEWDIN REDUCED ORBITAL CHARGES
-------------------------------
  0 C s       :     2.769050  s :     2.769050
      pz      :     0.906057  p :     2.947709
      px      :     1.022995
      py      :     1.018657
      dz2     :     0.026291  d :     0.385228
      dxz     :     0.045747
      dyz     :     0.051672
      dx2y2   :     0.105892
      dxy     :     0.155625
      f0      :     0.003539  f :     0.044379
      f+1     :     0.003872
      f-1     :     0.004169
      f+2     :     0.008753
      f-2     :     0.001336
      f+3     :     0.012130
      f-3     :     0.010579

  1 C s       :     2.762638  s :     2.762638
      pz      :     0.897591  p :     2.917750
      px      :     1.039050
      py      :     0.981108
      dz2     :     0.025558  d :     0.376092
      dxz     :     0.083830
      dyz     :     0.016455
      dx2y2   :     0.131813
      dxy     :     0.118436
      f0      :     0.003512  f :     0.044334
      f+1     :     0.004550
      f-1     :     0.003437
      f+2     :     0.002728
      f-2     :     0.007712
      f+3     :     0.012090
      f-3     :     0.010305

  2 C s       :     2.706729  s :     2.706729
      pz      :     0.905198  p :     2.754294
      px      :     0.823600
      py      :     1.025496
      dz2     :     0.046270  d :     0.646085
      dxz     :     0.118502
      dyz     :     0.084746
      dx2y2   :     0.194008
      dxy     :     0.202559
      f0      :     0.006558  f :     0.092027
      f+1     :     0.008438
      f-1     :     0.005529
      f+2     :     0.012360
      f-2     :     0.011234
      f+3     :     0.024228
      f-3     :     0.023680

  3 C s       :     2.706606  s :     2.706606
      pz      :     0.891492  p :     2.742045
      px      :     0.913830
      py      :     0.936723
      dz2     :     0.046436  d :     0.654560
      dxz     :     0.106251
      dyz     :     0.105077
      dx2y2   :     0.188019
      dxy     :     0.208776
      f0      :     0.006519  f :     0.092949
      f+1     :     0.006778
      f-1     :     0.007191
      f+2     :     0.008372
      f-2     :     0.015960
      f+3     :     0.027777
      f-3     :     0.020352

  4 C s       :     2.765178  s :     2.765178
      pz      :     0.914433  p :     2.935691
      px      :     1.030482
      py      :     0.990776
      dz2     :     0.026704  d :     0.365328
      dxz     :     0.079300
      dyz     :     0.016494
      dx2y2   :     0.136864
      dxy     :     0.105965
      f0      :     0.003709  f :     0.044337
      f+1     :     0.004713
      f-1     :     0.003503
      f+2     :     0.002741
      f-2     :     0.007906
      f+3     :     0.011277
      f-3     :     0.010487

  5 C s       :     2.783239  s :     2.783239
      pz      :     0.924021  p :     2.949615
      px      :     0.941796
      py      :     1.083798
      dz2     :     0.041895  d :     0.619084
      dxz     :     0.088857
      dyz     :     0.090588
      dx2y2   :     0.204603
      dxy     :     0.193141
      f0      :     0.004407  f :     0.063802
      f+1     :     0.005199
      f-1     :     0.004776
      f+2     :     0.007057
      f-2     :     0.007702
      f+3     :     0.019201
      f-3     :     0.015459

  6 Cls       :     5.560225  s :     5.560225
      pz      :     3.845804  p :    10.956252
      px      :     3.310016
      py      :     3.800432
      dz2     :     0.011538  d :     0.096761
      dxz     :     0.027453
      dyz     :     0.003363
      dx2y2   :     0.029235
      dxy     :     0.025173
      f0      :     0.001193  f :     0.011083
      f+1     :     0.001733
      f-1     :     0.000340
      f+2     :     0.001207
      f-2     :     0.000667
      f+3     :     0.002825
      f-3     :     0.003117

  7 O s       :     3.239815  s :     3.239815
      pz      :     1.594823  p :     4.316323
      px      :     1.231110
      py      :     1.490389
      dz2     :     0.010134  d :     0.110456
      dxz     :     0.021511
      dyz     :     0.009006
      dx2y2   :     0.030859
      dxy     :     0.038946
      f0      :     0.000768  f :     0.006775
      f+1     :     0.000837
      f-1     :     0.000299
      f+2     :     0.000377
      f-2     :     0.000935
      f+3     :     0.001868
      f-3     :     0.001690

  8 C s       :     2.706729  s :     2.706729
      pz      :     0.905198  p :     2.754294
      px      :     0.823600
      py      :     1.025496
      dz2     :     0.046270  d :     0.646085
      dxz     :     0.118502
      dyz     :     0.084746
      dx2y2   :     0.194008
      dxy     :     0.202559
      f0      :     0.006558  f :     0.092027
      f+1     :     0.008438
      f-1     :     0.005529
      f+2     :     0.012360
      f-2     :     0.011234
      f+3     :     0.024228
      f-3     :     0.023680

  9 C s       :     2.762638  s :     2.762638
      pz      :     0.897591  p :     2.917750
      px      :     1.039050
      py      :     0.981108
      dz2     :     0.025558  d :     0.376092
      dxz     :     0.083830
      dyz     :     0.016455
      dx2y2   :     0.131814
      dxy     :     0.118436
      f0      :     0.003512  f :     0.044334
      f+1     :     0.004550
      f-1     :     0.003437
      f+2     :     0.002728
      f-2     :     0.007712
      f+3     :     0.012090
      f-3     :     0.010305

 10 C s       :     2.769050  s :     2.769050
      pz      :     0.906057  p :     2.947709
      px      :     1.022995
      py      :     1.018657
      dz2     :     0.026291  d :     0.385228
      dxz     :     0.045747
      dyz     :     0.051672
      dx2y2   :     0.105892
      dxy     :     0.155625
      f0      :     0.003539  f :     0.044379
      f+1     :     0.003872
      f-1     :     0.004169
      f+2     :     0.008753
      f-2     :     0.001336
      f+3     :     0.012130
      f-3     :     0.010579

 11 C s       :     2.783239  s :     2.783239
      pz      :     0.924021  p :     2.949615
      px      :     0.941796
      py      :     1.083798
      dz2     :     0.041895  d :     0.619084
      dxz     :     0.088857
      dyz     :     0.090588
      dx2y2   :     0.204603
      dxy     :     0.193141
      f0      :     0.004407  f :     0.063802
      f+1     :     0.005199
      f-1     :     0.004776
      f+2     :     0.007057
      f-2     :     0.007702
      f+3     :     0.019201
      f-3     :     0.015459

 12 C s       :     2.765178  s :     2.765178
      pz      :     0.914433  p :     2.935691
      px      :     1.030482
      py      :     0.990776
      dz2     :     0.026704  d :     0.365328
      dxz     :     0.079300
      dyz     :     0.016494
      dx2y2   :     0.136864
      dxy     :     0.105965
      f0      :     0.003709  f :     0.044337
      f+1     :     0.004713
      f-1     :     0.003503
      f+2     :     0.002741
      f-2     :     0.007906
      f+3     :     0.011277
      f-3     :     0.010487

 13 C s       :     2.706606  s :     2.706606
      pz      :     0.891492  p :     2.742045
      px      :     0.913830
      py      :     0.936723
      dz2     :     0.046436  d :     0.654560
      dxz     :     0.106251
      dyz     :     0.105077
      dx2y2   :     0.188019
      dxy     :     0.208776
      f0      :     0.006519  f :     0.092949
      f+1     :     0.006778
      f-1     :     0.007191
      f+2     :     0.008372
      f-2     :     0.015960
      f+3     :     0.027777
      f-3     :     0.020352

 14 O s       :     3.239815  s :     3.239815
      pz      :     1.594823  p :     4.316323
      px      :     1.231111
      py      :     1.490389
      dz2     :     0.010134  d :     0.110456
      dxz     :     0.021511
      dyz     :     0.009006
      dx2y2   :     0.030859
      dxy     :     0.038946
      f0      :     0.000768  f :     0.006775
      f+1     :     0.000837
      f-1     :     0.000299
      f+2     :     0.000377
      f-2     :     0.000935
      f+3     :     0.001868
      f-3     :     0.001690

 15 Cls       :     5.560225  s :     5.560225
      pz      :     3.845804  p :    10.956252
      px      :     3.310016
      py      :     3.800432
      dz2     :     0.011538  d :     0.096762
      dxz     :     0.027453
      dyz     :     0.003363
      dx2y2   :     0.029235
      dxy     :     0.025173
      f0      :     0.001193  f :     0.011083
      f+1     :     0.001733
      f-1     :     0.000340
      f+2     :     0.001207
      f-2     :     0.000667
      f+3     :     0.002825
      f-3     :     0.003117

 16 H s       :     0.786712  s :     0.786712
      pz      :     0.014910  p :     0.061830
      px      :     0.024725
      py      :     0.022195

 17 H s       :     0.782146  s :     0.782146
      pz      :     0.014557  p :     0.061353
      px      :     0.012143
      py      :     0.034654

 18 H s       :     0.779101  s :     0.779101
      pz      :     0.015007  p :     0.062421
      px      :     0.011352
      py      :     0.036062

 19 H s       :     0.782146  s :     0.782146
      pz      :     0.014557  p :     0.061353
      px      :     0.012142
      py      :     0.034654

 20 H s       :     0.786712  s :     0.786712
      pz      :     0.014910  p :     0.061830
      px      :     0.024725
      py      :     0.022195

 21 H s       :     0.779101  s :     0.779101
      pz      :     0.015007  p :     0.062421
      px      :     0.011352
      py      :     0.036062



                      *****************************
                      * MAYER POPULATION ANALYSIS *
                      *****************************

  NA   - Mulliken gross atomic population
  ZA   - Total nuclear charge
  QA   - Mulliken gross atomic charge
  VA   - Mayer's total valence
  BVA  - Mayer's bonded valence
  FA   - Mayer's free valence

  ATOM       NA         ZA         QA         VA         BVA        FA
  0 C      6.1601     6.0000    -0.1601     3.8871     3.8871    -0.0000
  1 C      6.2283     6.0000    -0.2283     3.8614     3.8614    -0.0000
  2 C      5.7853     6.0000     0.2147     3.8573     3.8573    -0.0000
  3 C      5.7187     6.0000     0.2813     3.7859     3.7859     0.0000
  4 C      6.3608     6.0000    -0.3608     3.9201     3.9201    -0.0000
  5 C      5.7631     6.0000     0.2369     3.7332     3.7332    -0.0000
  6 Cl    17.1157    17.0000    -0.1157     1.2049     1.2049    -0.0000
  7 O      8.2439     8.0000    -0.2439     2.1439     2.1439     0.0000
  8 C      5.7853     6.0000     0.2147     3.8571     3.8571     0.0000
  9 C      6.2284     6.0000    -0.2284     3.8613     3.8613    -0.0000
 10 C      6.1600     6.0000    -0.1600     3.8870     3.8870    -0.0000
 11 C      5.7631     6.0000     0.2369     3.7332     3.7332    -0.0000
 12 C      6.3607     6.0000    -0.3607     3.9202     3.9202     0.0000
 13 C      5.7187     6.0000     0.2813     3.7860     3.7860     0.0000
 14 O      8.2439     8.0000    -0.2439     2.1439     2.1439     0.0000
 15 Cl    17.1157    17.0000    -0.1157     1.2049     1.2049    -0.0000
 16 H      0.8713     1.0000     0.1287     0.9822     0.9822    -0.0000
 17 H      0.8791     1.0000     0.1209     0.9900     0.9900     0.0000
 18 H      0.8736     1.0000     0.1264     1.0002     1.0002     0.0000
 19 H      0.8791     1.0000     0.1209     0.9900     0.9900    -0.0000
 20 H      0.8713     1.0000     0.1287     0.9822     0.9822    -0.0000
 21 H      0.8736     1.0000     0.1264     1.0002     1.0002     0.0000

  Mayer bond orders larger than 0.100000
B(  0-C ,  1-C ) :   1.3422 B(  0-C ,  5-C ) :   1.3598 B(  0-C , 16-H ) :   0.9744 
B(  1-C ,  2-C ) :   1.3560 B(  1-C , 17-H ) :   0.9826 B(  2-C ,  3-C ) :   1.3613 
B(  2-C , 14-O ) :   0.9823 B(  3-C ,  4-C ) :   1.3252 B(  3-C ,  7-O ) :   0.9856 
B(  4-C ,  5-C ) :   1.3268 B(  4-C , 18-H ) :   0.9911 B(  5-C ,  6-Cl) :   0.9435 
B(  7-O ,  8-C ) :   0.9823 B(  8-C ,  9-C ) :   1.3558 B(  8-C , 13-C ) :   1.3612 
B(  9-C , 10-C ) :   1.3421 B(  9-C , 19-H ) :   0.9827 B( 10-C , 11-C ) :   1.3598 
B( 10-C , 20-H ) :   0.9744 B( 11-C , 12-C ) :   1.3268 B( 11-C , 15-Cl) :   0.9435 
B( 12-C , 13-C ) :   1.3253 B( 12-C , 21-H ) :   0.9911 B( 13-C , 14-O ) :   0.9856 


-------
TIMINGS
-------

Total SCF time: 0 days 0 hours 1 min 31 sec 

Total time                  ....      91.211 sec
Sum of individual times     ....      90.536 sec  ( 99.3%)

SCF preparation             ....       0.385 sec  (  0.4%)
Fock matrix formation       ....      86.870 sec  ( 95.2%)
  Startup                   ....       0.195 sec  (  0.2% of F)
  Split-RI-J                ....      17.085 sec  ( 19.7% of F)
  XC integration            ....      67.825 sec  ( 78.1% of F)
    XC Preparation          ....       0.000 sec  (  0.0% of XC)
    Basis function eval.    ....       9.759 sec  ( 14.4% of XC)
    Density eval.           ....      22.405 sec  ( 33.0% of XC)
    XC-Functional eval.     ....       3.934 sec  (  5.8% of XC)
    XC-Potential eval.      ....      30.296 sec  ( 44.7% of XC)
Diagonalization             ....       0.000 sec  (  0.0%)
Density matrix formation    ....       0.869 sec  (  1.0%)
Total Energy calculation    ....       0.076 sec  (  0.1%)
Population analysis         ....       0.078 sec  (  0.1%)
Orbital Transformation      ....       0.279 sec  (  0.3%)
Orbital Orthonormalization  ....       0.000 sec  (  0.0%)
DIIS solution               ....       1.120 sec  (  1.2%)
SOSCF solution              ....       0.859 sec  (  0.9%)
Finished LeanSCF after  91.3 sec

Maximum memory used throughout the entire LEANSCF-calculation: 73.2 MB

------------------------------------------------------------------------------
                         ORCA PROPERTY INTEGRAL CALCULATIONS
------------------------------------------------------------------------------

GBWName                                   ... censo.gbw
Number of atoms                           ...     22
Number of basis functions                 ...    544
Max core memory                           ...   1024 MB

Dipole integrals                          ... YES
Quadrupole integrals                      ...  NO
Linear momentum integrals                 ...  NO
Angular momentum integrals                ...  NO
Higher moments length integrals           ...  NO
Higher moments velocity integrals         ...  NO
Kinetic energy integrals                  ...  NO
GIAO right hand sides                     ...  NO
GIAO dipole derivative integrals          ...  NO
SOC integrals                             ...  NO
EPR diamagnetic integrals (GIAO)          ...  NO
EPR gauge integrals                       ...  NO
Field gradient integrals                  ...  NO (   0 nuclei)
Spin-dipole/Fermi contact integrals       ...  NO (   0 nuclei)
Contact density integrals                 ...  NO (   0 nuclei)
Nucleus-orbit integrals                   ...  NO (   0 nuclei)
Geometric perturbations                   ... YES (  22 nuclei)

Choice of electric origin   ... Center of mass
Position of electric origin ... ( -0.0000, -0.0000,  0.0004) 
Choice of magnetic origin   ... GIAO
Position of magnetic origin ... (  0.0000,  0.0000,  0.0000) 

Calculating integrals                     ... Electric Dipole (Length)     done (  0.1 sec)
Calculating integrals                     ... Geometrical perturbation right hand sides

-----------------------
GEOMETRIC PERTURBATIONS (22 nuclei)
-----------------------

MaxCore                            ...   1024 MB
Number of batches                  ...      1

BATCH   0: Atoms    0 -   21 ( 66 perturbations)
   => H(core) and overlap derivative integrals     ... done (     1.8 sec)
   => Making and storing internal U-coefficients   ... done (     1.0 sec)
   => RI-J derivative integrals                    ... done (    24.7 sec)
   => RI-J response operators                      ... done (     6.0 sec)
   => XC derivative integrals                      ... done (   939.7 sec)
   => XC response operators                        ... done (   277.3 sec)
   => Completing and storing right hand sides      ... done (     0.5 sec)
   => Total time for right hand sides = 1256.5 sec

  geometrical perturbations done (1256.5 sec)

Property integrals calculated in 1256.6 sec

Maximum memory used throughout the entire PROPINT-calculation: 517.1 MB


-------------------------------------------------------------------------------
                          DFT DISPERSION CORRECTION                            
                                                                               
                                DFTD4 V3.4.0                                   
-------------------------------------------------------------------------------
The R2SCAN3C composite method is recognized
Using three-body term ABC
Active option DFTDOPT                   ...         5   

-------------------------   ----------------
Dispersion correction           -0.010671322
-------------------------   ----------------

------------------   -----------------
gCP correction             0.008848262
------------------   -----------------

-------------------------   --------------------
FINAL SINGLE POINT ENERGY     -1531.617387782416
-------------------------   --------------------

------------------------------------------------------------------------------
                            ORCA SCF RESPONSE CALCULATION
------------------------------------------------------------------------------

GBWName                                 ... censo.gbw
Number of atoms                         ...     22
Number of basis functions               ...    544
Max core memory                         ...   1024 MB

Electric field perturbation             ...  NO
Quadrupolar field perturbation          ...  NO
Magnetic field perturbation (no GIAO)   ...  NO
Magnetic field perturbation (with GIAO) ...  NO
Linear momentum (velocity) perturbation ...  NO
Spin-orbit coupling perturbation        ...  NO
Choice of electric origin               ... Center of mass
Position of electric origin             ...    -0.000008    -0.000010     0.000380
Choice of magnetic origin               ... GIAO
Position of magnetic origin             ...     0.000000     0.000000     0.000000
Nuclear geometric perturbations         ... YES (  66 perturbations)
Nucleus-orbit perturbations             ...  NO (   0 perturbations)
Spin-dipole/Fermi contact perturbations ...  NO (   0 perturbations)

Total number of real perturbations      ...     66
Total number of imaginary perturbations ...      0
Total number of triplet perturbations   ...      0
Total number of SOC perturbations       ...      0


                                **********************
                                * REAL PERTURBATIONS *
                                **********************



-------------------
SHARK CP-SCF DRIVER
-------------------

Dimension of the orbital basis          ...    544
Dimension of the CPSCF-problem          ...  30720
Number of operators                     ...      1
Max. number of iterations               ...    128
Convergence Tolerance                   ... 1.0e-03
Number of perturbations                 ...     66
Perturbation type                       ... REAL

----------------------------
POPLE LINEAR EQUATION SOLVER
----------------------------

  ITERATION   0:   ||err||_max =   5.3745e-01 ( 102.0 sec   0/ 66 done)
  ITERATION   1:   ||err||_max =   6.7658e-02 ( 108.4 sec   0/ 66 done)
  ITERATION   2:   ||err||_max =   2.0036e-02 ( 110.5 sec  16/ 66 done)
  ITERATION   3:   ||err||_max =   7.1387e-03 (  86.5 sec  26/ 66 done)
  ITERATION   4:   ||err||_max =   2.2366e-03 (  69.0 sec  36/ 66 done)
  ITERATION   5:   ||err||_max =   1.0265e-03 (  53.1 sec  64/ 66 done)
  ITERATION   6:   ||err||_max =   2.9142e-04 (   5.3 sec  66/ 66 done)

CP-SCF equations solved in 538.6 sec
Response densities calculated in   0.3 sec

Maximum memory used throughout the entire SCFRESP-calculation: 378.5 MB

------------------------------------------------------------------------------
                              ORCA PROPERTY CALCULATIONS
------------------------------------------------------------------------------

GBWName                                 ... censo.gbw
Number of atoms                         ...     22
Number of basis functions               ...    544
Max core memory                         ...   1024 MB

Electric properties:
Dipole moment                           ... YES
Quadrupole moment                       ...  NO
Static polarizability (Dipole/Dipole)   ...  NO
Static polarizability (Dipole/Quad.)    ...  NO
Static polarizability (Quad./Quad.)     ...  NO
Static polarizability (Velocity)        ...  NO

Atomic electric properties:
Dipole moment                           ...  NO
Quadrupole moment                       ...  NO
Static polarizability                   ...  NO

Choice of electric origin               ... Center of mass
Position of electric origin             ...    -0.000008    -0.000010     0.000380

General magnetic properties:
Magnetizability                         ...  NO

EPR properties:
g-Tensor (aka g-matrix)                 ...  NO
Zero-Field splitting spin-orbit         ...  NO
Zero-field splitting spin-spin          ...  NO
Hyperfine couplings                     ...  NO (   0 nuclei)
Quadrupole couplings                    ...  NO (   0 nuclei)
Contact density                         ...  NO (   0 nuclei)

NMR properties:
Chemical shifts                         ...  NO (   0 nuclei)
Spin-rotation constants                 ...  NO (   0 nuclei)
Spin-spin couplings                     ...  NO (   0 nuclei,    0 pairs)

Choice of magnetic origin               ... GIAO
Position of magnetic origin             ...     0.000000     0.000000     0.000000

Properties with geometric perturbations:
SCF Hessian                             ... YES
IR spectrum                             ... YES
VCD spectrum                            ...  NO
X-ray spectroscopy properties:
SCF XES/XAS/RIXS spectra                ...  NO


-------------
DIPOLE MOMENT
-------------

Method             : SCF
Type of density    : Electron Density
Multiplicity       :   1
Irrep              :   0
Energy             : -1531.6155647222219613 Eh
Relativity type    : 
Basis              : AO
                                X                 Y                 Z
Electronic contribution:     -0.000000642       0.000000277      -0.006578044
Nuclear contribution   :     -0.000000600       0.000000086       0.006658732
                        -----------------------------------------
Total Dipole Moment    :     -0.000001242       0.000000363       0.000080689
                        -----------------------------------------
Magnitude (a.u.)       :      0.000080699
Magnitude (Debye)      :      0.000205120



--------------------
Rotational spectrum 
--------------------
 
Rotational constants in cm-1:             0.058302             0.005700             0.005193 
Rotational constants in MHz :          1747.845813           170.893052           155.672508 

Dipole components along the rotational axes: 
x,y,z [a.u.] :     0.000001     0.000000     0.000081 
x,y,z [Debye]:     0.000003     0.000001     0.000205 

 

Dipole moment calculation done in   0.0 sec 

-----------
SCF HESSIAN
-----------

Occupied/Occupied contributions to the Hessian:
   => Occupied/Occupied contributions              ... done (  0.1 sec)
Perturbed density contributions to the Hessian:
   => Perturbed density contributions              ... done (  0.3 sec)
Explicit contributions to the Hessian:
   => Nuclear repulsion Hessian                    ... done (  0.0 sec)
   => HCore and overlap Hessian                    ... done ( 68.1 sec)
   => RI-J Hessian                                 ... done ( 51.3 sec)
   => XC-Hessian                                   ... done (212.0 sec)
   => Van der Waals-Hessian                        ... done (  4.2 sec)
   => GCP-Hessian                                  ... done (  0.1 sec)
   => Explicit contributions done
Dipole derivatives                                 ... done (  0.5 sec)
Mass weighting the Hessian           ... done
Calculating normal modes             ... done
Scaling frequencies                  ... done

-----------------------
VIBRATIONAL FREQUENCIES
-----------------------

Scaling factor for frequencies =  1.000000000  (already applied!)

     0:       0.00 cm**-1
     1:       0.00 cm**-1
     2:       0.00 cm**-1
     3:       0.00 cm**-1
     4:       0.00 cm**-1
     5:       0.00 cm**-1
     6:      34.25 cm**-1
     7:     102.11 cm**-1
     8:     134.12 cm**-1
     9:     136.23 cm**-1
    10:     201.46 cm**-1
    11:     216.73 cm**-1
    12:     247.78 cm**-1
    13:     302.13 cm**-1
    14:     340.58 cm**-1
    15:     350.22 cm**-1
    16:     353.70 cm**-1
    17:     414.26 cm**-1
    18:     454.44 cm**-1
    19:     459.20 cm**-1
    20:     467.41 cm**-1
    21:     502.32 cm**-1
    22:     573.95 cm**-1
    23:     589.02 cm**-1
    24:     592.83 cm**-1
    25:     645.06 cm**-1
    26:     656.72 cm**-1
    27:     677.67 cm**-1
    28:     705.25 cm**-1
    29:     745.72 cm**-1
    30:     749.84 cm**-1
    31:     810.40 cm**-1
    32:     810.59 cm**-1
    33:     856.11 cm**-1
    34:     860.08 cm**-1
    35:     863.65 cm**-1
    36:     896.08 cm**-1
    37:     920.72 cm**-1
    38:     921.83 cm**-1
    39:     935.61 cm**-1
    40:    1079.96 cm**-1
    41:    1082.54 cm**-1
    42:    1124.25 cm**-1
    43:    1144.28 cm**-1
    44:    1184.91 cm**-1
    45:    1198.53 cm**-1
    46:    1229.81 cm**-1
    47:    1265.34 cm**-1
    48:    1273.21 cm**-1
    49:    1298.59 cm**-1
    50:    1344.22 cm**-1
    51:    1362.64 cm**-1
    52:    1424.90 cm**-1
    53:    1451.39 cm**-1
    54:    1501.46 cm**-1
    55:    1515.78 cm**-1
    56:    1606.88 cm**-1
    57:    1615.04 cm**-1
    58:    1649.20 cm**-1
    59:    1657.01 cm**-1
    60:    3185.54 cm**-1
    61:    3185.56 cm**-1
    62:    3200.30 cm**-1
    63:    3200.33 cm**-1
    64:    3204.08 cm**-1
    65:    3204.13 cm**-1


------------
NORMAL MODES
------------

These modes are the Cartesian displacements weighted by the diagonal matrix
M(i,i)=1/sqrt(m[i]) where m[i] is the mass of the displaced atom
Thus, these vectors are normalized but *not* orthogonal

                  0          1          2          3          4          5    
      0       0.000000   0.000000   0.000000   0.000000   0.000000   0.000000
      1       0.000000   0.000000   0.000000   0.000000   0.000000   0.000000
      2       0.000000   0.000000   0.000000   0.000000   0.000000   0.000000
      3       0.000000   0.000000   0.000000   0.000000   0.000000   0.000000
      4       0.000000   0.000000   0.000000   0.000000   0.000000   0.000000
      5       0.000000   0.000000   0.000000   0.000000   0.000000   0.000000
      6       0.000000   0.000000   0.000000   0.000000   0.000000   0.000000
      7       0.000000   0.000000   0.000000   0.000000   0.000000   0.000000
      8       0.000000   0.000000   0.000000   0.000000   0.000000   0.000000
      9       0.000000   0.000000   0.000000   0.000000   0.000000   0.000000
     10       0.000000   0.000000   0.000000   0.000000   0.000000   0.000000
     11       0.000000   0.000000   0.000000   0.000000   0.000000   0.000000
     12       0.000000   0.000000   0.000000   0.000000   0.000000   0.000000
     13       0.000000   0.000000   0.000000   0.000000   0.000000   0.000000
[...]
     45       0.000018   0.000019   0.000073   0.000064   0.000097   0.000095
     46       0.000006   0.000001  -0.000007  -0.000006  -0.000050  -0.000053
     47      -0.000000   0.000000   0.000000   0.000000   0.000000   0.000000
     48      -0.168454   0.183964  -0.052213   0.063327  -0.485661   0.486367
     49      -0.156286   0.170676  -0.047266   0.057457  -0.443098   0.443747
     50       0.000163  -0.000178   0.000050  -0.000061   0.000469  -0.000471
     51      -0.138250   0.152944   0.002091  -0.002127   0.055290  -0.054504
     52       0.611968  -0.677612  -0.008712   0.008384  -0.234984   0.231348
     53       0.000118  -0.000130   0.000000   0.000000  -0.000049   0.000048
     54      -0.003895   0.003429   0.135222  -0.143952  -0.015758   0.013972
     55       0.019635  -0.016794  -0.663836   0.707298   0.079490  -0.070525
     56       0.000004  -0.000003  -0.000141   0.000150   0.000016  -0.000015
     57       0.152815   0.138394   0.002220   0.001983  -0.055179  -0.054606
     58      -0.676507  -0.613204  -0.009221  -0.007786   0.234514   0.231779
     59       0.000126   0.000114  -0.000000   0.000000  -0.000047  -0.000046
     60       0.185943   0.166228  -0.056186  -0.059780   0.484729   0.487315
     61       0.172512   0.154221  -0.050871  -0.054246   0.442248   0.444612
     62       0.000179   0.000160  -0.000054  -0.000057   0.000467   0.000471
     63       0.004218   0.003024   0.144276   0.134876   0.015724   0.013994
     64      -0.021214  -0.014753  -0.708328  -0.662745  -0.079318  -0.070640
     65       0.000004   0.000003   0.000145   0.000136   0.000016   0.000014


-----------
IR SPECTRUM
-----------

 Mode   freq       eps      Int      T**2         TX        TY        TZ
       cm**-1   L/(mol*cm) km/mol    a.u.
----------------------------------------------------------------------------
  6:     34.25   0.000000    0.00  0.000002  (-0.000002  0.000000 -0.001571)
  7:    102.11   0.000221    1.11  0.000674  ( 0.000001  0.000001  0.025959)
  8:    134.12   0.000030    0.15  0.000070  (-0.007623 -0.003488  0.000000)
  9:    136.23   0.000000    0.00  0.000000  ( 0.000263 -0.000036  0.000000)
 10:    201.46   0.000003    0.01  0.000004  ( 0.000000 -0.000001 -0.002026)
 11:    216.73   0.000000    0.00  0.000000  (-0.000000 -0.000000 -0.000016)
 12:    247.78   0.000000    0.00  0.000000  (-0.000162 -0.000081 -0.000000)
 13:    302.13   0.000000    0.00  0.000000  ( 0.000000  0.000000  0.000019)
 14:    340.58   0.000324    1.64  0.000297  (-0.007713 -0.015400  0.000000)
 15:    350.22   0.000000    0.00  0.000000  (-0.000246 -0.000019  0.000000)
 16:    353.70   0.000034    0.17  0.000030  (-0.000001 -0.000002 -0.005482)
 17:    414.26   0.004240   21.43  0.003194  ( 0.052856 -0.020004 -0.000000)
 18:    454.44   0.000000    0.00  0.000000  ( 0.000030  0.000039  0.000001)
 19:    459.20   0.001501    7.59  0.001020  (-0.000000  0.000001  0.031940)
 20:    467.41   0.000000    0.00  0.000000  (-0.000000  0.000000  0.000315)
 21:    502.32   0.000000    0.00  0.000000  ( 0.000000  0.000000 -0.000075)
 22:    573.95   0.000000    0.00  0.000000  (-0.000000 -0.000000 -0.000206)
 23:    589.02   0.002038   10.30  0.001080  (-0.000001  0.000003 -0.032857)
 24:    592.83   0.000000    0.00  0.000000  ( 0.000011 -0.000014  0.000001)
 25:    645.06   0.000000    0.00  0.000000  ( 0.000000 -0.000000 -0.000108)
 26:    656.72   0.000822    4.16  0.000391  ( 0.018947 -0.005636 -0.000000)
 27:    677.67   0.000053    0.27  0.000024  ( 0.000001  0.000000  0.004920)
 28:    705.25   0.000000    0.00  0.000000  ( 0.000202 -0.000227 -0.000000)
 29:    745.72   0.000000    0.00  0.000000  (-0.000000  0.000000 -0.000002)
 30:    749.84   0.004711   23.81  0.001961  (-0.036057  0.025700  0.000000)
 31:    810.40   0.000000    0.00  0.000000  (-0.000059 -0.000013  0.000202)
 32:    810.59   0.010345   52.28  0.003983  ( 0.000000 -0.000001 -0.063109)
 33:    856.11   0.007384   37.32  0.002692  (-0.050628  0.011333 -0.000000)
 34:    860.08   0.010167   51.38  0.003689  (-0.000000  0.000001  0.060736)
 35:    863.65   0.000000    0.00  0.000000  ( 0.000178 -0.000015 -0.000065)
 36:    896.08   0.042369  214.11  0.014755  ( 0.120498  0.015340 -0.000001)
 37:    920.72   0.000618    3.12  0.000210  ( 0.000000  0.000001  0.014474)
 38:    921.83   0.000000    0.00  0.000000  (-0.000037 -0.000120  0.000030)
 39:    935.61   0.000000    0.00  0.000000  ( 0.000001  0.000000  0.000072)
 40:   1079.96   0.013623   68.85  0.003936  (-0.061601  0.011909  0.000000)
 41:   1082.54   0.000000    0.00  0.000000  ( 0.000008 -0.000002  0.000035)
 42:   1124.25   0.000000    0.00  0.000000  (-0.000000  0.000001  0.000019)
 43:   1144.28   0.007128   36.02  0.001944  ( 0.023360 -0.037392 -0.000000)
 44:   1184.91   0.000000    0.00  0.000000  (-0.000000  0.000000  0.000013)
 45:   1198.53   0.014951   75.55  0.003893  ( 0.057857 -0.023351 -0.000000)
 46:   1229.81   0.000000    0.00  0.000000  ( 0.000000 -0.000000 -0.000054)
 47:   1265.34   0.000000    0.00  0.000000  (-0.000002 -0.000000 -0.000029)
 48:   1273.21   0.018880   95.41  0.004628  (-0.066813 -0.012787  0.000000)
 49:   1298.59   0.109601  553.88  0.026338  (-0.157240 -0.040171  0.000001)
 50:   1344.22   0.010376   52.44  0.002409  (-0.049008 -0.002665  0.000000)
 51:   1362.64   0.000000    0.00  0.000000  (-0.000000 -0.000000 -0.000019)
 52:   1424.90   0.000000    0.00  0.000000  (-0.000000 -0.000000 -0.000008)
 53:   1451.39   0.006418   32.43  0.001380  (-0.029601 -0.022444  0.000000)
 54:   1501.46   0.168484  851.45  0.035018  ( 0.186559  0.014622 -0.000001)
 55:   1515.78   0.000000    0.00  0.000000  ( 0.000002  0.000000  0.000108)
 56:   1606.88   0.000000    0.00  0.000000  ( 0.000000  0.000000  0.000041)
 57:   1615.04   0.009571   48.37  0.001849  ( 0.032790  0.027825 -0.000000)
 58:   1649.20   0.000000    0.00  0.000000  ( 0.000000  0.000000  0.000008)
 59:   1657.01   0.006308   31.88  0.001188  ( 0.033384  0.008569 -0.000000)
 60:   3185.54   0.000001    0.00  0.000000  (-0.000243  0.000144 -0.000007)
 61:   3185.56   0.000326    1.65  0.000032  (-0.004859  0.002886  0.000000)
 62:   3200.30   0.000473    2.39  0.000046  ( 0.004743 -0.004866  0.000000)
 63:   3200.33   0.000000    0.00  0.000000  (-0.000154  0.000158  0.000005)
 64:   3204.08   0.000000    0.00  0.000000  ( 0.000000  0.000003  0.000002)
 65:   3204.13   0.000064    0.32  0.000006  (-0.000471 -0.002446 -0.000000)

* The epsilon (eps) is given for a Dirac delta lineshape.
** The dipole moment derivative (T) already includes vibrational overlap.

The first frequency considered to be a vibration is 6
The total number of vibrations considered is 60


--------------------------
THERMOCHEMISTRY AT 298.15K
--------------------------

Temperature         ...   298.15 K
Pressure            ...     1.00 atm
Total Mass          ...   253.08 AMU
Quasi RRHO          ...     True
Cut-Off Frequency   ...     1.00 cm^-1

Throughout the following assumptions are being made:
  (1) The electronic state is orbitally nondegenerate
  (2) There are no thermally accessible electronically excited states
  (3) Hindered rotations indicated by low frequency modes are not
      treated as such but are treated as vibrations and this may
      cause some error
  (4) All equations used are the standard statistical mechanics
      equations for an ideal gas
  (5) All vibrations are strictly harmonic

freq.      34.25  E(vib)   ...       0.54 
freq.     102.11  E(vib)   ...       0.46 
freq.     134.12  E(vib)   ...       0.42 
freq.     136.23  E(vib)   ...       0.42 
freq.     201.46  E(vib)   ...       0.35 
freq.     216.73  E(vib)   ...       0.34 
freq.     247.78  E(vib)   ...       0.31 
freq.     302.13  E(vib)   ...       0.26 
freq.     340.58  E(vib)   ...       0.23 
freq.     350.22  E(vib)   ...       0.23 
freq.     353.70  E(vib)   ...       0.22 
freq.     414.26  E(vib)   ...       0.19 
freq.     454.44  E(vib)   ...       0.16 
freq.     459.20  E(vib)   ...       0.16 
freq.     467.41  E(vib)   ...       0.16 
freq.     502.32  E(vib)   ...       0.14 
freq.     573.95  E(vib)   ...       0.11 
freq.     589.02  E(vib)   ...       0.10 
freq.     592.83  E(vib)   ...       0.10 
freq.     645.06  E(vib)   ...       0.09 
freq.     656.72  E(vib)   ...       0.08 
freq.     677.67  E(vib)   ...       0.08 
freq.     705.25  E(vib)   ...       0.07 
freq.     745.72  E(vib)   ...       0.06 
freq.     749.84  E(vib)   ...       0.06 
freq.     810.40  E(vib)   ...       0.05 
freq.     810.59  E(vib)   ...       0.05 
freq.     856.11  E(vib)   ...       0.04 
freq.     860.08  E(vib)   ...       0.04 
freq.     863.65  E(vib)   ...       0.04 
freq.     896.08  E(vib)   ...       0.03 
freq.     920.72  E(vib)   ...       0.03 
freq.     921.83  E(vib)   ...       0.03 
freq.     935.61  E(vib)   ...       0.03 
freq.    1079.96  E(vib)   ...       0.02 
freq.    1082.54  E(vib)   ...       0.02 
freq.    1124.25  E(vib)   ...       0.01 
freq.    1144.28  E(vib)   ...       0.01 
freq.    1184.91  E(vib)   ...       0.01 
freq.    1198.53  E(vib)   ...       0.01 
freq.    1229.81  E(vib)   ...       0.01 
freq.    1265.34  E(vib)   ...       0.01 
freq.    1273.21  E(vib)   ...       0.01 
freq.    1298.59  E(vib)   ...       0.01 
freq.    1344.22  E(vib)   ...       0.01 
freq.    1362.64  E(vib)   ...       0.01 
freq.    1424.90  E(vib)   ...       0.00 
freq.    1451.39  E(vib)   ...       0.00 
freq.    1501.46  E(vib)   ...       0.00 
freq.    1515.78  E(vib)   ...       0.00 
freq.    1606.88  E(vib)   ...       0.00 
freq.    1615.04  E(vib)   ...       0.00 
freq.    1649.20  E(vib)   ...       0.00 
freq.    1657.01  E(vib)   ...       0.00 
freq.    3185.54  E(vib)   ...       0.00 
freq.    3185.56  E(vib)   ...       0.00 
freq.    3200.30  E(vib)   ...       0.00 
freq.    3200.33  E(vib)   ...       0.00 
freq.    3204.08  E(vib)   ...       0.00 
freq.    3204.13  E(vib)   ...       0.00 

------------
INNER ENERGY
------------

The inner energy is: U= E(el) + E(ZPE) + E(vib) + E(rot) + E(trans)
    E(el)   - is the total energy from the electronic structure calculation
              = E(kin-el) + E(nuc-el) + E(el-el) + E(nuc-nuc)
    E(ZPE)  - the the zero temperature vibrational energy from the frequency calculation
    E(vib)  - the the finite temperature correction to E(ZPE) due to population
              of excited vibrational states
    E(rot)  - is the rotational thermal energy
    E(trans)- is the translational thermal energy

Summary of contributions to the inner energy U:
Electronic energy                ...  -1531.61738778 Eh
Zero point energy                ...      0.14743838 Eh      92.52 kcal/mol
Thermal vibrational correction   ...      0.00928369 Eh       5.83 kcal/mol
Thermal rotational correction    ...      0.00141627 Eh       0.89 kcal/mol
Thermal translational correction ...      0.00141627 Eh       0.89 kcal/mol
-----------------------------------------------------------------------
Total thermal energy                  -1531.45783317 Eh


Summary of corrections to the electronic energy:
(perhaps to be used in another calculation)
Total thermal correction                  0.01211623 Eh       7.60 kcal/mol
Non-thermal (ZPE) correction              0.14743838 Eh      92.52 kcal/mol
-----------------------------------------------------------------------
Total correction                          0.15955461 Eh     100.12 kcal/mol


--------
ENTHALPY
--------

The enthalpy is H = U + kB*T
                kB is Boltzmann's constant
Total thermal energy              ...  -1531.45783317 Eh 
Thermal Enthalpy correction       ...      0.00094421 Eh       0.59 kcal/mol
-----------------------------------------------------------------------
Total Enthalpy                    ...  -1531.45688896 Eh


Note: Rotational entropy computed according to Herzberg 
Infrared and Raman Spectra, Chapter V,1, Van Nostrand Reinhold, 1945 
Point Group:  C2, Symmetry Number:   2  
Rotational constants in cm-1:     0.058302     0.005700     0.005193 

Vibrational entropy computed according to the QRRHO of S. Grimme
Chem.Eur.J. 2012 18 9955 using a reference frequency of 100.0 cm-1


-------
ENTROPY
-------

The entropy contributions are T*S = T*(S(el)+S(vib)+S(rot)+S(trans))
     S(el)   - electronic entropy
     S(vib)  - vibrational entropy
     S(rot)  - rotational entropy
     S(trans)- translational entropy
The entropies will be listed as multiplied by the temperature to get
units of energy

Electronic entropy                ...      0.00000000 Eh      0.00 kcal/mol
Vibrational entropy               ...      0.01551319 Eh      9.73 kcal/mol
Rotational entropy                ...      0.01512092 Eh      9.49 kcal/mol
Translational entropy             ...      0.02018632 Eh     12.67 kcal/mol
-----------------------------------------------------------------------
Final entropy term                ...      0.05082043 Eh     31.89 kcal/mol

In case the symmetry of your molecule has not been determined correctly
or in case you have a reason to use a different symmetry number we print 
out the resulting rotational entropy values for sn=1,12:

 non-linear molecules -----------------------------------
|  sn= 1 | S(rot)=       0.01577538 Eh      9.90 kcal/mol|
|  sn= 2 | S(rot)=       0.01512092 Eh      9.49 kcal/mol|
|  sn= 3 | S(rot)=       0.01473809 Eh      9.25 kcal/mol|
|  sn= 4 | S(rot)=       0.01446647 Eh      9.08 kcal/mol|
|  sn= 5 | S(rot)=       0.01425578 Eh      8.95 kcal/mol|
|  sn= 6 | S(rot)=       0.01408363 Eh      8.84 kcal/mol|
|  sn= 7 | S(rot)=       0.01393809 Eh      8.75 kcal/mol|
|  sn= 8 | S(rot)=       0.01381201 Eh      8.67 kcal/mol|
|  sn= 9 | S(rot)=       0.01370080 Eh      8.60 kcal/mol|
|  sn=10 | S(rot)=       0.01360132 Eh      8.53 kcal/mol|
|  sn=11 | S(rot)=       0.01351133 Eh      8.48 kcal/mol|
|  sn=12 | S(rot)=       0.01342918 Eh      8.43 kcal/mol|
 linear molecules ---------------------------------------
|  Dinfh | S(rot)=       0.01029268 Eh      6.46 kcal/mol|
|  Cinfv | S(rot)=       0.01094713 Eh      6.87 kcal/mol|
 --------------------------------------------------------


-------------------
GIBBS FREE ENERGY
-------------------

The Gibbs free energy is G = H - T*S

Total enthalpy                    ...  -1531.45688896 Eh 
Total entropy correction          ...     -0.05082043 Eh    -31.89 kcal/mol
-----------------------------------------------------------------------
Final Gibbs free energy         ...  -1531.50770940 Eh

For completeness - the Gibbs free energy minus the electronic energy
G-E(el)                           ...      0.10967838 Eh     68.82 kcal/mol


Maximum memory used throughout the entire PROP-calculation: 115.2 MB

--------------------------------
SUGGESTED CITATIONS FOR THIS RUN
--------------------------------

Below you find a list of papers that are relevant to this ORCA run
We neither can nor want to force you to cite these papers, but we appreciate if you do
You receive ORCA, which is the product of decades of hard work by many enthusiastic individuals, for free
The only thing we kindly ask in return is that you cite our papers,
We deeply appreciate it, if you show your appreciation for ORCA by not just citing the generic ORCA reference.

Please note that relegating all ORCA citations to the supporting information does *not* help us.
SI sections are not indexed - citations you put there will not count into any citation statistics
But we need these citations in order to attract the funding resources that allow us to do what we are doing

Therefore, if you are a happy ORCA user, please consider citing a few of the papers listed below in the main body of your paper

In addition to the list printed below, the program has created the file censo.bibtex that contains the list in bibtex format
You can import this file easily into all common literature databanks and citation aid programs


List of essential papers. We consider these as the minimum necessary citations

  1. Neese,F.
     Software update: the ORCA program system, version 5.0
     WIRES Comput. Molec. Sci., 2022 12(1)e1606
     doi.org/10.1002/wcms.1606
  2. Grimme,S.; Hansen,A.; Ehlert,S.; Mewes,J.
     r2SCAN-3c: A 'Swiss army knife' composite electronic-structure method
     J. Chem. Phys., 2021 154 064103
     doi.org/10.1063/5.0040021

List of papers to cite with high priority. The work reported in these papers was absolutely
necessary for this run to complete.
Our perspective: the developers of density functionals and basis sets usually get cited in chemistry papers
Good! But without the algorithms to do something with them, the functionals or basis sets would not do anything.
Hence, in our opinion, the algorithm design and method developments papers are equally worthy of getting cited

  1. Neese,F.
     An improvement of the resolution of the identity approximation for the formation of the Coulomb matrix
     J. Comp. Chem., 2003 24(14)1740-1747
     doi.org/10.1002/jcc.10318
  2. Bykov,D.; Petrenko,T.; Izsak,R.; Kossmann,S.; Becker,U.; Valeev,E.; Neese,F.
     Efficient implementation of the analytic second derivatives of Hartree-Fock and hybrid DFT energies: a detailed analysis of different approximations
     Molec. Phys., 2015 113 1961-1977
     doi.org/10.1080/00268976.2015.1025114
  3. Neese,F.
     The SHARK Integral Generation and Digestion System
     J. Comp. Chem., 2022  1-16
     doi.org/10.1002/jcc.26942
  4. Lehtola,S.; Steigemann,C.; Oliveira,M.; Marques,M.
     Recent developments in Libxc - A comprehensive library of functionals for density functional theory
     Software X, 2018 7 
     doi.org/10.1016/j.softx.2017.11.002
  5. Caldeweyher,E.; Bannwarth,C.; Grimme,S.
     Extension of the D3 dispersion coefficient model
     J. Chem. Phys., 2017 147 034112-XXXX
     doi.org/10.1063/1.4993215
  6. Caldeweyher,E.; Ehlert,S.; Hansen,A.; Neugebauer,H.; Spicher,S.; Bannwarth,C.; Grimme,S.
     A generally applicable atomic-charge dependent London dispersion correction
     J. Chem. Phys., 2019 150 154122-XXXX
     doi.org/10.1063/1.5090222
  7. Caldeweyher,E.; Mewes,J.; Ehlert,S.; Grimme,S.
     Extension and evaluation of the D4 London-dispersion model for periodic systems
     Phys. Chem. Chem. Phys., 2020 22(16)8499-8512
     doi.org/10.1039/D0CP00502A

List of suggested additional citations. These are papers that are important in the 'surrounding' of 
of this run, or papers that preceded the highly important papers. If you like your results we are grateful for a citation.

  1. Neese,F.
     The ORCA program system
     WIRES Comput. Molec. Sci., 2012 2(1)73-78
     doi.org/10.1002/wcms.81
  2. Neese,F.
     Software update: the ORCA program system, version 4.0
     WIRES Comput. Molec. Sci., 2018 8(1)1-6
     doi.org/10.1002/wcms.1327
  3. Neese,F.; Wennmohs,F.; Becker,U.; Riplinger,C.
     The ORCA quantum chemistry program package
     J. Chem. Phys., 2020 152 Art. No. L224108
     doi.org/10.1063/5.0004608

List of optional additional citations

  1. Neese,F.
     Approximate second-order SCF convergence for spin unrestricted wavefunctions
     Chem. Phys. Lett., 2000 325(1-3)93-98
     doi.org/10.1016/s0009-2614(00)00662-x

Timings for individual modules:

Sum of individual times          ...     2231.680 sec (=  37.195 min)
Startup calculation              ...        2.424 sec (=   0.040 min)   0.1 %
SCF iterations                   ...       94.702 sec (=   1.578 min)   4.2 %
Property integrals               ...     1256.746 sec (=  20.946 min)  56.3 %
SCF Response                     ...      540.976 sec (=   9.016 min)  24.2 %
Property calculations            ...      336.833 sec (=   5.614 min)  15.1 %
                             ****ORCA TERMINATED NORMALLY****
TOTAL RUN TIME: 0 days 0 hours 37 minutes 12 seconds 480 msec
