12
 energy: -248.472821435655 gnorm: 0.031806305569 xtb: 6.7.1 (edcfbbe)
C           -1.93557024084787       -0.66676627916001        0.13711108087914
C           -0.93757705344612        0.42647549913587       -0.23401174046351
C            0.48998157408469        0.09554754637181        0.18353686863194
O            0.85824755369520       -1.04437011914936        0.46880985820963
N            1.33939972413657        1.18144124656475        0.20189955214844
H           -1.63305886837889       -1.63869515742626       -0.28162008248712
H           -2.00556957182615       -0.78631762295455        1.22883480625051
H           -2.92909139752596       -0.41321123363526       -0.25171035082136
H           -1.23448180631868        1.39466919915576        0.19380453991436
H           -0.91439481376467        0.56614967268933       -1.32827196941790
H            1.04578184493096        2.11054731937014       -0.11486336280180
H            2.32558990050111        1.02638529687265        0.32233977638658
12
 energy: -248.473663131821 gnorm: 0.005625358161 xtb: 6.7.1 (edcfbbe)
C           -1.93295155901242       -0.66492160644045        0.13634906674677
C           -0.93983614403600        0.42765475420354       -0.23814553376777
C            0.48742750625768        0.10096102305456        0.18072637070491
O            0.85744196077489       -1.02667765321455        0.46619479695233
N            1.33612285354439        1.17809630204919        0.20430754653338
H           -1.62305056355492       -1.62687397496524       -0.28127597929296
H           -1.99451236873781       -0.78357163673542        1.22266221939254
H           -2.92952156849591       -0.41985357400250       -0.24325521316556
H           -1.23760131877622        1.39275525740762        0.19119883039817
H           -0.92324464978422        0.56847344098366       -1.32901984567307
H            1.04739476496965        2.08879102422298       -0.11793458633712
H            2.32158795109118        1.01702196629245        0.33405114380064
12
 energy: -248.473725586152 gnorm: 0.002145016361 xtb: 6.7.1 (edcfbbe)
C           -1.92830923197335       -0.66452403453300        0.13649973747818
C           -0.94222855096987        0.43211911272656       -0.24188541518636
C            0.48428777027555        0.10226742021683        0.17894635093351
O            0.85264486642178       -1.02362094495524        0.46592630692201
N            1.33345536520344        1.17600568736896        0.20557570128442
H           -1.61533172978928       -1.62301073035612       -0.28182360083611
H           -1.98351493372093       -0.78257852221371        1.22169429356537
H           -2.92740712976649       -0.42426294363137       -0.23745224281750
H           -1.23980048413582        1.39632883854032        0.18859818656473
H           -0.92877275896291        0.57315893651872       -1.33167026297997
H            1.04747896207894        2.08120800757912       -0.12285965896032
H            2.31675472862060        1.00876446015921        0.34430928584658
12
 energy: -248.473738368003 gnorm: 0.001475539115 xtb: 6.7.1 (edcfbbe)
C           -1.92732065056492       -0.66425106073805        0.13621533868030
C           -0.94363278240623        0.43383263899906       -0.24391073370148
C            0.48318900011986        0.10367206671446        0.17779213641296
O            0.84987203919554       -1.02260546954047        0.46646738225518
N            1.33331199787312        1.17588981299689        0.20635632040859
H           -1.61194171309520       -1.62104152597773       -0.28363730561673
H           -1.97677829158454       -0.78292510616961        1.22152012976314
H           -2.92874052697223       -0.42724728852227       -0.23335380529658
H           -1.24104802259235        1.39745174982804        0.18784307703953
H           -0.93189760384454        0.57530544763854       -1.33345989656944
H            1.04947816048897        2.07964180490838       -0.12783664887230
H            2.31476527263671        1.00413218135658        0.35186259971262
12
 energy: -248.473742863441 gnorm: 0.001055087869 xtb: 6.7.1 (edcfbbe)
C           -1.92633301786483       -0.66467041494317        0.13584013695354
C           -0.94522076211721        0.43559787116793       -0.24552783526882
C            0.48162656121167        0.10610977089037        0.17825367823292
O            0.84655399828742       -1.02135011174177        0.46826106313986
N            1.33367860245011        1.17657003655870        0.20708003154206
H           -1.61031077385159       -1.62044315704022       -0.28674539438697
H           -1.97009187291101       -0.78562590519755        1.22141363436328
H           -2.92975534607421       -0.42923030593164       -0.22897227174346
H           -1.24304658052079        1.39870379611362        0.18724007239997
H           -0.93410061533229        0.57756893370100       -1.33514493858125
H            1.05329064822611        2.07958651576108       -0.13427602766570
H            2.31296599907494        0.99903817303492        0.35843640015299
12
 energy: -248.473744148468 gnorm: 0.000480469091 xtb: 6.7.1 (edcfbbe)
C           -1.92667051679674       -0.66484029046996        0.13577799970787
C           -0.94491375005318        0.43506513831885       -0.24497851126585
C            0.48213557076306        0.10571681049173        0.17778671173735
O            0.84709685555412       -1.02098816948492        0.46981912232525
N            1.33371241467589        1.17695866112354        0.20683062353126
H           -1.61198823755286       -1.62057667292834       -0.28797460723488
H           -1.97043422853118       -0.78688256962453        1.22122009900964
H           -2.92991508120096       -0.42792130195154       -0.22860966990501
H           -1.24324219952917        1.39828781472644        0.18739182167297
H           -0.93353164737971        0.57693274556831       -1.33468928789074
H            1.05381635117441        2.08001831246095       -0.13464761481932
H            2.31319129151151        1.00008470337303        0.35793187784429
12
 energy: -248.473744148468 gnorm: 0.000480469091 xtb: 6.7.1 (edcfbbe)
C           -1.92667051679674       -0.66484029046996        0.13577799970787
C           -0.94491375005318        0.43506513831885       -0.24497851126585
C            0.48213557076306        0.10571681049173        0.17778671173735
O            0.84709685555412       -1.02098816948492        0.46981912232525
N            1.33371241467589        1.17695866112354        0.20683062353126
H           -1.61198823755286       -1.62057667292834       -0.28797460723488
H           -1.97043422853118       -0.78688256962453        1.22122009900964
H           -2.92991508120096       -0.42792130195154       -0.22860966990501
H           -1.24324219952917        1.39828781472644        0.18739182167297
H           -0.93353164737971        0.57693274556831       -1.33468928789074
H            1.05381635117441        2.08001831246095       -0.13464761481932
H            2.31319129151151        1.00008470337303        0.35793187784429
