      -----------------------------------------------------------      
     |                   =====================                   |     
     |                           x T B                           |     
     |                   =====================                   |     
     |                         S. Grimme                         |     
     |          Mulliken Center for Theoretical Chemistry        |     
     |                    University of Bonn                     |     
      -----------------------------------------------------------      

   * xtb version 6.7.1 (edcfbbe) compiled by 'albert@albert-system' on 2024-07-22

   xtb is free software: you can redistribute it and/or modify it under
   the terms of the GNU Lesser General Public License as published by
   the Free Software Foundation, either version 3 of the License, or
   (at your option) any later version.
   
   xtb is distributed in the hope that it will be useful,
   but WITHOUT ANY WARRANTY; without even the implied warranty of
   MERCHANTABILITY or FITNESS FOR A PARTICULAR PURPOSE.  See the
   GNU Lesser General Public License for more details.
   
   Cite this work as:
   * C. Bannwarth, E. Caldeweyher, S. Ehlert, A. Hansen, P. Pracht,
     J. Seibert, S. Spicher, S. Grimme, WIREs Comput. Mol. Sci., 2020, 11,
     e01493. DOI: 10.1002/wcms.1493
   
   for GFN2-xTB:
   * C. Bannwarth, S. Ehlert and S. Grimme., J. Chem. Theory Comput., 2019,
     15, 1652-1671. DOI: 10.1021/acs.jctc.8b01176
   for GFN1-xTB:
   * S. Grimme, C. Bannwarth, P. Shushkov, J. Chem. Theory Comput., 2017,
     13, 1989-2009. DOI: 10.1021/acs.jctc.7b00118
   for GFN0-xTB:
   * P. Pracht, E. Caldeweyher, S. Ehlert, S. Grimme, ChemRxiv, 2019, preprint.
     DOI: 10.26434/chemrxiv.8326202.v1
   for GFN-FF:
   * S. Spicher and S. Grimme, Angew. Chem. Int. Ed., 2020, 59, 15665-15673.
     DOI: 10.1002/anie.202004239
   
   for ALPB and GBSA implicit solvation:
   * S. Ehlert, M. Stahn, S. Spicher, S. Grimme, J. Chem. Theory Comput.,
     2021, 17, 4250-4261. DOI: 10.1021/acs.jctc.1c00471
   
   for ddCOSMO and CPCM-X implicit solvation:
   * M. Stahn, S. Ehlert, S. Grimme, J. Phys. Chem. A,
     2023, XX, XXXX-XXXX. DOI: 10.1021/acs.jpca.3c04382
   
   for DFT-D4:
   * E. Caldeweyher, C. Bannwarth and S. Grimme, J. Chem. Phys., 2017,
     147, 034112. DOI: 10.1063/1.4993215
   * E. Caldeweyher, S. Ehlert, A. Hansen, H. Neugebauer, S. Spicher,
     C. Bannwarth and S. Grimme, J. Chem. Phys., 2019, 150, 154122.
     DOI: 10.1063/1.5090222
   * E. Caldeweyher, J.-M. Mewes, S. Ehlert and S. Grimme, Phys. Chem. Chem. Phys.
     2020, 22, 8499-8512. DOI: 10.1039/D0CP00502A
   
   for sTDA-xTB:
   * S. Grimme and C. Bannwarth, J. Chem. Phys., 2016, 145, 054103.
     DOI: 10.1063/1.4959605
   
   in the mass-spec context:
   * V. Asgeirsson, C. Bauer and S. Grimme, Chem. Sci., 2017, 8, 4879.
     DOI: 10.1039/c7sc00601b
   * J. Koopman and S. Grimme, ACS Omega 2019, 4, 12, 15120-15133.
     DOI: 10.1021/acsomega.9b02011
   
   for metadynamics refer to:
   * S. Grimme, J. Chem. Theory Comput., 2019, 155, 2847-2862
     DOI: 10.1021/acs.jctc.9b00143
   
   for SPH calculations refer to:
   * S. Spicher and S. Grimme, J. Chem. Theory Comput., 2021, 17, 1701-1714
     DOI: 10.1021/acs.jctc.0c01306
   
   for ONIOM refer to:
   * C. Plett, A. Katbashev, S. Ehlert, S. Grimme, M. Bursch,
     Phys. Chem. Chem. Phys., 2023, 25, 17860-17868. DOI: 10.1039/D3CP02178E
   
   for DIPRO refer to:
   * J. Kohn, N. Gildemeister, S. Grimme, D. Fazzi, A. Hansen,
     J. Chem. Phys., 2023, just accepted.
   
   for PTB refer to:
   * S. Grimme, M. Mueller, A. Hansen, J. Chem. Phys., 2023, 158, 124111.
     DOI: 10.1063/5.0137838
   
   with help from (in alphabetical order)
   P. Atkinson, C. Bannwarth, F. Bohle, G. Brandenburg, E. Caldeweyher
   M. Checinski, S. Dohm, S. Ehlert, S. Ehrlich, I. Gerasimov, C. Hölzer
   A. Katbashev, J. Kohn, J. Koopman, C. Lavigne, S. Lehtola, F. März, M. Müller,
   F. Musil, H. Neugebauer, J. Pisarek, C. Plett, P. Pracht, F. Pultar,
   J. Seibert, P. Shushkov, S. Spicher, M. Stahn, M. Steiner, T. Strunk,
   J. Stückrath, T. Rose, and J. Unsleber
   
 * started run on 2025/04/15 at 19:49:49.568     
   ID    Z sym.   atoms
    1    6 C      1-6
    2    7 N      7
    3    8 O      8, 9
    4    1 H      10-14

           -------------------------------------------------
          |                Calculation Setup                |
           -------------------------------------------------

          program call               : /software/projects/pawsey0265/mwang1/xtb/bin/xtb xtb_rrho.coord --gfn2 --ohess vtight --chrg 0 --enso --norestart -I rrho-xcontrol-inp --parallel 1
          hostname                   : nid002793
          coordinate file            : xtb_rrho.coord
          omp threads                :                     1


           -------------------------------------------------
          |                 G F N 2 - x T B                 |
           -------------------------------------------------

        Reference                      10.1021/acs.jctc.8b01176
      * Hamiltonian:
        H0-scaling (s, p, d)           1.850000    2.230000    2.230000
        zeta-weighting                 0.500000
      * Dispersion:
        s8                             2.700000
        a1                             0.520000
        a2                             5.000000
        s9                             5.000000
      * Repulsion:
        kExp                           1.500000    1.000000
        rExp                           1.000000
      * Coulomb:
        alpha                          2.000000
        third order                    shell-resolved
        anisotropic                    true
        a3                             3.000000
        a5                             4.000000
        cn-shift                       1.200000
        cn-exp                         4.000000
        max-rad                        5.000000


          ...................................................
          :                      SETUP                      :
          :.................................................:
          :  # basis functions                  41          :
          :  # atomic orbitals                  41          :
          :  # shells                           23          :
          :  # electrons                        46          :
          :  max. iterations                   250          :
          :  Hamiltonian                  GFN2-xTB          :
          :  restarted?                      false          :
          :  GBSA solvation                  false          :
          :  PC potential                    false          :
          :  electronic temp.          300.0000000     K    :
          :  accuracy                    1.0000000          :
          :  -> integral cutoff          0.2500000E+02      :
          :  -> integral neglect         0.1000000E-07      :
          :  -> SCF convergence          0.1000000E-05 Eh   :
          :  -> wf. convergence          0.1000000E-03 e    :
          :  Broyden damping             0.4000000          :
          :  net charge                          0          :
          :  unpaired electrons                  0          :
          ...................................................

 iter      E             dE          RMSdq      gap      omega  full diag
   1    -26.5439964 -0.265440E+02  0.629E+00    3.68       0.0  T
   2    -26.6661546 -0.122158E+00  0.314E+00    3.08       1.0  T
   3    -26.6673770 -0.122234E-02  0.161E+00    3.07       1.0  T
   4    -26.6665883  0.788670E-03  0.399E-01    3.12       1.0  T
   5    -26.6680028 -0.141447E-02  0.894E-02    3.10       1.0  T
   6    -26.6680142 -0.114425E-04  0.430E-02    3.10       1.0  T
   7    -26.6680228 -0.863058E-05  0.187E-02    3.10       1.4  T
   8    -26.6680233 -0.433847E-06  0.390E-03    3.10       6.9  T
   9    -26.6680233 -0.225473E-07  0.144E-03    3.10      18.5  T
  10    -26.6680233  0.317917E-08  0.770E-04    3.10      34.7  T
  11    -26.6680233 -0.677077E-08  0.122E-04    3.10     218.9  T

   *** convergence criteria satisfied after 11 iterations ***

         #    Occupation            Energy/Eh            Energy/eV
      -------------------------------------------------------------
         1        2.0000           -0.7693504             -20.9351
       ...           ...                  ...                  ...
        17        2.0000           -0.4753143             -12.9340
        18        2.0000           -0.4719033             -12.8411
        19        2.0000           -0.4600343             -12.5182
        20        2.0000           -0.4518407             -12.2952
        21        2.0000           -0.4475743             -12.1791
        22        2.0000           -0.4426489             -12.0451
        23        2.0000           -0.4392470             -11.9525 (HOMO)
        24                         -0.3254147              -8.8550 (LUMO)
        25                         -0.2629197              -7.1544
        26                         -0.2457726              -6.6878
        27                         -0.1290114              -3.5106
        28                         -0.0485673              -1.3216
       ...                                ...                  ...
        41                          0.6073348              16.5264
      -------------------------------------------------------------
                  HL-Gap            0.1138323 Eh            3.0975 eV
             Fermi-level           -0.3823308 Eh          -10.4038 eV

 SCC (total)                   0 d,  0 h,  0 min,  0.031 sec
 SCC setup                      ...        0 min,  0.000 sec (  0.747%)
 Dispersion                     ...        0 min,  0.000 sec (  0.331%)
 classical contributions        ...        0 min,  0.000 sec (  0.118%)
 integral evaluation            ...        0 min,  0.001 sec (  4.521%)
 iterations                     ...        0 min,  0.026 sec ( 84.084%)
 molecular gradient             ...        0 min,  0.003 sec (  9.789%)
 printout                       ...        0 min,  0.000 sec (  0.334%)

         :::::::::::::::::::::::::::::::::::::::::::::::::::::
         ::                     SUMMARY                     ::
         :::::::::::::::::::::::::::::::::::::::::::::::::::::
         :: total energy             -26.338575841971 Eh    ::
         :: gradient norm              0.035780364837 Eh/a0 ::
         :: HOMO-LUMO gap              3.097535851410 eV    ::
         ::.................................................::
         :: SCC energy               -26.668005853895 Eh    ::
         :: -> isotropic ES            0.048465193430 Eh    ::
         :: -> anisotropic ES          0.005419898528 Eh    ::
         :: -> anisotropic XC          0.007236034832 Eh    ::
         :: -> dispersion             -0.011098620858 Eh    ::
         :: repulsion energy           0.329430011924 Eh    ::
         :: add. restraining           0.000000000000 Eh    ::
         :: total charge               0.000000000000 e     ::
         :::::::::::::::::::::::::::::::::::::::::::::::::::::

      ----------------------------------------------------------- 
     |                   =====================                   |
     |                        A N C O P T                        |
     |                   =====================                   |
     |               Approximate Normal Coordinate               |
     |                Rational Function Optimizer                |
      ----------------------------------------------------------- 
      ----------------------------------------------------------- 
     |                   =====================                   |
     |                        A N C O P T                        |
     |                   =====================                   |
     |               Approximate Normal Coordinate               |
     |                Rational Function Optimizer                |
      ----------------------------------------------------------- 

          ...................................................
          :                      SETUP                      :
          :.................................................:
          :   optimization level         verytight          :
          :   max. optcycles                   280          :
          :   ANC micro-cycles                  20          :
          :   degrees of freedom                36          :
          :.................................................:
          :   RF solver                   davidson          :
          :   write xtbopt.log                true          :
          :   linear?                        false          :
          :   energy convergence         0.1000000E-06 Eh   :
          :   grad. convergence          0.2000000E-03 Eh/α :
          :   maxmium RF displ.          1.0000000          :
          :   Hlow (freq-cutoff)         0.1000000E-01      :
          :   Hmax (freq-cutoff)         5.0000000          :
          :   S6 in model hess.         20.0000000          :
          ...................................................

generating ANC from exact Hessian ...
Using Lindh-Hessian (1995)
 Shifting diagonal of input Hessian by   4.165933295470547E-003
 Lowest  eigenvalues of input Hessian
    0.000000    0.000000    0.000000    0.000000    0.000000    0.000000
    0.010000    0.015858    0.020632    0.023693    0.024105    0.029613
    0.055051    0.074010    0.074409    0.088059    0.098859    0.099114
 Highest eigenvalues
    1.574149    1.872738    1.880331    1.978161    2.077081    2.529805
 

........................................................................
.............................. CYCLE    1 ..............................
........................................................................

 iter      E             dE          RMSdq      gap      omega  full diag
   1    -26.6680233 -0.266680E+02  0.210E-05    3.10       0.0  T
   2    -26.6680233 -0.113687E-11  0.993E-06    3.10    2691.2  T
   3    -26.6680233 -0.710543E-14  0.663E-06    3.10    4031.3  T
     SCC iter.                  ...        0 min,  0.001 sec
     gradient                   ...        0 min,  0.003 sec
 * total energy  :   -26.3385758 Eh     change       -0.8249401E-11 Eh
   gradient norm :     0.0357811 Eh/α   predicted     0.0000000E+00 (-100.00%)
   displ. norm   :     0.0867345 α      lambda       -0.1976183E-02
   maximum displ.:     0.0518344 α      in ANC's #9, #19, #20, ...

........................................................................
.............................. CYCLE    2 ..............................
........................................................................

 iter      E             dE          RMSdq      gap      omega  full diag
   1    -26.6821582 -0.266822E+02  0.138E-01    3.17       0.0  T
   2    -26.6822439 -0.856657E-04  0.721E-02    3.16       1.0  T
   3    -26.6822451 -0.126879E-05  0.409E-02    3.16       1.0  T
   4    -26.6822447  0.483599E-06  0.956E-03    3.16       2.8  T
   5    -26.6822457 -0.103036E-05  0.386E-03    3.16       6.9  T
   6    -26.6822457 -0.152969E-07  0.115E-03    3.16      23.2  T
   7    -26.6822457 -0.879579E-08  0.458E-04    3.16      58.3  T
   8    -26.6822457 -0.363187E-09  0.112E-04    3.16     239.4  T
     SCC iter.                  ...        0 min,  0.002 sec
     gradient                   ...        0 min,  0.003 sec
 * total energy  :   -26.3398477 Eh     change       -0.1271814E-02 Eh
   gradient norm :     0.0141550 Eh/α   predicted    -0.9955244E-03 ( -21.72%)
   displ. norm   :     0.0355148 α      lambda       -0.3109123E-03
   maximum displ.:     0.0188999 α      in ANC's #9, #19, #26, ...

........................................................................
.............................. CYCLE    3 ..............................
........................................................................

 iter      E             dE          RMSdq      gap      omega  full diag
   1    -26.6861787 -0.266862E+02  0.627E-02    3.18       0.0  T
   2    -26.6861946 -0.158634E-04  0.324E-02    3.17       1.0  T
   3    -26.6861948 -0.221046E-06  0.184E-02    3.17       1.4  T
   4    -26.6861946  0.218991E-06  0.656E-03    3.17       4.1  T
   5    -26.6861950 -0.356747E-06  0.148E-03    3.17      18.0  T
   6    -26.6861950  0.799375E-09  0.529E-04    3.17      50.5  T
   7    -26.6861950 -0.219524E-08  0.133E-04    3.17     200.4  T
     SCC iter.                  ...        0 min,  0.002 sec
     gradient                   ...        0 min,  0.003 sec
 * total energy  :   -26.3400067 Eh     change       -0.1590066E-03 Eh
   gradient norm :     0.0069439 Eh/α   predicted    -0.1556510E-03 (  -2.11%)
   displ. norm   :     0.0279819 α      lambda       -0.7879354E-04
   maximum displ.:     0.0168031 α      in ANC's #7, #10, #1, ...

........................................................................
.............................. CYCLE    4 ..............................
........................................................................

 iter      E             dE          RMSdq      gap      omega  full diag
   1    -26.6861961 -0.266862E+02  0.340E-02    3.17       0.0  T
   2    -26.6861969 -0.812653E-06  0.194E-02    3.17       1.4  T
   3    -26.6861968  0.145326E-06  0.696E-03    3.17       3.8  T
   4    -26.6861970 -0.230886E-06  0.200E-03    3.17      13.4  T
   5    -26.6861970 -0.311536E-07  0.617E-04    3.17      43.3  T
   6    -26.6861970 -0.706990E-12  0.176E-04    3.17     151.9  T
     SCC iter.                  ...        0 min,  0.002 sec
     gradient                   ...        0 min,  0.003 sec
 * total energy  :   -26.3399993 Eh     change        0.7338599E-05 Eh
   gradient norm :     0.0057818 Eh/α   predicted    -0.3942798E-04 (-637.27%)
   displ. norm   :     0.0180808 α      lambda       -0.7366670E-04
   maximum displ.:     0.0106286 α      in ANC's #7, #10, #1, ...

........................................................................
.............................. CYCLE    5 ..............................
........................................................................

 iter      E             dE          RMSdq      gap      omega  full diag
   1    -26.6853115 -0.266853E+02  0.197E-02    3.16       0.0  T
   2    -26.6853120 -0.570093E-06  0.113E-02    3.16       2.4  T
   3    -26.6853120 -0.954166E-08  0.385E-03    3.16       6.9  T
   4    -26.6853120 -0.971674E-09  0.155E-03    3.16      17.3  T
   5    -26.6853121 -0.283306E-07  0.490E-04    3.16      54.6  T
   6    -26.6853121 -0.107892E-09  0.126E-04    3.16     212.4  T
     SCC iter.                  ...        0 min,  0.002 sec
     gradient                   ...        0 min,  0.003 sec
 * total energy  :   -26.3400398 Eh     change       -0.4043571E-04 Eh
   gradient norm :     0.0018863 Eh/α   predicted    -0.3684527E-04 (  -8.88%)
   displ. norm   :     0.0037788 α      lambda       -0.3023371E-05
   maximum displ.:     0.0017863 α      in ANC's #35, #9, #14, ...

........................................................................
.............................. CYCLE    6 ..............................
........................................................................

 iter      E             dE          RMSdq      gap      omega  full diag
   1    -26.6848578 -0.266849E+02  0.760E-03    3.16       0.0  T
   2    -26.6848580 -0.216275E-06  0.429E-03    3.16       6.2  T
   3    -26.6848580 -0.243478E-08  0.233E-03    3.16      11.5  T
   4    -26.6848580 -0.726330E-08  0.906E-04    3.16      29.5  T
   5    -26.6848580 -0.689431E-08  0.206E-04    3.16     129.8  T
     SCC iter.                  ...        0 min,  0.001 sec
     gradient                   ...        0 min,  0.003 sec
 * total energy  :   -26.3400417 Eh     change       -0.1958287E-05 Eh
   gradient norm :     0.0003644 Eh/α   predicted    -0.1512545E-05 ( -22.76%)
   displ. norm   :     0.0013128 α      lambda       -0.2392330E-06
   maximum displ.:     0.0006644 α      in ANC's #7, #10, #9, ...

........................................................................
.............................. CYCLE    7 ..............................
........................................................................

 iter      E             dE          RMSdq      gap      omega  full diag
   1    -26.6849571 -0.266850E+02  0.183E-03    3.16       0.0  T
   2    -26.6849571 -0.361291E-08  0.109E-03    3.16      24.6  T
   3    -26.6849571  0.166075E-09  0.363E-04    3.16      73.6  T
   4    -26.6849571 -0.281922E-09  0.157E-04    3.16     170.6  T
     SCC iter.                  ...        0 min,  0.001 sec
     gradient                   ...        0 min,  0.003 sec
 * total energy  :   -26.3400419 Eh     change       -0.1765056E-06 Eh
   gradient norm :     0.0000935 Eh/α   predicted    -0.1188290E-06 ( -32.68%)
   displ. norm   :     0.0003463 α      lambda       -0.1356297E-07
   maximum displ.:     0.0001539 α      in ANC's #1, #7, #23, ...

........................................................................
.............................. CYCLE    8 ..............................
........................................................................

 iter      E             dE          RMSdq      gap      omega  full diag
   1    -26.6849695 -0.266850E+02  0.633E-04    3.16       0.0  T
   2    -26.6849695 -0.775167E-10  0.375E-04    3.16      71.3  T
   3    -26.6849695  0.104940E-09  0.131E-04    3.16     203.9  T
     SCC iter.                  ...        0 min,  0.001 sec
     gradient                   ...        0 min,  0.003 sec
 * total energy  :   -26.3400419 Eh     change       -0.1006367E-07 Eh
   gradient norm :     0.0000240 Eh/α   predicted    -0.7079412E-08 ( -29.65%)
   displ. norm   :     0.0001079 α      lambda       -0.2877401E-08
   maximum displ.:     0.0000628 α      in ANC's #2, #3, #7, ...

   *** GEOMETRY OPTIMIZATION CONVERGED AFTER 8 ITERATIONS ***

------------------------------------------------------------------------
 total energy gain   :        -0.0014661 Eh       -0.9200 kcal/mol
 total RMSD          :         0.0312516 a0        0.0165 Å
 total power (kW/mol):        -0.4811435 (step)  -76.5770 (real)
------------------------------------------------------------------------

 ANCopt (total)                0 d,  0 h,  0 min,  0.050 sec
 optimizer setup                ...        0 min,  0.000 sec (  0.756%)
 model hessian                  ...        0 min,  0.001 sec (  2.397%)
 ANC generation                 ...        0 min,  0.000 sec (  0.408%)
 coordinate transformation      ...        0 min,  0.000 sec (  0.094%)
 single point calculation       ...        0 min,  0.046 sec ( 91.933%)
 optimization log               ...        0 min,  0.001 sec (  2.209%)
 hessian update                 ...        0 min,  0.000 sec (  0.098%)
 rational function              ...        0 min,  0.001 sec (  1.417%)

================
 final structure:
================
$coord
       -4.83174106878059        0.00000107370570        0.00000794138882      C
       -3.53097194756046       -2.27581256540776        0.00072083034953      C
       -0.91937947484943       -2.28895998371530        0.00070213121534      C
        0.36711686387890       -0.00000016121869       -0.00000384586708      C
       -0.91937838869936        2.28896027992180       -0.00070169460128      C
       -3.53097086322129        2.27581409308108       -0.00070738185778      C
        3.09328648330614       -0.00000087776419       -0.00000270757911      N
        4.15712498527574        2.02930239241386        0.00052102636121      O
        4.15712397697555       -2.02930473244042       -0.00047752757903      O
       -6.87176222237650        0.00000157885783       -0.00000740933065      H
       -4.55443691898479       -4.03937913399718        0.00129044437154      H
        0.14307738476532       -4.02979465030705        0.00125533320320      H
        0.14307933559708        4.02979442133792       -0.00123435954570      H
       -4.55443502098103        4.03938113725924       -0.00127813009748      H
$end
 
 Bond Distances (Angstroems)
 ---------------------------
C1-C2=1.3871         C1-C6=1.3871         C1-H10=1.0795        C2-C1=1.3871         C2-C3=1.3820         C2-H11=1.0790        
C3-C2=1.3820         C3-C4=1.3895         C3-H12=1.0792        C4-C3=1.3895         C4-C5=1.3895         C4-N7=1.4426         
C5-C4=1.3895         C5-C6=1.3820         C5-H13=1.0792        C6-C1=1.3871         C6-C5=1.3820         C6-H14=1.0790        
N7-C4=1.4426         N7-O8=1.2125         N7-O9=1.2125         O8-N7=1.2125         O9-N7=1.2125         H10-C1=1.0795        
H11-C2=1.0790        H12-C3=1.0792        H13-C5=1.0792        H14-C6=1.0790        
 C  H  Rav=1.0792 sigma=0.0002  Rmin=1.0790  Rmax=1.0795     5
 C  C  Rav=1.3862 sigma=0.0031  Rmin=1.3820  Rmax=1.3895     6
 N  C  Rav=1.4426 sigma=0.0000  Rmin=1.4426  Rmax=1.4426     1
 O  N  Rav=1.2125 sigma=0.0000  Rmin=1.2125  Rmax=1.2125     2
 
 selected bond angles (degree)
 --------------------
C6-C1-C2=120.50                H10-C1-C2=119.75               H10-C1-C6=119.75               C3-C2-C1=120.04                
H11-C2-C1=120.12               H11-C2-C3=119.84               C4-C3-C2=119.05                H12-C3-C2=121.68               
H12-C3-C4=119.27               C5-C4-C3=121.32                N7-C4-C3=119.34                N7-C4-C5=119.34                
C6-C5-C4=119.05                H13-C5-C4=119.27               H13-C5-C6=121.68               C5-C6-C1=120.04                
H14-C6-C1=120.12               H14-C6-C5=119.84               O8-N7-C4=117.67                O9-N7-C4=117.67                
O9-N7-O8=124.67                
 
 selected dihedral angles (degree)
 ---------------------------------
C3-C2-C1-C6=  0.00            C3-C2-C1-H10=180.00           H11-C2-C1-C6=180.00           H11-C2-C1-H10=  0.00          
C4-C3-C2-C1=  0.00            C4-C3-C2-H11=180.00           H12-C3-C2-C1=180.00           H12-C3-C2-H11=  0.00          
C5-C4-C3-C2=  0.00            C5-C4-C3-H12=180.00           N7-C4-C3-C2=180.00            N7-C4-C3-H12=  0.00           
C6-C5-C4-C3=  0.00            C6-C5-C4-N7=180.00            H13-C5-C4-C3=180.00           H13-C5-C4-N7=  0.00           
C5-C6-C1-C2=  0.00            C5-C6-C1-H10=180.00           H14-C6-C1-C2=180.00           H14-C6-C1-H10=  0.00          
C1-C6-C5-C4=  0.00            C1-C6-C5-H13=180.00           H14-C6-C5-C4=180.00           H14-C6-C5-H13=  0.00          
O8-N7-C4-C3=180.03            O8-N7-C4-C5=  0.03            O9-N7-C4-C3=  0.03            O9-N7-C4-C5=180.03            
           -------------------------------------------------
          |                Final Singlepoint                |
           -------------------------------------------------

          ...................................................
          :                      SETUP                      :
          :.................................................:
          :  # basis functions                  41          :
          :  # atomic orbitals                  41          :
          :  # shells                           23          :
          :  # electrons                        46          :
          :  max. iterations                   250          :
          :  Hamiltonian                  GFN2-xTB          :
          :  restarted?                      false          :
          :  GBSA solvation                  false          :
          :  PC potential                    false          :
          :  electronic temp.          300.0000000     K    :
          :  accuracy                    1.0000000          :
          :  -> integral cutoff          0.2500000E+02      :
          :  -> integral neglect         0.1000000E-07      :
          :  -> SCF convergence          0.1000000E-05 Eh   :
          :  -> wf. convergence          0.1000000E-03 e    :
          :  Broyden damping             0.4000000          :
          :  net charge                          0          :
          :  unpaired electrons                  0          :
          ...................................................

 iter      E             dE          RMSdq      gap      omega  full diag
   1    -26.6849695 -0.266850E+02  0.230E-05    3.16       0.0  T
   2    -26.6849695 -0.479616E-12  0.148E-05    3.16    1802.2  T
   3    -26.6849695  0.273559E-12  0.891E-06    3.16    2998.4  T

   *** convergence criteria satisfied after 3 iterations ***

         #    Occupation            Energy/Eh            Energy/eV
      -------------------------------------------------------------
         1        2.0000           -0.7730168             -21.0349
       ...           ...                  ...                  ...
        17        2.0000           -0.4748306             -12.9208
        18        2.0000           -0.4716713             -12.8348
        19        2.0000           -0.4594362             -12.5019
        20        2.0000           -0.4501302             -12.2487
        21        2.0000           -0.4487666             -12.2116
        22        2.0000           -0.4441473             -12.0859
        23        2.0000           -0.4392225             -11.9519 (HOMO)
        24                         -0.3230295              -8.7901 (LUMO)
        25                         -0.2616175              -7.1190
        26                         -0.2411688              -6.5625
        27                         -0.1254159              -3.4127
        28                         -0.0114326              -0.3111
       ...                                ...                  ...
        41                          0.6248676              17.0035
      -------------------------------------------------------------
                  HL-Gap            0.1161930 Eh            3.1618 eV
             Fermi-level           -0.3811260 Eh          -10.3710 eV

 SCC (total)                   0 d,  0 h,  0 min,  0.005 sec
 SCC setup                      ...        0 min,  0.000 sec (  1.730%)
 Dispersion                     ...        0 min,  0.000 sec (  0.677%)
 classical contributions        ...        0 min,  0.000 sec (  0.229%)
 integral evaluation            ...        0 min,  0.001 sec ( 24.187%)
 iterations                     ...        0 min,  0.001 sec ( 17.027%)
 molecular gradient             ...        0 min,  0.003 sec ( 54.499%)
 printout                       ...        0 min,  0.000 sec (  1.353%)

         :::::::::::::::::::::::::::::::::::::::::::::::::::::
         ::                     SUMMARY                     ::
         :::::::::::::::::::::::::::::::::::::::::::::::::::::
         :: total energy             -26.340041905164 Eh    ::
         :: gradient norm              0.000023833276 Eh/a0 ::
         :: HOMO-LUMO gap              3.161772008473 eV    ::
         ::.................................................::
         :: SCC energy               -26.684952110794 Eh    ::
         :: -> isotropic ES            0.049717184554 Eh    ::
         :: -> anisotropic ES          0.006435039125 Eh    ::
         :: -> anisotropic XC          0.005646724855 Eh    ::
         :: -> dispersion             -0.011163735358 Eh    ::
         :: repulsion energy           0.344910205630 Eh    ::
         :: add. restraining           0.000000000000 Eh    ::
         :: total charge              -0.000000000000 e     ::
         :::::::::::::::::::::::::::::::::::::::::::::::::::::

           ------------------------------------------------- 
          |                Numerical Hessian                |
           ------------------------------------------------- 
step length          :   0.00500
SCC accuracy         :   0.30000
Hessian scale factor :   1.00000
frozen atoms in %    :   0.00000    0
RMS gradient         :   0.00002
estimated CPU  time      0.01 min
estimated wall time      0.01 min

writing file <hessian>.

 projected vibrational frequencies (cm⁻¹)
eigval :       -0.00    -0.00    -0.00     0.00     0.00     0.00
eigval :       41.94   155.08   231.91   366.27   386.34   405.16
eigval :      538.66   583.56   640.13   669.17   699.98   796.85
eigval :      829.00   874.56   916.83   931.26   936.08   982.23
eigval :     1071.90  1110.95  1136.60  1178.22  1190.49  1265.54
eigval :     1334.52  1340.01  1440.28  1441.87  1581.59  1592.57
eigval :     1659.14  3089.94  3096.89  3101.86  3107.22  3108.81
           -------------------------------------------------
          |                Property Printout                |
           -------------------------------------------------

    * Orbital Energies and Occupations

         #    Occupation            Energy/Eh            Energy/eV
      -------------------------------------------------------------
         1        2.0000           -0.7730167             -21.0349
       ...           ...                  ...                  ...
        11        2.0000           -0.5829723             -15.8635
        12        2.0000           -0.5502694             -14.9736
        13        2.0000           -0.5312133             -14.4550
        14        2.0000           -0.5236876             -14.2503
        15        2.0000           -0.5176834             -14.0869
        16        2.0000           -0.5133687             -13.9695
        17        2.0000           -0.4748307             -12.9208
        18        2.0000           -0.4716713             -12.8348
        19        2.0000           -0.4594362             -12.5019
        20        2.0000           -0.4501302             -12.2487
        21        2.0000           -0.4487666             -12.2116
        22        2.0000           -0.4441473             -12.0859
        23        2.0000           -0.4392225             -11.9519 (HOMO)
        24                         -0.3230295              -8.7901 (LUMO)
        25                         -0.2616175              -7.1190
        26                         -0.2411688              -6.5625
        27                         -0.1254159              -3.4127
        28                         -0.0114326              -0.3111
        29                          0.0978854               2.6636
        30                          0.1179333               3.2091
        31                          0.1420316               3.8649
        32                          0.1572974               4.2803
        33                          0.1669530               4.5430
        34                          0.2372476               6.4558
       ...                                ...                  ...
        41                          0.6248676              17.0035
      -------------------------------------------------------------
                  HL-Gap            0.1161930 Eh            3.1618 eV
             Fermi-level           -0.3811260 Eh          -10.3710 eV

     #   Z          covCN         q      C6AA      α(0)
     1   6 C        2.920    -0.016    28.418     8.742
     2   6 C        2.920    -0.022    28.554     8.763
     3   6 C        2.919    -0.020    28.507     8.756
     4   6 C        2.917     0.004    27.924     8.665
     5   6 C        2.919    -0.020    28.507     8.756
     6   6 C        2.920    -0.022    28.554     8.763
     7   7 N        2.760     0.544    13.543     5.466
     8   8 O        0.930    -0.385    21.347     6.196
     9   8 O        0.930    -0.385    21.347     6.196
    10   1 H        0.926     0.053     2.277     2.360
    11   1 H        0.926     0.055     2.261     2.352
    12   1 H        0.926     0.079     1.987     2.204
    13   1 H        0.926     0.079     1.987     2.204
    14   1 H        0.926     0.055     2.261     2.352

 Mol. C6AA /au·bohr⁶  :       2714.836016
 Mol. C8AA /au·bohr⁸  :      65377.297444
 Mol. α(0) /au        :         81.773402


Wiberg/Mayer (AO) data.
largest (>0.10) Wiberg bond orders for each atom

 ---------------------------------------------------------------------------
     #   Z sym  total        # sym  WBO       # sym  WBO       # sym  WBO
 ---------------------------------------------------------------------------
     1   6 C    3.990 --     6 C    1.432     2 C    1.432    10 H    0.970
     2   6 C    3.991 --     3 C    1.453     1 C    1.432    11 H    0.969
                             5 C    0.107
     3   6 C    3.986 --     2 C    1.453     4 C    1.383    12 H    0.961
                             6 C    0.107
     4   6 C    3.963 --     3 C    1.383     5 C    1.383     7 N    0.962
     5   6 C    3.986 --     6 C    1.453     4 C    1.383    13 H    0.961
                             2 C    0.107
     6   6 C    3.991 --     5 C    1.453     1 C    1.432    14 H    0.969
                             3 C    0.107
     7   7 N    3.911 --     8 O    1.453     9 O    1.453     4 C    0.962
     8   8 O    1.936 --     7 N    1.453     9 O    0.362
     9   8 O    1.936 --     7 N    1.453     8 O    0.362
    10   1 H    0.997 --     1 C    0.970
    11   1 H    0.996 --     2 C    0.969
    12   1 H    0.994 --     3 C    0.961
    13   1 H    0.994 --     5 C    0.961
    14   1 H    0.996 --     6 C    0.969
 ---------------------------------------------------------------------------

Topologies differ in total number of bonds
Writing topology from bond orders to xtbtopo.mol

molecular dipole:
                 x           y           z       tot (Debye)
 q only:       -2.088       0.000      -0.000
   full:       -2.164       0.000      -0.000       5.500
molecular quadrupole (traceless):
                xx          xy          yy          xz          yz          zz
 q only:       -4.634       0.000       2.881      -0.000      -0.003       1.752
  q+dip:       -3.821       0.000       3.712      -0.000      -0.006       0.109
   full:       -5.444       0.000       2.178      -0.000      -0.004       3.266

           -------------------------------------------------
          |                Geometry Summary                 |
           -------------------------------------------------

      molecular mass/u    :      123.1096322
   center of mass at/Å    :        0.0000141      -0.0000001       0.0000039
  moments of inertia/u·Å² :        0.1253615E+03   0.3859590E+03   0.5113204E+03
rotational constants/cm⁻¹ :        0.1344722E+00   0.4367727E-01   0.3296882E-01

 * 13 selected distances

     #   Z          #   Z                                           value/Å
     1   6 C        2   6 C                                       1.3871439
     2   6 C        3   6 C                                       1.3820129
     3   6 C        4   6 C                                       1.3894718
     4   6 C        5   6 C                                       1.3894718 (max)
     1   6 C        6   6 C                                       1.3871439
     5   6 C        6   6 C                                       1.3820129
     7   7 N        8   8 O                                       1.2124771
     7   7 N        9   8 O                                       1.2124772
     1   6 C       10   1 H                                       1.0795328
     2   6 C       11   1 H                                       1.0790089 (min)
     3   6 C       12   1 H                                       1.0792259
     5   6 C       13   1 H                                       1.0792259
     6   6 C       14   1 H                                       1.0790089

 * 3 distinct bonds (by element types)

   Z      Z             #   av. dist./Å        max./Å        min./Å
   1 H    6 C           5     1.0792005     1.0795328     1.0790089
   6 C    6 C           6     1.3862095     1.3894718     1.3820129
   7 N    8 O           2     1.2124772     1.2124772     1.2124771

           -------------------------------------------------
          |               Frequency Printout                |
           -------------------------------------------------
 projected vibrational frequencies (cm⁻¹)
eigval :       -0.00    -0.00    -0.00     0.00     0.00     0.00
eigval :       41.94   155.08   231.91   366.27   386.34   405.16
eigval :      538.66   583.56   640.13   669.17   699.98   796.85
eigval :      829.00   874.56   916.83   931.26   936.08   982.23
eigval :     1071.90  1110.95  1136.60  1178.22  1190.49  1265.54
eigval :     1334.52  1340.01  1440.28  1441.87  1581.59  1592.57
eigval :     1659.14  3089.94  3096.89  3101.86  3107.22  3108.81
 reduced masses (amu)
   1: 14.64   2: 11.36   3: 11.72   4: 12.66   5: 11.22   6: 14.25   7: 14.13   8: 11.19
   9: 13.00  10:  8.80  11: 13.40  12: 10.20  13: 13.79  14: 11.20  15: 10.62  16: 12.59
  17:  7.64  18:  8.55  19: 13.93  20:  3.34  21:  3.58  22:  4.19  23:  3.38  24: 11.22
  25:  6.33  26:  3.39  27:  8.79  28:  1.43  29:  3.43  30:  3.65  31: 11.93  32: 14.94
  33:  9.17  34:  8.63  35: 11.50  36: 11.70  37: 14.63  38:  1.77  39:  1.80  40:  1.84
  41:  1.88  42:  1.92
 IR intensities (km·mol⁻¹)
   1:  1.62   2:  1.03   3:  1.34   4:  0.43   5:  0.95   6:  0.50   7:  0.00   8:  4.13
   9:  3.07  10:  0.00  11:  1.05  12:  1.87  13:  0.06  14:  0.08  15:  0.55  16: 18.28
  17: 84.90  18:  0.41  19: 61.65  20:  0.00  21:  0.88  22:  0.00  23:  0.01  24:  1.74
  25:  1.65  26:  1.93  27: 63.47  28:  0.01  29:  0.15  30:  0.64  31:  3.23  32:476.02
  33:  0.44  34:  0.46  35:  7.58  36:  4.31  37:361.42  38:  1.97  39: 12.10  40:  9.47
  41:  7.11  42: 10.80
 Raman intensities (Ä⁴*amu⁻¹)
   1:  0.00   2:  0.00   3:  0.00   4:  0.00   5:  0.00   6:  0.00   7:  0.00   8:  0.00
   9:  0.00  10:  0.00  11:  0.00  12:  0.00  13:  0.00  14:  0.00  15:  0.00  16:  0.00
  17:  0.00  18:  0.00  19:  0.00  20:  0.00  21:  0.00  22:  0.00  23:  0.00  24:  0.00
  25:  0.00  26:  0.00  27:  0.00  28:  0.00  29:  0.00  30:  0.00  31:  0.00  32:  0.00
  33:  0.00  34:  0.00  35:  0.00  36:  0.00  37:  0.00  38:  0.00  39:  0.00  40:  0.00
  41:  0.00  42:  0.00
 output can be read by thermo (or use thermo option).
 writing <g98.out> molden fake output.
 recommended (thermochemical) frequency scaling factor: 1.0
           -------------------------------------------------
          |             Thermodynamic Functions             |
           -------------------------------------------------

Molecule has the following symmetry elements: (C2) 2*(sigma) 
It seems to be the C2v point group
c2v symmetry found (for desy threshold:  0.10E+00) used in thermo

          ...................................................
          :                      SETUP                      :
          :.................................................:
          :  # frequencies                          36      :
          :  # imaginary freq.                       0      :
          :  linear?                             false      :
          :  only rotor calc.                    false      :
          :  symmetry                              c2v      :
          :  rotational number                       2      :
          :  scaling factor                  1.0000000      :
          :  rotor cutoff                    0.0000000 cm⁻¹ :
          :  imag. cutoff                 -100.0000000 cm⁻¹ :
          :.................................................:

    mode    ω/cm⁻¹     T·S(HO)/kcal·mol⁻¹    T·S(FR)/kcal·mol⁻¹   T·S(vib)
   ------------------------------------------------------------------------
       1     41.94    -1.54009 (100.00%)    -1.10831 (  0.00%)    -1.54009
       2    155.08    -0.77785 (100.00%)    -0.72113 (  0.00%)    -0.77785
       3    231.91    -0.55578 (100.00%)    -0.60195 (  0.00%)    -0.55578
   ------------------------------------------------------------------------

   temp. (K)  partition function   enthalpy   heat capacity  entropy
                                   cal/mol     cal/K/mol   cal/K/mol   J/K/mol
 298.15  VIB   37.7                 2680.081     20.671     16.203
         ROT  0.190E+06              888.752      2.981     27.135
         INT  0.716E+07             3568.834     23.652     43.338
         TR   0.132E+28             1481.254      4.968     40.319
         TOT                        5050.0874    28.6199    83.6574   350.0226

       T/K    H(0)-H(T)+PV         H(T)/Eh          T*S/Eh         G(T)/Eh
   ------------------------------------------------------------------------
    298.15    0.804783E-02    0.107908E+00    0.397483E-01    0.681594E-01
   ------------------------------------------------------------------------

         :::::::::::::::::::::::::::::::::::::::::::::::::::::
         ::                  THERMODYNAMIC                  ::
         :::::::::::::::::::::::::::::::::::::::::::::::::::::
         :: total free energy         -26.271882511088 Eh   ::
         ::.................................................::
         :: total energy              -26.340041905167 Eh   ::
         :: zero point energy           0.099859905533 Eh   ::
         :: G(RRHO) w/o ZPVE           -0.031700511454 Eh   ::
         :: G(RRHO) contrib.            0.068159394079 Eh   ::
         :::::::::::::::::::::::::::::::::::::::::::::::::::::

optimized geometry written to: xtbopt.coord


           -------------------------------------------------
          | TOTAL ENERGY              -26.340041905167 Eh   |
          | TOTAL ENTHALPY            -26.232134173030 Eh   |
          | TOTAL FREE ENERGY         -26.271882511088 Eh   |
          | GRADIENT NORM               0.000023765466 Eh/α |
          | HOMO-LUMO GAP               3.161771440658 eV   |
           -------------------------------------------------

------------------------------------------------------------------------
 * finished run on 2025/04/15 at 19:49:50.172     
------------------------------------------------------------------------
 total:
 * wall-time:     0 d,  0 h,  0 min,  0.603 sec
 *  cpu-time:     0 d,  0 h,  0 min,  0.573 sec
 * ratio c/w:     0.951 speedup
 SCF:
 * wall-time:     0 d,  0 h,  0 min,  0.032 sec
 *  cpu-time:     0 d,  0 h,  0 min,  0.015 sec
 * ratio c/w:     0.487 speedup
 ANC optimizer:
 * wall-time:     0 d,  0 h,  0 min,  0.059 sec
 *  cpu-time:     0 d,  0 h,  0 min,  0.057 sec
 * ratio c/w:     0.965 speedup
 analytical hessian:
 * wall-time:     0 d,  0 h,  0 min,  0.491 sec
 *  cpu-time:     0 d,  0 h,  0 min,  0.489 sec
 * ratio c/w:     0.997 speedup

