
                                 *****************
                                 * O   R   C   A *
                                 *****************

                                            #,                                       
                                            ###                                      
                                            ####                                     
                                            #####                                    
                                            ######                                   
                                           ########,                                 
                                     ,,################,,,,,                         
                               ,,#################################,,                 
                          ,,##########################################,,             
                       ,#########################################, ''#####,          
                    ,#############################################,,   '####,        
                  ,##################################################,,,,####,       
                ,###########''''           ''''###############################       
              ,#####''   ,,,,##########,,,,          '''####'''          '####       
            ,##' ,,,,###########################,,,                        '##       
           ' ,,###''''                  '''############,,,                           
         ,,##''                                '''############,,,,        ,,,,,,###''
      ,#''                                            '''#######################'''  
     '                                                          ''''####''''         
             ,#######,   #######,   ,#######,      ##                                
            ,#'     '#,  ##    ##  ,#'     '#,    #''#        ,####,   ,####,        
            ##       ##  ##   ,#'  ##            #'  '#       #'       #'  '#        
            ##       ##  #######   ##           ,######,      #####,   #    #        
            '#,     ,#'  ##    ##  '#,     ,#' ,#      #,     #,   #   #,  ,#        
             '#######'   ##     ##  '#######'  #'      '#     '####' # '####'        



                #########################################################
                #                        -***-                          #
                #          Department of theory and spectroscopy        #
                #                                                       #
                #                      Frank Neese                      #
                #                                                       #
                #     Directorship, Architecture, Infrastructure        #
                #                    SHARK, DRIVERS                     #
                #        Core code/Algorithms in most modules           #
                #                                                       #
                #        Max Planck Institute fuer Kohlenforschung      #
                #                Kaiser Wilhelm Platz 1                 #
                #                 D-45470 Muelheim/Ruhr                 #
                #                      Germany                          #
                #                                                       #
                #                  All rights reserved                  #
                #                        -***-                          #
                #########################################################


                         Program Version 6.0.0  -   RELEASE  -


 With contributions from (in alphabetic order):
   Daniel Aravena         : Magnetic Suceptibility
   Michael Atanasov       : Ab Initio Ligand Field Theory (pilot matlab implementation)
   Alexander A. Auer      : GIAO ZORA, VPT2 properties, NMR spectrum
   Ute Becker             : All parallelization in ORCA, NUMFREQ, NUMCALC
   Giovanni Bistoni       : ED, misc. LED, open-shell LED, HFLD
   Martin Brehm           : Molecular dynamics
   Dmytro Bykov           : pre 5.0 version of the SCF Hessian
   Marcos Casanova-Páez   : Triplet and SCS-CIS(D). UHF-(DLPNO)-IP/EA/STEOM-CCSD. UHF-CVS-IP/STEOM-CCSD
   Vijay G. Chilkuri      : MRCI spin determinant printing, contributions to CSF-ICE
   Pauline Colinet        : FMM embedding
   Dipayan Datta          : RHF DLPNO-CCSD density
   Achintya Kumar Dutta   : EOM-CC, STEOM-CC
   Nicolas Foglia         : Exact transition moments, OPA infrastructure, MCD improvements
   Dmitry Ganyushin       : Spin-Orbit,Spin-Spin,Magnetic field MRCI
   Miquel Garcia          : C-PCM and meta-GGA Hessian, CCSD/C-PCM, Gaussian charge scheme
   Tiago L. C. Gouveia    : GS-ROHF, GS-ROCIS
   Yang Guo               : DLPNO-NEVPT2, F12-NEVPT2, CIM, IAO-localization
   Andreas Hansen         : Spin unrestricted coupled pair/coupled cluster methods
   Ingolf Harden          : AUTO-CI MPn and infrastructure 
   Benjamin Helmich-Paris : MC-RPA, TRAH-(SCF,CASSCF), AVAS, COSX integrals, SCF dyn. polar.
   Lee Huntington         : MR-EOM, pCC
   Robert Izsak           : Overlap fitted RIJCOSX, COSX-SCS-MP3, EOM
   Riya Kayal             : Wick's Theorem for AUTO-CI, AUTO-CI UHF-CCSDT
   Emily Kempfer          : AUTO-CI, RHF CISDT and CCSDT
   Christian Kollmar      : KDIIS, OOCD, Brueckner-CCSD(T), CCSD density, CASPT2, CASPT2-K, improved NEVPT2
   Axel Koslowski         : Symmetry handling
   Simone Kossmann        : Meta GGA functionals, TD-DFT gradient, OOMP2, (MP2 Hessian; deprecated post 5.0)
   Lucas Lang             : DCDCAS
   Marvin Lechner         : AUTO-CI (C++ implementation), FIC-MRCC
   Spencer Leger          : CASSCF response
   Dagmar Lenk            : GEPOL surface, SMD, ORCA-2-JSON
   Dimitrios Liakos       : Extrapolation schemes; Compound Job, initial MDCI parallelization
   Dimitrios Manganas     : Further ROCIS development; embedding schemes. LFT, Crystal Embedding
   Dimitrios Pantazis     : SARC Basis sets
   Anastasios Papadopoulos: AUTO-CI, single reference methods and gradients
   Taras Petrenko         : pre 6.0 DFT Hessian and TD-DFT gradient, (ASA, deprecated), ECA, 1-Electron XAS/XES, NRVS
   Peter Pinski           : DLPNO-MP2, DLPNO-MP2 Gradient
   Christoph Reimann      : Effective Core Potentials
   Marius Retegan         : Local ZFS, SOC
   Christoph Riplinger    : Optimizer, TS searches, QM/MM, DLPNO-CCSD(T), (RO)-DLPNO pert. Triples
   Michael Roemelt        : Original ROCIS implementation
   Masaaki Saitow         : Open-shell DLPNO-CCSD energy and density
   Barbara Sandhoefer     : DKH picture change effects
   Kantharuban Sivalingam : CASSCF convergence/infrastructure, NEVPT2 and variants, FIC-MRCI
   Bernardo de Souza      : ESD, SOC TD-DFT
   Georgi Stoychev        : AutoAux, RI-MP2 NMR, DLPNO-MP2 response, X2C
   Van Anh Tran           : RI-MP2 g-tensors
   Willem Van den Heuvel  : Paramagnetic NMR
   Zikuan Wang            : NOTCH, Electric field optimization 
   Frank Wennmohs         : Technical directorship and infrastructure
   Hang Xu                : AUTO-CI-Response properties 


 We gratefully acknowledge several colleagues who have allowed us to
 interface, adapt or use parts of their codes:
   Stefan Grimme, W. Hujo, H. Kruse, P. Pracht,  : VdW corrections, initial TS optimization,
                  C. Bannwarth, S. Ehlert,         DFT functionals, gCP, sTDA/sTD-DF
                  L. Wittmann, M. Mueller
   Ed Valeev, F. Pavosevic, A. Kumar             : LibInt (2-el integral package), F12 methods
   Garnet Chan, S. Sharma, J. Yang, R. Olivares  : DMRG
   Ulf Ekstrom                                   : XCFun DFT Library
   Mihaly Kallay                                 : mrcc  (arbitrary order and MRCC methods)
   Frank Weinhold                                : gennbo (NPA and NBO analysis)
   Simon Mueller                                 : openCOSMO-RS
   Christopher J. Cramer and Donald G. Truhlar   : smd solvation model
   Lars Goerigk                                  : TD-DFT with DH, B97 family of functionals
   V. Asgeirsson, H. Jonsson                     : NEB implementation
   FAccTs GmbH                                   : IRC, NEB, NEB-TS, DLPNO-Multilevel, CI-OPT
                                                   MM, QMMM, 2- and 3-layer-ONIOM, Crystal-QMMM,
                                                   LR-CPCM, SF, NACMEs, symmetry and pop. for TD-DFT,
                                                   nearIR, NL-DFT gradient (VV10), updates on ESD,
                                                   ML-optimized integration grids, MBIS, APM,
                                                   GOAT, DOCKER, SOLVATOR, interface openCOSMO-RS
   S Lehtola, MJT Oliveira, MAL Marques          : LibXC Library
   Liviu Ungur et al                             : ANISO software


 Your calculation uses the libint2 library for the computation of 2-el integrals
 For citations please refer to: http://libint.valeyev.net

 Your ORCA version has been built with support for libXC version: 6.2.2
 For citations please refer to: https://libxc.gitlab.io

 This ORCA versions uses:
   CBLAS   interface :  Fast vector & matrix operations
   LAPACKE interface :  Fast linear algebra routines
   SCALAPACK package :  Parallel linear algebra routines
   Shared memory     :  Shared parallel matrices
   BLAS/LAPACK       :  OpenBLAS 0.3.27  USE64BITINT DYNAMIC_ARCH NO_AFFINITY SkylakeX SINGLE_THREADED
        Core in use  :  SkylakeX
   Copyright (c) 2011-2014, The OpenBLAS Project




***************************************
The coordinates will be read from file: censo.xyz
***************************************


Your calculation utilizes the geometrical counterpoise correction gCP
Please cite in your paper:
H.Kruse, S. Grimme J.Chem.Phys., 136, (2012), 154101 
   

Your calculation utilizes the atom-pairwise dispersion correction
based on EEQ partial charges (D4)


================================================================================

----- Orbital basis set information -----
Your calculation utilizes the basis: def2-TZVP
   F. Weigend and R. Ahlrichs, Phys. Chem. Chem. Phys. 7, 3297 (2005).

----- AuxJ basis set information -----
Your calculation utilizes the basis: def2-mTZVPP/J
   Stefan Grimme, Andreas Hansen, Sebastian Ehlert, and Jan-Michael Mewes 
   J. Chem. Phys. 154, 000000 (2021). DOI: 10.1063/5.0040021

================================================================================
                                        WARNINGS
                       Please study these warnings very carefully!
================================================================================

Using LibXC functional ID 497 : Re-regularized SCAN exchange by Furness et al
[ 1]  J. W. Furness, A. D. Kaplan, J. Ning, J. P. Perdew, and J. Sun.,  J. Phys. Chem. Lett. 11, 8208-8215 (2020)
[ 2]  J. W. Furness, A. D. Kaplan, J. Ning, J. P. Perdew, and J. Sun.,  J. Phys. Chem. Lett. 11, 9248-9248 (2020)
Using LibXC functional ID 498 : Re-regularized SCAN correlation by Furness et al
[ 1]  J. W. Furness, A. D. Kaplan, J. Ning, J. P. Perdew, and J. Sun.,  J. Phys. Chem. Lett. 11, 8208-8215 (2020)
[ 2]  J. W. Furness, A. D. Kaplan, J. Ning, J. P. Perdew, and J. Sun.,  J. Phys. Chem. Lett. 11, 9248-9248 (2020)
Using LibXC functional ID 497 : Re-regularized SCAN exchange by Furness et al
[ 1]  J. W. Furness, A. D. Kaplan, J. Ning, J. P. Perdew, and J. Sun.,  J. Phys. Chem. Lett. 11, 8208-8215 (2020)
[ 2]  J. W. Furness, A. D. Kaplan, J. Ning, J. P. Perdew, and J. Sun.,  J. Phys. Chem. Lett. 11, 9248-9248 (2020)
Using LibXC functional ID 498 : Re-regularized SCAN correlation by Furness et al
[ 1]  J. W. Furness, A. D. Kaplan, J. Ning, J. P. Perdew, and J. Sun.,  J. Phys. Chem. Lett. 11, 8208-8215 (2020)
[ 2]  J. W. Furness, A. D. Kaplan, J. Ning, J. P. Perdew, and J. Sun.,  J. Phys. Chem. Lett. 11, 9248-9248 (2020)

================================================================================
                                       INPUT FILE
================================================================================
NAME = censo.inp
|  1> ! r2SCAN-3c DEF2-TZVP FREQ
|  2> * xyzfile 0 1 censo.xyz
|  3> 
|  4>                          ****END OF INPUT****
================================================================================

                       ****************************
                       * Single Point Calculation *
                       ****************************

---------------------------------
CARTESIAN COORDINATES (ANGSTROEM)
---------------------------------
  C     -4.415054    0.000499    0.000533
  C     -3.717362   -0.455434    1.117098
  C     -2.325681   -0.458906    1.118103
  C     -1.624402   -0.000525    0.000282
  C     -2.325574    0.458248   -1.117456
  C     -3.717245    0.455806   -1.116210
  C     -0.141620   -0.000494    0.000202
  C      0.604125    1.173623    0.162255
  C      1.992843    1.203220    0.165143
  C      2.663025   -0.000002   -0.000479
  C      1.993179   -1.203470   -0.165668
  C      0.604441   -1.174360   -0.162084
  Cl    -0.234903   -2.695009   -0.400425
  Cl     4.414926    0.000349   -0.001053
  Cl    -0.235597    2.693981    0.401183
  H     -5.500493    0.000997    0.000671
  H     -4.256782   -0.809894    1.989988
  H     -1.778871   -0.814993    1.986102
  H     -1.778646    0.813984   -1.985522
  H     -4.256559    0.810706   -1.988991
  H      2.530187    2.133736    0.298212
  H      2.530796   -2.133792   -0.298987

----------------------------
CARTESIAN COORDINATES (A.U.)
----------------------------
  NO LB      ZA    FRAG     MASS         X           Y           Z
   0 C     6.0000    0    12.011   -8.343243    0.000942    0.001007
   1 C     6.0000    0    12.011   -7.024795   -0.860645    2.111010
   2 C     6.0000    0    12.011   -4.394901   -0.867207    2.112909
   3 C     6.0000    0    12.011   -3.069676   -0.000993    0.000533
   4 C     6.0000    0    12.011   -4.394698    0.865962   -2.111685
   5 C     6.0000    0    12.011   -7.024576    0.861348   -2.109331
   6 C     6.0000    0    12.011   -0.267623   -0.000933    0.000382
   7 C     6.0000    0    12.011    1.141631    2.217825    0.306618
   8 C     6.0000    0    12.011    3.765927    2.273757    0.312075
   9 C     6.0000    0    12.011    5.032387   -0.000004   -0.000905
  10 C     6.0000    0    12.011    3.766562   -2.274229   -0.313068
  11 C     6.0000    0    12.011    1.142227   -2.219219   -0.306294
  12 Cl   17.0000    0    35.453   -0.443903   -5.092829   -0.756693
  13 Cl   17.0000    0    35.453    8.343000    0.000660   -0.001990
  14 Cl   17.0000    0    35.453   -0.445214    5.090886    0.758127
  15 H     1.0000    0     1.008  -10.394426    0.001883    0.001269
  16 H     1.0000    0     1.008   -8.044153   -1.530478    3.760533
  17 H     1.0000    0     1.008   -3.361580   -1.540113    3.753188
  18 H     1.0000    0     1.008   -3.361153    1.538206   -3.752093
  19 H     1.0000    0     1.008   -8.043730    1.532012   -3.758648
  20 H     1.0000    0     1.008    4.781360    4.032177    0.563538
  21 H     1.0000    0     1.008    4.782512   -4.032283   -0.565004

--------------------------------
INTERNAL COORDINATES (ANGSTROEM)
--------------------------------
 C      0   0   0     0.000000000000     0.00000000     0.00000000
 C      1   0   0     1.393329881854     0.00000000     0.00000000
 C      2   1   0     1.391684884017   120.14107207     0.00000000
 C      3   2   1     1.396935595257   120.04065525     0.22015037
 C      4   3   2     1.396943852489   119.73881492   359.88398430
 C      5   4   3     1.391673848201   120.04230556   359.89642842
 C      4   3   2     1.482782360497   120.13655710   179.86539173
 C      7   4   3     1.400338045331   122.17845923   255.56352202
 C      8   7   4     1.389036135194   123.40343730   180.05479619
 C      9   8   7     1.387197946910   117.66350254   359.92136610
 C     10   9   8     1.387197208993   122.23720590     0.03217624
 C     11  10   9     1.389047844079   117.66370670     0.04153114
 Cl    12  11  10     1.753190771968   117.39469461   178.91987921
 Cl    10   9   8     1.751901204023   118.88049484   180.03172241
 Cl     8   7   4     1.753199818678   119.19592488     1.07491935
 H      1   2   3     1.085439439078   120.05196934   179.89635638
 H      2   1   3     1.085612036323   120.15718916   180.02357950
 H      3   2   1     1.085919120493   120.32732353   180.09301121
 H      5   4   3     1.085918239489   119.62991492   180.01280138
 H      6   5   4     1.085614656622   119.70189331   180.18783138
 H      9   8   7     1.082730334972   120.98010320   180.28068425
 H     11  10   9     1.082730873101   121.35437972   179.67744590

---------------------------
INTERNAL COORDINATES (A.U.)
---------------------------
 C      0   0   0     0.000000000000     0.00000000     0.00000000
 C      1   0   0     2.633011890913     0.00000000     0.00000000
 C      2   1   0     2.629903295510   120.14107207     0.00000000
 C      3   2   1     2.639825701761   120.04065525     0.22015037
 C      4   3   2     2.639841305669   119.73881492   359.88398430
 C      5   4   3     2.629882440839   120.04230556   359.89642842
 C      4   3   2     2.802052577550   120.13655710   179.86539173
 C      7   4   3     2.646255400587   122.17845923   255.56352202
 C      8   7   4     2.624897885637   123.40343730   180.05479619
 C      9   8   7     2.621424213198   117.66350254   359.92136610
 C     10   9   8     2.621422818736   122.23720590     0.03217624
 C     11  10   9     2.624920012222   117.66370670     0.04153114
 Cl    12  11  10     3.313050419538   117.39469461   178.91987921
 Cl    10   9   8     3.310613489290   118.88049484   180.03172241
 Cl     8   7   4     3.313067515342   119.19592488     1.07491935
 H      1   2   3     2.051183274814   120.05196934   179.89635638
 H      2   1   3     2.051509436338   120.15718916   180.02357950
 H      3   2   1     2.052089741321   120.32732353   180.09301121
 H      5   4   3     2.052088076465   119.62991492   180.01280138
 H      6   5   4     2.051514387987   119.70189331   180.18783138
 H      9   8   7     2.046063809985   120.98010320   180.28068425
 H     11  10   9     2.046064826903   121.35437972   179.67744590

---------------------
BASIS SET INFORMATION
---------------------
There are 3 groups of distinct atoms

 Group   1 Type C   : 11s6p2d1f contracted to 5s3p2d1f pattern {62111/411/11/1}
 Group   2 Type Cl  : 14s9p3d1f contracted to 5s5p2d1f pattern {73211/51111/21/1}
 Group   3 Type H   : 5s1p contracted to 3s1p pattern {311/1}

Atom   0C    basis set group =>   1
Atom   1C    basis set group =>   1
Atom   2C    basis set group =>   1
Atom   3C    basis set group =>   1
Atom   4C    basis set group =>   1
Atom   5C    basis set group =>   1
Atom   6C    basis set group =>   1
Atom   7C    basis set group =>   1
Atom   8C    basis set group =>   1
Atom   9C    basis set group =>   1
Atom  10C    basis set group =>   1
Atom  11C    basis set group =>   1
Atom  12Cl   basis set group =>   2
Atom  13Cl   basis set group =>   2
Atom  14Cl   basis set group =>   2
Atom  15H    basis set group =>   3
Atom  16H    basis set group =>   3
Atom  17H    basis set group =>   3
Atom  18H    basis set group =>   3
Atom  19H    basis set group =>   3
Atom  20H    basis set group =>   3
Atom  21H    basis set group =>   3
---------------------------------
AUXILIARY/J BASIS SET INFORMATION
---------------------------------
There are 3 groups of distinct atoms

 Group   1 Type C   : 8s3p3d contracted to 6s3p3d pattern {311111/111/111}
 Group   2 Type Cl  : 14s5p5d2f contracted to 8s4p3d1f pattern {71111111/2111/311/2}
 Group   3 Type H   : 5s2p1d contracted to 3s1p1d pattern {311/2/1}

Atom   0C    basis set group =>   1
Atom   1C    basis set group =>   1
Atom   2C    basis set group =>   1
Atom   3C    basis set group =>   1
Atom   4C    basis set group =>   1
Atom   5C    basis set group =>   1
Atom   6C    basis set group =>   1
Atom   7C    basis set group =>   1
Atom   8C    basis set group =>   1
Atom   9C    basis set group =>   1
Atom  10C    basis set group =>   1
Atom  11C    basis set group =>   1
Atom  12Cl   basis set group =>   2
Atom  13Cl   basis set group =>   2
Atom  14Cl   basis set group =>   2
Atom  15H    basis set group =>   3
Atom  16H    basis set group =>   3
Atom  17H    basis set group =>   3
Atom  18H    basis set group =>   3
Atom  19H    basis set group =>   3
Atom  20H    basis set group =>   3
Atom  21H    basis set group =>   3
------------------------------------------------------------------------------
                             ORCA STARTUP CALCULATIONS
                           -- RI-GTO INTEGRALS CHOSEN --
------------------------------------------------------------------------------
------------------------------------------------------------------------------
                   ___                                                        
                  /   \      - P O W E R E D   B Y -                         
                 /     \                                                     
                 |  |  |   _    _      __       _____    __    __             
                 |  |  |  | |  | |    /  \     |  _  \  |  |  /  |          
                  \  \/   | |  | |   /    \    | | | |  |  | /  /          
                 / \  \   | |__| |  /  /\  \   | |_| |  |  |/  /          
                |  |  |   |  __  | /  /__\  \  |    /   |      \           
                |  |  |   | |  | | |   __   |  |    \   |  |\   \          
                \     /   | |  | | |  |  |  |  | |\  \  |  | \   \       
                 \___/    |_|  |_| |__|  |__|  |_| \__\ |__|  \__/        
                                                                              
                      - O R C A' S   B I G   F R I E N D -                    
                                      &                                       
                       - I N T E G R A L  F E E D E R -                       
                                                                              
 v1 FN, 2020, v2 2021, v3 2022-2024                                           
------------------------------------------------------------------------------


----------------------
SHARK INTEGRAL PACKAGE
----------------------

Number of atoms                             ...     22
Number of basis functions                   ...    525
Number of shells                            ...    199
Maximum angular momentum                    ...      3
Integral batch strategy                     ... SHARK/LIBINT Hybrid
RI-J (if used) integral strategy            ... SPLIT-RIJ (Revised 2003 algorithm where possible)
Printlevel                                  ...      1
Contraction scheme used                     ... SEGMENTED contraction
Prescreening option                         ... SCHWARTZ
   Thresh                                   ... 1.000e-10
   Tcut                                     ... 1.000e-11
   Tpresel                                  ... 1.000e-11 
Coulomb Range Separation                    ... NOT USED
Exchange Range Separation                   ... NOT USED
Multipole approximations                    ... NOT USED
Finite Nucleus Model                        ... NOT USED
CABS basis                                  ... NOT available
Auxiliary Coulomb fitting basis             ... AVAILABLE
   # of basis functions in Aux-J            ...    563
   # of shells in Aux-J                     ...    227
   Maximum angular momentum in Aux-J        ...      3
Auxiliary J/K fitting basis                 ... NOT available
Auxiliary Correlation fitting basis         ... NOT available
Auxiliary 'external' fitting basis          ... NOT available

Checking pre-screening integrals            ... done (  0.0 sec) Dimension = 199
Check shell pair data                       ... done (  0.0 sec)
Shell pair information
Shell pair cut-off parameter TPreSel        ...   1.0e-11
Total number of shell pairs                 ...     19900
Shell pairs after pre-screening             ...     15562
Total number of primitive shell pairs       ...     66459
Primitive shell pairs kept                  ...     34931
          la=0 lb=0:   3428 shell pairs
          la=1 lb=0:   4384 shell pairs
          la=1 lb=1:   1420 shell pairs
          la=2 lb=0:   2263 shell pairs
          la=2 lb=1:   1445 shell pairs
          la=2 lb=2:    395 shell pairs
          la=3 lb=0:   1071 shell pairs
          la=3 lb=1:    696 shell pairs
          la=3 lb=2:    362 shell pairs
          la=3 lb=3:     98 shell pairs

Calculating one electron integrals          ... done (  0.1 sec)
Calculating RI/J V-Matrix + Cholesky decomp.... done (  0.1 sec)
Calculating Nuclear repulsion               ... done (  0.0 sec) ENN=   1220.228063759561 Eh

Diagonalization of the overlap matrix:
Smallest eigenvalue                        ... 7.817e-06
Time for diagonalization                   ...    0.037 sec
Threshold for overlap eigenvalues          ... 1.000e-07
Number of eigenvalues below threshold      ... 0
Time for construction of square roots      ...    0.064 sec
Total time needed                          ...    0.112 sec

-------------------
DFT GRID GENERATION
-------------------

General Integration Accuracy     IntAcc      ... 4.388
Radial Grid Type                 RadialGrid  ... OptM3 with GC (2021)
Angular Grid (max. ang.)         AngularGrid ... 4 (Lebedev-302)
Angular grid pruning method      GridPruning ... 4 (adaptive)
Weight generation scheme         WeightScheme... mBecke (2022)
Basis function cutoff            BFCut       ... 1.0000e-10
Integration weight cutoff        WCut        ... 1.0000e-14
Partially contracted basis set               ... off
Rotationally invariant grid construction     ... off
Angular grids for H and He will be reduced by one unit

Total number of grid points                  ...   116094
Total number of batches                      ...     1826
Average number of points per batch           ...       63
Average number of grid points per atom       ...     5277
Initializing property integral containers    ... done (  0.0 sec)

SHARK setup successfully completed in   2.4 seconds

Maximum memory used throughout the entire STARTUP-calculation: 84.3 MB
-------------------------------------------------------------------------------
                                 ORCA GUESS
                   Start orbitals & Density for SCF / CASSCF
-------------------------------------------------------------------------------

------------
SCF SETTINGS
------------
Hamiltonian:
 Density Functional     Method          .... DFT(GTOs)
  Functional kind                       .... Exchange
  Functional name                       .... Re-regularized SCAN exchange by Furness et al
  Functional family                     .... MGGA
  Functional refs                              
    [ 0] J. W. Furness, A. D. Kaplan, J. Ning, J. P. Perdew, and J. Sun.,  J. Phys. Chem. Lett. 11, 8208-8215 (2020), doi: 10.1021/acs.jpclett.0c02405
    [ 1] J. W. Furness, A. D. Kaplan, J. Ning, J. P. Perdew, and J. Sun.,  J. Phys. Chem. Lett. 11, 9248-9248 (2020), doi: 10.1021/acs.jpclett.0c03077
  Functional external parameters        .... 6
    Parameter  0 _c1        =  6.670000e-01 : c1 parameter        
    Parameter  1 _c2        =  8.000000e-01 : c2 parameter        
    Parameter  2 _d         =  1.240000e+00 : d parameter         
    Parameter  3 _k1        =  6.500000e-02 : k1 parameter        
    Parameter  4 _eta       =  1.000000e-03 : eta parameter       
    Parameter  5 _dp2       =  3.610000e-01 : dp2 parameter       
  Functional kind                       .... Correlation
  Functional name                       .... Re-regularized SCAN correlation by Furness et al
  Functional family                     .... MGGA
  Functional refs                              
    [ 0] J. W. Furness, A. D. Kaplan, J. Ning, J. P. Perdew, and J. Sun.,  J. Phys. Chem. Lett. 11, 8208-8215 (2020), doi: 10.1021/acs.jpclett.0c02405
    [ 1] J. W. Furness, A. D. Kaplan, J. Ning, J. P. Perdew, and J. Sun.,  J. Phys. Chem. Lett. 11, 9248-9248 (2020), doi: 10.1021/acs.jpclett.0c03077
  Functional external parameters        .... 1
    Parameter  0 _eta       =  1.000000e-03 : Regularization parameter
 Gradients option       PostSCFGGA      .... off
 RI-approximation to the Coulomb term is turned on
   Number of AuxJ basis functions       .... 563


General Settings:
 Integral files         IntName         .... censo
 Hartree-Fock type      HFTyp           .... RHF
 Total Charge           Charge          ....    0
 Multiplicity           Mult            ....    1
 Number of Electrons    NEL             ....  130
 Basis Dimension        Dim             ....  525
 Nuclear Repulsion      ENuc            ....   1220.2280637596 Eh

Convergence Acceleration:
 AO-DIIS                CNVDIIS         .... on
   Start iteration      DIISMaxIt       ....    12
   Startup error        DIISStart       ....  0.200000
   # of expansion vecs  DIISMaxEq       ....     5
   Bias factor          DIISBfac        ....   1.050
   Max. coefficient     DIISMaxC        ....  10.000
 MO-DIIS                CNVKDIIS        .... off
 Trust-Rad. Augm. Hess. CNVTRAH         .... auto
   Auto Start mean grad. ratio tolernc. ....  1.125000
   Auto Start start iteration           ....    50
   Auto Start num. interpolation iter.  ....    10
   Max. Number of Micro iterations      ....    24
   Max. Number of Macro iterations      .... Maxiter - #DIIS iter
   Number of Davidson start vectors     ....     2
   Converg. threshold    (grad. norm)   ....   5.000e-05
   Grad. Scal. Fac. for Micro threshold ....   0.100
   Minimum threshold for Micro iter.    ....   1.000e-02
   NR start threshold (gradient norm)   ....   1.000e-04
   Initial trust radius                 ....   0.400
   Minimum AH scaling param. (alpha)    ....   1.000
   Maximum AH scaling param. (alpha)    .... 1000.000
   Quad. conv. algorithm                .... NR
   White noise on init. David. guess    .... on
   Maximum white noise                  ....   0.010
   Pseudo random numbers                .... off
   Inactive MOs                         .... canonical
   Orbital update algorithm             .... Taylor
   Preconditioner                       .... Diag
   Full preconditioner red. dimension   ....   250
   COSX micro iterations for RIJONX calc.... off
 SOSCF                  CNVSOSCF        .... on
   Start iteration      SOSCFMaxIt      ....   150
   Startup grad/error   SOSCFStart      ....  0.003300
   Hessian update       SOSCFHessUp     .... L-BFGS
 Level Shifting         CNVShift        .... on
   Level shift para.    LevelShift      ....    0.2500
   Turn off err/grad.   ShiftErr        ....    0.0010
 Zerner damping         CNVZerner       .... off
 Static damping         CNVDamp         .... on
   Fraction old density DampFac         ....    0.7000
   Max. Damping (<1)    DampMax         ....    0.9800
   Min. Damping (>=0)   DampMin         ....    0.0000
   Turn off err/grad.   DampErr         ....    0.1000

SCF Procedure:
 Maximum # iterations   MaxIter         ....   125
 SCF integral mode      SCFMode         .... Direct
   Integral package                     .... SHARK and LIBINT hybrid scheme
 Reset frequency        DirectResetFreq ....    20
 Integral Threshold     Thresh          ....  1.000e-10 Eh
 Primitive CutOff       TCut            ....  1.000e-11 Eh

Convergence Tolerance:
 Convergence Check Mode ConvCheckMode   .... Total+1el-Energy
 Convergence forced     ConvForced      .... 0
 Energy Change          TolE            ....  1.000e-06 Eh
 1-El. energy change                    ....  1.000e-03 Eh
 Orbital Gradient       TolG            ....  5.000e-05
 Orbital Rotation angle TolX            ....  5.000e-05
 DIIS Error             TolErr          ....  1.000e-06

------------------------------
INITIAL GUESS: MODEL POTENTIAL
------------------------------
Loading Hartree-Fock densities                     ... done
Calculating cut-offs                               ... done
Initializing the effective Hamiltonian             ... done
Setting up the integral package (SHARK)            ... done
Starting the Coulomb interaction                   ... done (   1.3 sec)
Making the grid                                    ... done (   0.4 sec)
Mapping shells                                     ... done
Starting the XC term evaluation                    ... done (   1.0 sec)
  promolecular density results
     # of electrons  =    129.996903005
     EX              =   -145.618793198
     EC              =     -4.658696601
     EX+EC           =   -150.277489799
Transforming the Hamiltonian                       ... done (   0.0 sec)
Diagonalizing the Hamiltonian                      ... done (   0.0 sec)
Back transforming the eigenvectors                 ... done (   0.0 sec)
Now organizing SCF variables                       ... done
                      ------------------
                      INITIAL GUESS DONE (   2.9 sec)
                      ------------------
             **** ENERGY FILE WAS UPDATED (censo.en.tmp) ****
Finished Guess after   3.3 sec
Maximum memory used throughout the entire GUESS-calculation: 61.6 MB

-------------------------------------------------------------------------------------------
                                      ORCA LEAN-SCF
                              memory conserving SCF solver
-------------------------------------------------------------------------------------------

----------------------------------------D-I-I-S--------------------------------------------
Iteration    Energy (Eh)           Delta-E    RMSDP     MaxDP     DIISErr   Damp  Time(sec)
-------------------------------------------------------------------------------------------
               ***  Starting incremental Fock matrix formation  ***
    1    -1841.7173498817007840     0.00e+00  1.16e-03  5.78e-02  1.47e-01  0.700  10.2
    2    -1841.8325275104059529    -1.15e-01  8.81e-04  3.61e-02  7.50e-02  0.700   8.6
                               ***Turning on AO-DIIS***
    3    -1841.8779773230069168    -4.54e-02  5.88e-04  2.14e-02  2.64e-02  0.700   8.3
    4    -1841.9045168517102411    -2.65e-02  1.53e-03  5.97e-02  1.72e-02  0.000   7.9
    5    -1841.9630690642850368    -5.86e-02  1.21e-04  5.38e-03  5.37e-03  0.000   8.1
                              *** Initializing SOSCF ***
---------------------------------------S-O-S-C-F--------------------------------------
Iteration    Energy (Eh)           Delta-E    RMSDP     MaxDP     MaxGrad    Time(sec)
--------------------------------------------------------------------------------------
    6    -1841.9634992123021675    -4.30e-04  6.30e-05  2.44e-03  8.46e-04     7.6
               *** Restarting incremental Fock matrix formation ***
    7    -1841.9635313513324490    -3.21e-05  6.12e-05  4.65e-03  4.82e-04     9.9
    8    -1841.9635284118301115     2.94e-06  2.47e-05  1.17e-03  6.88e-04     6.8
    9    -1841.9635374208835401    -9.01e-06  3.03e-05  1.75e-03  2.95e-04     6.7
   10    -1841.9635374903207321    -6.94e-08  5.66e-06  3.20e-04  2.47e-04     6.7
                 **** Energy Check signals convergence ****

               *****************************************************
               *                     SUCCESS                       *
               *           SCF CONVERGED AFTER  10 CYCLES          *
               *****************************************************

             **** ENERGY FILE WAS UPDATED (censo.en.tmp) ****

----------------
TOTAL SCF ENERGY
----------------

Total Energy       :      -1841.96353749032073 Eh          -50122.37603 eV

Components:
Nuclear Repulsion  :       1220.22806375956065 Eh           33204.09368 eV
Electronic Energy  :      -3062.19160124988139 Eh          -83326.46971 eV
One Electron Energy:      -4956.19264720892443 Eh         -134864.85833 eV
Two Electron Energy:       1894.00104595904304 Eh           51538.38862 eV

Virial components:
Potential Energy   :      -3679.72968483999739 Eh         -100130.53526 eV
Kinetic Energy     :       1837.76614734967666 Eh           50008.15924 eV
Virial Ratio       :          2.00228396314009

DFT components:
N(Alpha)           :       64.999934593785 electrons
N(Beta)            :       64.999934593785 electrons
N(Total)           :      129.999869187570 electrons
E(X)               :     -147.681226888982 Eh       
E(C)               :       -4.572275953270 Eh       
E(XC)              :     -152.253502842252 Eh       

---------------
SCF CONVERGENCE
---------------

  Last Energy change         ...    6.9437e-08  Tolerance :   1.0000e-06
  Last MAX-Density change    ...    3.1957e-04  Tolerance :   1.0000e-05
  Last RMS-Density change    ...    5.6587e-06  Tolerance :   1.0000e-06
  Last DIIS Error            ...    8.4606e-04  Tolerance :   1.0000e-06
  Last Orbital Gradient      ...    2.4664e-04  Tolerance :   5.0000e-05
  Last Orbital Rotation      ...    5.1621e-04  Tolerance :   5.0000e-05


----------------
ORBITAL ENERGIES
----------------

  NO   OCC          E(Eh)            E(eV) 
   0   2.0000    -101.205873     -2753.9518 
   1   2.0000    -101.203862     -2753.8971 
   2   2.0000    -101.203858     -2753.8970 
   3   2.0000     -10.124996      -275.5152 
   4   2.0000     -10.124987      -275.5149 
   5   2.0000     -10.122958      -275.4597 
   6   2.0000     -10.082002      -274.3452 
   7   2.0000     -10.069826      -274.0139 
   8   2.0000     -10.069816      -274.0136 
   9   2.0000     -10.061659      -273.7917 
  10   2.0000     -10.048176      -273.4248 
  11   2.0000     -10.048162      -273.4244 
  12   2.0000     -10.046300      -273.3737 
  13   2.0000     -10.046175      -273.3703 
  14   2.0000     -10.045470      -273.3511 
  15   2.0000      -9.381654      -255.2878 
  16   2.0000      -9.379604      -255.2320 
  17   2.0000      -9.379600      -255.2319 
  18   2.0000      -7.126661      -193.9263 
  19   2.0000      -7.124665      -193.8720 
  20   2.0000      -7.124662      -193.8719 
  21   2.0000      -7.116610      -193.6528 
  22   2.0000      -7.116115      -193.6393 
  23   2.0000      -7.114665      -193.5999 
  24   2.0000      -7.114661      -193.5998 
  25   2.0000      -7.113916      -193.5795 
  26   2.0000      -7.113912      -193.5794 
  27   2.0000      -0.897110       -24.4116 
  28   2.0000      -0.852338       -23.1933 
  29   2.0000      -0.847441       -23.0600 
  30   2.0000      -0.830289       -22.5933 
  31   2.0000      -0.784726       -21.3535 
  32   2.0000      -0.754412       -20.5286 
  33   2.0000      -0.723785       -19.6952 
  34   2.0000      -0.720431       -19.6039 
  35   2.0000      -0.697586       -18.9823 
  36   2.0000      -0.603319       -16.4172 
  37   2.0000      -0.593502       -16.1500 
  38   2.0000      -0.583273       -15.8717 
  39   2.0000      -0.565260       -15.3815 
  40   2.0000      -0.512527       -13.9466 
  41   2.0000      -0.487213       -13.2577 
  42   2.0000      -0.481107       -13.0916 
  43   2.0000      -0.451713       -12.2917 
  44   2.0000      -0.436889       -11.8884 
  45   2.0000      -0.435655       -11.8548 
  46   2.0000      -0.425471       -11.5777 
  47   2.0000      -0.409359       -11.1392 
  48   2.0000      -0.404463       -11.0060 
  49   2.0000      -0.397466       -10.8156 
  50   2.0000      -0.378282       -10.2936 
  51   2.0000      -0.375847       -10.2273 
  52   2.0000      -0.350409        -9.5351 
  53   2.0000      -0.350302        -9.5322 
  54   2.0000      -0.347773        -9.4634 
  55   2.0000      -0.326817        -8.8931 
  56   2.0000      -0.324225        -8.8226 
  57   2.0000      -0.304217        -8.2782 
  58   2.0000      -0.301455        -8.2030 
  59   2.0000      -0.291449        -7.9307 
  60   2.0000      -0.291014        -7.9189 
  61   2.0000      -0.249191        -6.7808 
  62   2.0000      -0.247224        -6.7273 
  63   2.0000      -0.243400        -6.6232 
  64   2.0000      -0.235543        -6.4095 
  65   0.0000      -0.068237        -1.8568 
  66   0.0000      -0.067520        -1.8373 
  67   0.0000      -0.044408        -1.2084 
  68   0.0000      -0.042816        -1.1651 
  69   0.0000      -0.041198        -1.1211 
  70   0.0000       0.013556         0.3689 
  71   0.0000       0.015071         0.4101 
  72   0.0000       0.050537         1.3752 
  73   0.0000       0.075974         2.0674 
  74   0.0000       0.078477         2.1355 
  75   0.0000       0.088549         2.4095 
*Only the first 10 virtual orbitals were printed.

                    ********************************
                    * MULLIKEN POPULATION ANALYSIS *
                    ********************************

-----------------------
MULLIKEN ATOMIC CHARGES
-----------------------
   0 C :   -0.094135
   1 C :   -0.120670
   2 C :   -0.177627
   3 C :    0.212030
   4 C :   -0.177633
   5 C :   -0.120688
   6 C :    0.006388
   7 C :    0.163238
   8 C :   -0.351397
   9 C :    0.270548
  10 C :   -0.351455
  11 C :    0.163441
  12 Cl:   -0.085768
  13 Cl:   -0.099146
  14 Cl:   -0.085776
  15 H :    0.113693
  16 H :    0.111018
  17 H :    0.118968
  18 H :    0.118972
  19 H :    0.111016
  20 H :    0.137495
  21 H :    0.137489
Sum of atomic charges:    0.0000000

--------------------------------
MULLIKEN REDUCED ORBITAL CHARGES
--------------------------------
  0 C s       :     3.205263  s :     3.205263
      pz      :     0.909148  p :     2.803374
      px      :     0.942636
      py      :     0.951589
      dz2     :     0.021842  d :     0.076871
      dxz     :     0.019002
      dyz     :     0.015714
      dx2y2   :     0.013219
      dxy     :     0.007094
      f0      :     0.001771  f :     0.008627
      f+1     :     0.001564
      f-1     :     0.000938
      f+2     :     0.001835
      f-2     :     0.001159
      f+3     :     0.000855
      f-3     :     0.000504

  1 C s       :     3.222521  s :     3.222521
      pz      :     0.938181  p :     2.812737
      px      :     0.917692
      py      :     0.956864
      dz2     :     0.015890  d :     0.076717
      dxz     :     0.022710
      dyz     :     0.008870
      dx2y2   :     0.010212
      dxy     :     0.019036
      f0      :     0.001509  f :     0.008694
      f+1     :     0.001325
      f-1     :     0.000830
      f+2     :     0.001874
      f-2     :     0.000722
      f+3     :     0.000758
      f-3     :     0.001676

  2 C s       :     3.245709  s :     3.245709
      pz      :     0.940765  p :     2.843600
      px      :     0.944116
      py      :     0.958720
      dz2     :     0.015375  d :     0.079547
      dxz     :     0.025361
      dyz     :     0.008466
      dx2y2   :     0.010301
      dxy     :     0.020045
      f0      :     0.001478  f :     0.008771
      f+1     :     0.001368
      f-1     :     0.000775
      f+2     :     0.001901
      f-2     :     0.000738
      f+3     :     0.000815
      f-3     :     0.001697

  3 C s       :     3.259340  s :     3.259340
      pz      :     0.875312  p :     2.396477
      px      :     0.573542
      py      :     0.947623
      dz2     :     0.024156  d :     0.120188
      dxz     :     0.039674
      dyz     :     0.018366
      dx2y2   :     0.013663
      dxy     :     0.024329
      f0      :     0.002354  f :     0.011965
      f+1     :     0.001949
      f-1     :     0.001135
      f+2     :     0.002581
      f-2     :     0.001253
      f+3     :     0.001267
      f-3     :     0.001426

  4 C s       :     3.245698  s :     3.245698
      pz      :     0.940779  p :     2.843617
      px      :     0.944138
      py      :     0.958700
      dz2     :     0.015374  d :     0.079546
      dxz     :     0.025366
      dyz     :     0.008460
      dx2y2   :     0.010307
      dxy     :     0.020040
      f0      :     0.001478  f :     0.008771
      f+1     :     0.001368
      f-1     :     0.000775
      f+2     :     0.001901
      f-2     :     0.000738
      f+3     :     0.000815
      f-3     :     0.001697

  5 C s       :     3.222545  s :     3.222545
      pz      :     0.938175  p :     2.812730
      px      :     0.917695
      py      :     0.956859
      dz2     :     0.015891  d :     0.076718
      dxz     :     0.022707
      dyz     :     0.008877
      dx2y2   :     0.010202
      dxy     :     0.019041
      f0      :     0.001509  f :     0.008694
      f+1     :     0.001325
      f-1     :     0.000830
      f+2     :     0.001874
      f-2     :     0.000723
      f+3     :     0.000757
      f-3     :     0.001676

  6 C s       :     3.356779  s :     3.356779
      pz      :     0.975337  p :     2.484480
      px      :     0.682090
      py      :     0.827052
      dz2     :     0.006480  d :     0.140535
      dxz     :     0.026176
      dyz     :     0.022217
      dx2y2   :     0.037637
      dxy     :     0.048025
      f0      :     0.001851  f :     0.011818
      f+1     :     0.000939
      f-1     :     0.000914
      f+2     :     0.001030
      f-2     :     0.001304
      f+3     :     0.002387
      f-3     :     0.003394

  7 C s       :     3.147917  s :     3.147917
      pz      :     0.976951  p :     2.515610
      px      :     0.832436
      py      :     0.706223
      dz2     :     0.007560  d :     0.160882
      dxz     :     0.030294
      dyz     :     0.027286
      dx2y2   :     0.048116
      dxy     :     0.047626
      f0      :     0.002009  f :     0.012352
      f+1     :     0.000794
      f-1     :     0.001066
      f+2     :     0.001327
      f-2     :     0.001168
      f+3     :     0.002207
      f-3     :     0.003782

  8 C s       :     3.348028  s :     3.348028
      pz      :     0.996061  p :     2.910703
      px      :     0.970410
      py      :     0.944233
      dz2     :     0.005103  d :     0.083735
      dxz     :     0.018851
      dyz     :     0.009865
      dx2y2   :     0.022101
      dxy     :     0.027815
      f0      :     0.001768  f :     0.008931
      f+1     :     0.000723
      f-1     :     0.000841
      f+2     :     0.001036
      f-2     :     0.000506
      f+3     :     0.001747
      f-3     :     0.002310

  9 C s       :     3.047714  s :     3.047714
      pz      :     0.971083  p :     2.512518
      px      :     0.723952
      py      :     0.817483
      dz2     :     0.007351  d :     0.156799
      dxz     :     0.030066
      dyz     :     0.028199
      dx2y2   :     0.044362
      dxy     :     0.046822
      f0      :     0.002014  f :     0.012421
      f+1     :     0.001099
      f-1     :     0.000913
      f+2     :     0.001145
      f-2     :     0.001306
      f+3     :     0.002149
      f-3     :     0.003795

 10 C s       :     3.348084  s :     3.348084
      pz      :     0.996067  p :     2.910707
      px      :     0.970383
      py      :     0.944257
      dz2     :     0.005100  d :     0.083734
      dxz     :     0.018847
      dyz     :     0.009871
      dx2y2   :     0.022096
      dxy     :     0.027820
      f0      :     0.001768  f :     0.008931
      f+1     :     0.000723
      f-1     :     0.000840
      f+2     :     0.001036
      f-2     :     0.000506
      f+3     :     0.001747
      f-3     :     0.002310

 11 C s       :     3.147727  s :     3.147727
      pz      :     0.976963  p :     2.515595
      px      :     0.832442
      py      :     0.706190
      dz2     :     0.007557  d :     0.160885
      dxz     :     0.030293
      dyz     :     0.027286
      dx2y2   :     0.048117
      dxy     :     0.047632
      f0      :     0.002008  f :     0.012352
      f+1     :     0.000794
      f-1     :     0.001066
      f+2     :     0.001327
      f-2     :     0.001168
      f+3     :     0.002207
      f-3     :     0.003782

 12 Cls       :     5.915206  s :     5.915206
      pz      :     3.890205  p :    11.104118
      px      :     3.798970
      py      :     3.414942
      dz2     :     0.007450  d :     0.061031
      dxz     :     0.005558
      dyz     :     0.014910
      dx2y2   :     0.014207
      dxy     :     0.018905
      f0      :     0.000551  f :     0.005413
      f+1     :     0.000281
      f-1     :     0.000797
      f+2     :     0.000303
      f-2     :     0.000682
      f+3     :     0.001762
      f-3     :     0.001037

 13 Cls       :     5.908916  s :     5.908916
      pz      :     3.912078  p :    11.124984
      px      :     3.247069
      py      :     3.965837
      dz2     :     0.006872  d :     0.059885
      dxz     :     0.019812
      dyz     :     0.000445
      dx2y2   :     0.020995
      dxy     :     0.011761
      f0      :     0.000551  f :     0.005361
      f+1     :     0.001025
      f-1     :     0.000078
      f+2     :     0.000811
      f-2     :     0.000033
      f+3     :     0.001798
      f-3     :     0.001066

 14 Cls       :     5.915213  s :     5.915213
      pz      :     3.890134  p :    11.104117
      px      :     3.798838
      py      :     3.415145
      dz2     :     0.007452  d :     0.061033
      dxz     :     0.005564
      dyz     :     0.014906
      dx2y2   :     0.014201
      dxy     :     0.018911
      f0      :     0.000551  f :     0.005413
      f+1     :     0.000281
      f-1     :     0.000797
      f+2     :     0.000303
      f-2     :     0.000683
      f+3     :     0.001762
      f-3     :     0.001037

 15 H s       :     0.862883  s :     0.862883
      pz      :     0.004583  p :     0.023424
      px      :     0.013455
      py      :     0.005386

 16 H s       :     0.865503  s :     0.865503
      pz      :     0.010454  p :     0.023478
      px      :     0.006682
      py      :     0.006343

 17 H s       :     0.857634  s :     0.857634
      pz      :     0.010361  p :     0.023398
      px      :     0.006711
      py      :     0.006326

 18 H s       :     0.857631  s :     0.857631
      pz      :     0.010362  p :     0.023398
      px      :     0.006712
      py      :     0.006324

 19 H s       :     0.865506  s :     0.865506
      pz      :     0.010452  p :     0.023478
      px      :     0.006681
      py      :     0.006345

 20 H s       :     0.838632  s :     0.838632
      pz      :     0.005634  p :     0.023872
      px      :     0.006586
      py      :     0.011652

 21 H s       :     0.838639  s :     0.838639
      pz      :     0.005635  p :     0.023872
      px      :     0.006588
      py      :     0.011649



                     *******************************
                     * LOEWDIN POPULATION ANALYSIS *
                     *******************************

----------------------
LOEWDIN ATOMIC CHARGES
----------------------
   0 C :   -0.134803
   1 C :   -0.132824
   2 C :   -0.098365
   3 C :   -0.132243
   4 C :   -0.098370
   5 C :   -0.132830
   6 C :   -0.118323
   7 C :   -0.365376
   8 C :   -0.147858
   9 C :   -0.411709
  10 C :   -0.147851
  11 C :   -0.365395
  12 Cl:    0.421702
  13 Cl:    0.395208
  14 Cl:    0.421718
  15 H :    0.144042
  16 H :    0.144950
  17 H :    0.151151
  18 H :    0.151154
  19 H :    0.144951
  20 H :    0.155535
  21 H :    0.155535

-------------------------------
LOEWDIN REDUCED ORBITAL CHARGES
-------------------------------
  0 C s       :     2.771675  s :     2.771675
      pz      :     1.039471  p :     2.932122
      px      :     0.986847
      py      :     0.905803
      dz2     :     0.127679  d :     0.387504
      dxz     :     0.091202
      dyz     :     0.073793
      dx2y2   :     0.069774
      dxy     :     0.025056
      f0      :     0.008583  f :     0.043502
      f+1     :     0.008182
      f-1     :     0.005651
      f+2     :     0.008384
      f-2     :     0.007271
      f+3     :     0.003569
      f-3     :     0.001862

  1 C s       :     2.770772  s :     2.770772
      pz      :     0.988827  p :     2.930647
      px      :     1.044061
      py      :     0.897760
      dz2     :     0.076967  d :     0.387830
      dxz     :     0.138408
      dyz     :     0.036271
      dx2y2   :     0.061297
      dxy     :     0.074887
      f0      :     0.008549  f :     0.043574
      f+1     :     0.006427
      f-1     :     0.004797
      f+2     :     0.008553
      f-2     :     0.003781
      f+3     :     0.005013
      f-3     :     0.006454

  2 C s       :     2.764105  s :     2.764105
      pz      :     0.976396  p :     2.906533
      px      :     1.033255
      py      :     0.896883
      dz2     :     0.075244  d :     0.384425
      dxz     :     0.137386
      dyz     :     0.036088
      dx2y2   :     0.061932
      dxy     :     0.073774
      f0      :     0.008385  f :     0.043301
      f+1     :     0.006495
      f-1     :     0.004667
      f+2     :     0.008475
      f-2     :     0.003831
      f+3     :     0.005020
      f-3     :     0.006427

  3 C s       :     2.703749  s :     2.703749
      pz      :     1.019921  p :     2.848629
      px      :     0.938305
      py      :     0.890403
      dz2     :     0.133140  d :     0.521324
      dxz     :     0.146384
      dyz     :     0.077462
      dx2y2   :     0.091976
      dxy     :     0.072362
      f0      :     0.011850  f :     0.058542
      f+1     :     0.009080
      f-1     :     0.006504
      f+2     :     0.011757
      f-2     :     0.007188
      f+3     :     0.005595
      f-3     :     0.006567

  4 C s       :     2.764103  s :     2.764103
      pz      :     0.976389  p :     2.906531
      px      :     1.033253
      py      :     0.896889
      dz2     :     0.075248  d :     0.384435
      dxz     :     0.137396
      dyz     :     0.036066
      dx2y2   :     0.061946
      dxy     :     0.073778
      f0      :     0.008385  f :     0.043301
      f+1     :     0.006496
      f-1     :     0.004666
      f+2     :     0.008477
      f-2     :     0.003831
      f+3     :     0.005019
      f-3     :     0.006428

  5 C s       :     2.770770  s :     2.770770
      pz      :     0.988844  p :     2.930649
      px      :     1.044074
      py      :     0.897731
      dz2     :     0.076962  d :     0.387834
      dxz     :     0.138415
      dyz     :     0.036298
      dx2y2   :     0.061284
      dxy     :     0.074876
      f0      :     0.008552  f :     0.043576
      f+1     :     0.006427
      f-1     :     0.004798
      f+2     :     0.008552
      f-2     :     0.003781
      f+3     :     0.005014
      f-3     :     0.006452

  6 C s       :     2.706998  s :     2.706998
      pz      :     0.859474  p :     2.845258
      px      :     0.964466
      py      :     1.021318
      dz2     :     0.037006  d :     0.508790
      dxz     :     0.074535
      dyz     :     0.073527
      dx2y2   :     0.154986
      dxy     :     0.168735
      f0      :     0.004480  f :     0.057278
      f+1     :     0.004686
      f-1     :     0.004632
      f+2     :     0.006120
      f-2     :     0.008357
      f+3     :     0.010069
      f-3     :     0.018933

  7 C s       :     2.778415  s :     2.778415
      pz      :     0.908211  p :     2.907144
      px      :     1.041086
      py      :     0.957847
      dz2     :     0.045339  d :     0.616698
      dxz     :     0.092033
      dyz     :     0.089291
      dx2y2   :     0.185488
      dxy     :     0.204547
      f0      :     0.004382  f :     0.063119
      f+1     :     0.004840
      f-1     :     0.005122
      f+2     :     0.008153
      f-2     :     0.006995
      f+3     :     0.011098
      f-3     :     0.022530

  8 C s       :     2.772275  s :     2.772275
      pz      :     0.909200  p :     2.953233
      px      :     1.036768
      py      :     1.007265
      dz2     :     0.028208  d :     0.377966
      dxz     :     0.063827
      dyz     :     0.031421
      dx2y2   :     0.117751
      dxy     :     0.136759
      f0      :     0.003855  f :     0.044383
      f+1     :     0.004462
      f-1     :     0.003789
      f+2     :     0.006983
      f-2     :     0.003352
      f+3     :     0.008782
      f-3     :     0.013160

  9 C s       :     2.783275  s :     2.783275
      pz      :     0.909366  p :     2.936796
      px      :     0.931374
      py      :     1.096057
      dz2     :     0.045970  d :     0.627037
      dxz     :     0.091415
      dyz     :     0.091614
      dx2y2   :     0.224122
      dxy     :     0.173916
      f0      :     0.004473  f :     0.064600
      f+1     :     0.005460
      f-1     :     0.004746
      f+2     :     0.007222
      f-2     :     0.008098
      f+3     :     0.011194
      f-3     :     0.023406

 10 C s       :     2.772277  s :     2.772277
      pz      :     0.909201  p :     2.953233
      px      :     1.036745
      py      :     1.007287
      dz2     :     0.028198  d :     0.377959
      dxz     :     0.063808
      dyz     :     0.031442
      dx2y2   :     0.117733
      dxy     :     0.136778
      f0      :     0.003855  f :     0.044383
      f+1     :     0.004462
      f-1     :     0.003788
      f+2     :     0.006986
      f-2     :     0.003349
      f+3     :     0.008782
      f-3     :     0.013161

 11 C s       :     2.778416  s :     2.778416
      pz      :     0.908216  p :     2.907156
      px      :     1.041123
      py      :     0.957817
      dz2     :     0.045337  d :     0.616704
      dxz     :     0.092030
      dyz     :     0.089283
      dx2y2   :     0.185521
      dxy     :     0.204531
      f0      :     0.004381  f :     0.063119
      f+1     :     0.004839
      f-1     :     0.005122
      f+2     :     0.008151
      f-2     :     0.006996
      f+3     :     0.011099
      f-3     :     0.022529

 12 Cls       :     5.551810  s :     5.551810
      pz      :     3.819718  p :    10.916183
      px      :     3.709098
      py      :     3.387367
      dz2     :     0.012196  d :     0.098874
      dxz     :     0.008078
      dyz     :     0.022252
      dx2y2   :     0.023840
      dxy     :     0.032508
      f0      :     0.001144  f :     0.011431
      f+1     :     0.000580
      f-1     :     0.001549
      f+2     :     0.000655
      f-2     :     0.001492
      f+3     :     0.003440
      f-3     :     0.002572

 13 Cls       :     5.556351  s :     5.556351
      pz      :     3.837963  p :    10.940140
      px      :     3.246723
      py      :     3.855454
      dz2     :     0.011792  d :     0.097030
      dxz     :     0.029041
      dyz     :     0.000407
      dx2y2   :     0.035508
      dxy     :     0.020281
      f0      :     0.001174  f :     0.011272
      f+1     :     0.001948
      f-1     :     0.000179
      f+2     :     0.001830
      f-2     :     0.000023
      f+3     :     0.003474
      f-3     :     0.002643

 14 Cls       :     5.551810  s :     5.551810
      pz      :     3.819656  p :    10.916166
      px      :     3.708973
      py      :     3.387537
      dz2     :     0.012198  d :     0.098875
      dxz     :     0.008087
      dyz     :     0.022246
      dx2y2   :     0.023828
      dxy     :     0.032516
      f0      :     0.001143  f :     0.011431
      f+1     :     0.000580
      f-1     :     0.001548
      f+2     :     0.000655
      f-2     :     0.001494
      f+3     :     0.003439
      f-3     :     0.002571

 15 H s       :     0.795612  s :     0.795612
      pz      :     0.011729  p :     0.060346
      px      :     0.034945
      py      :     0.013672

 16 H s       :     0.794776  s :     0.794776
      pz      :     0.026997  p :     0.060274
      px      :     0.017100
      py      :     0.016177

 17 H s       :     0.788199  s :     0.788199
      pz      :     0.026997  p :     0.060650
      px      :     0.017266
      py      :     0.016388

 18 H s       :     0.788196  s :     0.788196
      pz      :     0.026999  p :     0.060650
      px      :     0.017268
      py      :     0.016384

 19 H s       :     0.794775  s :     0.794775
      pz      :     0.026992  p :     0.060273
      px      :     0.017097
      py      :     0.016183

 20 H s       :     0.781747  s :     0.781747
      pz      :     0.015181  p :     0.062718
      px      :     0.016948
      py      :     0.030589

 21 H s       :     0.781747  s :     0.781747
      pz      :     0.015183  p :     0.062718
      px      :     0.016955
      py      :     0.030581



                      *****************************
                      * MAYER POPULATION ANALYSIS *
                      *****************************

  NA   - Mulliken gross atomic population
  ZA   - Total nuclear charge
  QA   - Mulliken gross atomic charge
  VA   - Mayer's total valence
  BVA  - Mayer's bonded valence
  FA   - Mayer's free valence

  ATOM       NA         ZA         QA         VA         BVA        FA
  0 C      6.0941     6.0000    -0.0941     3.8663     3.8663     0.0000
  1 C      6.1207     6.0000    -0.1207     3.9243     3.9243     0.0000
  2 C      6.1776     6.0000    -0.1776     3.9320     3.9320     0.0000
  3 C      5.7880     6.0000     0.2120     3.3993     3.3993     0.0000
  4 C      6.1776     6.0000    -0.1776     3.9320     3.9320     0.0000
  5 C      6.1207     6.0000    -0.1207     3.9243     3.9243     0.0000
  6 C      5.9936     6.0000     0.0064     3.3751     3.3751    -0.0000
  7 C      5.8368     6.0000     0.1632     3.7578     3.7578     0.0000
  8 C      6.3514     6.0000    -0.3514     4.0094     4.0094     0.0000
  9 C      5.7295     6.0000     0.2705     3.7089     3.7089     0.0000
 10 C      6.3515     6.0000    -0.3515     4.0094     4.0094    -0.0000
 11 C      5.8366     6.0000     0.1634     3.7577     3.7577     0.0000
 12 Cl    17.0858    17.0000    -0.0858     1.2522     1.2522     0.0000
 13 Cl    17.0991    17.0000    -0.0991     1.2247     1.2247     0.0000
 14 Cl    17.0858    17.0000    -0.0858     1.2522     1.2522     0.0000
 15 H      0.8863     1.0000     0.1137     0.9762     0.9762     0.0000
 16 H      0.8890     1.0000     0.1110     0.9786     0.9786     0.0000
 17 H      0.8810     1.0000     0.1190     0.9792     0.9792    -0.0000
 18 H      0.8810     1.0000     0.1190     0.9792     0.9792    -0.0000
 19 H      0.8890     1.0000     0.1110     0.9786     0.9786     0.0000
 20 H      0.8625     1.0000     0.1375     0.9935     0.9935    -0.0000
 21 H      0.8625     1.0000     0.1375     0.9935     0.9935    -0.0000

  Mayer bond orders larger than 0.100000
B(  0-C ,  1-C ) :   1.3839 B(  0-C ,  5-C ) :   1.3839 B(  0-C , 15-H ) :   0.9661 
B(  1-C ,  2-C ) :   1.4359 B(  1-C , 16-H ) :   0.9710 B(  2-C ,  3-C ) :   1.3207 
B(  2-C , 17-H ) :   0.9740 B(  3-C ,  4-C ) :   1.3207 B(  3-C ,  6-C ) :   0.7819 
B(  4-C ,  5-C ) :   1.4359 B(  4-C , 18-H ) :   0.9740 B(  5-C , 19-H ) :   0.9710 
B(  6-C ,  7-C ) :   1.2630 B(  6-C , 11-C ) :   1.2629 B(  7-C ,  8-C ) :   1.3583 
B(  7-C , 14-Cl) :   1.0608 B(  8-C ,  9-C ) :   1.3295 B(  8-C , 20-H ) :   0.9754 
B(  9-C , 10-C ) :   1.3296 B(  9-C , 13-Cl) :   0.9634 B( 10-C , 11-C ) :   1.3582 
B( 10-C , 21-H ) :   0.9754 B( 11-C , 12-Cl) :   1.0608 

-------
TIMINGS
-------

Total SCF time: 0 days 0 hours 1 min 21 sec 

Total time                  ....      81.511 sec
Sum of individual times     ....      81.025 sec  ( 99.4%)

SCF preparation             ....       0.400 sec  (  0.5%)
Fock matrix formation       ....      77.474 sec  ( 95.0%)
  Startup                   ....       0.161 sec  (  0.2% of F)
  Split-RI-J                ....      14.734 sec  ( 19.0% of F)
  XC integration            ....      61.081 sec  ( 78.8% of F)
    XC Preparation          ....       0.000 sec  (  0.0% of XC)
    Basis function eval.    ....       8.516 sec  ( 13.9% of XC)
    Density eval.           ....      21.348 sec  ( 35.0% of XC)
    XC-Functional eval.     ....       3.287 sec  (  5.4% of XC)
    XC-Potential eval.      ....      26.736 sec  ( 43.8% of XC)
Diagonalization             ....       0.000 sec  (  0.0%)
Density matrix formation    ....       0.951 sec  (  1.2%)
Total Energy calculation    ....       0.064 sec  (  0.1%)
Population analysis         ....       0.089 sec  (  0.1%)
Orbital Transformation      ....       0.274 sec  (  0.3%)
Orbital Orthonormalization  ....       0.000 sec  (  0.0%)
DIIS solution               ....       1.177 sec  (  1.4%)
SOSCF solution              ....       0.596 sec  (  0.7%)
Finished LeanSCF after  81.6 sec

Maximum memory used throughout the entire LEANSCF-calculation: 71.7 MB

------------------------------------------------------------------------------
                         ORCA PROPERTY INTEGRAL CALCULATIONS
------------------------------------------------------------------------------

GBWName                                   ... censo.gbw
Number of atoms                           ...     22
Number of basis functions                 ...    525
Max core memory                           ...   1024 MB

Dipole integrals                          ... YES
Quadrupole integrals                      ...  NO
Linear momentum integrals                 ...  NO
Angular momentum integrals                ...  NO
Higher moments length integrals           ...  NO
Higher moments velocity integrals         ...  NO
Kinetic energy integrals                  ...  NO
GIAO right hand sides                     ...  NO
GIAO dipole derivative integrals          ...  NO
SOC integrals                             ...  NO
EPR diamagnetic integrals (GIAO)          ...  NO
EPR gauge integrals                       ...  NO
Field gradient integrals                  ...  NO (   0 nuclei)
Spin-dipole/Fermi contact integrals       ...  NO (   0 nuclei)
Contact density integrals                 ...  NO (   0 nuclei)
Nucleus-orbit integrals                   ...  NO (   0 nuclei)
Geometric perturbations                   ... YES (  22 nuclei)

Choice of electric origin   ... Center of mass
Position of electric origin ... (  0.0162, -0.0003,  0.0001) 
Choice of magnetic origin   ... GIAO
Position of magnetic origin ... (  0.0000,  0.0000,  0.0000) 

Calculating integrals                     ... Electric Dipole (Length)     done (  0.1 sec)
Calculating integrals                     ... Geometrical perturbation right hand sides

-----------------------
GEOMETRIC PERTURBATIONS (22 nuclei)
-----------------------

MaxCore                            ...   1024 MB
Number of batches                  ...      1

BATCH   0: Atoms    0 -   21 ( 66 perturbations)
   => H(core) and overlap derivative integrals     ... done (     1.7 sec)
   => Making and storing internal U-coefficients   ... done (     1.1 sec)
   => RI-J derivative integrals                    ... done (    24.7 sec)
   => RI-J response operators                      ... done (     6.1 sec)
   => XC derivative integrals                      ... done (   954.3 sec)
   => XC response operators                        ... done (   256.7 sec)
   => Completing and storing right hand sides      ... done (     0.4 sec)
   => Total time for right hand sides = 1251.0 sec

  geometrical perturbations done (1251.0 sec)

Property integrals calculated in 1251.1 sec

Maximum memory used throughout the entire PROPINT-calculation: 494.7 MB


-------------------------------------------------------------------------------
                          DFT DISPERSION CORRECTION                            
                                                                               
                                DFTD4 V3.4.0                                   
-------------------------------------------------------------------------------
The R2SCAN3C composite method is recognized
Using three-body term ABC
Active option DFTDOPT                   ...         5   

-------------------------   ----------------
Dispersion correction           -0.011818025
-------------------------   ----------------

------------------   -----------------
gCP correction             0.007942762
------------------   -----------------

-------------------------   --------------------
FINAL SINGLE POINT ENERGY     -1841.967412753515
-------------------------   --------------------

------------------------------------------------------------------------------
                            ORCA SCF RESPONSE CALCULATION
------------------------------------------------------------------------------

GBWName                                 ... censo.gbw
Number of atoms                         ...     22
Number of basis functions               ...    525
Max core memory                         ...   1024 MB

Electric field perturbation             ...  NO
Quadrupolar field perturbation          ...  NO
Magnetic field perturbation (no GIAO)   ...  NO
Magnetic field perturbation (with GIAO) ...  NO
Linear momentum (velocity) perturbation ...  NO
Spin-orbit coupling perturbation        ...  NO
Choice of electric origin               ... Center of mass
Position of electric origin             ...     0.016178    -0.000329     0.000086
Choice of magnetic origin               ... GIAO
Position of magnetic origin             ...     0.000000     0.000000     0.000000
Nuclear geometric perturbations         ... YES (  66 perturbations)
Nucleus-orbit perturbations             ...  NO (   0 perturbations)
Spin-dipole/Fermi contact perturbations ...  NO (   0 perturbations)

Total number of real perturbations      ...     66
Total number of imaginary perturbations ...      0
Total number of triplet perturbations   ...      0
Total number of SOC perturbations       ...      0


                                **********************
                                * REAL PERTURBATIONS *
                                **********************



-------------------
SHARK CP-SCF DRIVER
-------------------

Dimension of the orbital basis          ...    525
Dimension of the CPSCF-problem          ...  29900
Number of operators                     ...      1
Max. number of iterations               ...    128
Convergence Tolerance                   ... 1.0e-03
Number of perturbations                 ...     66
Perturbation type                       ... REAL

----------------------------
POPLE LINEAR EQUATION SOLVER
----------------------------

  ITERATION   0:   ||err||_max =   4.4384e-01 (  97.2 sec   0/ 66 done)
  ITERATION   1:   ||err||_max =   5.8828e-02 ( 105.2 sec   0/ 66 done)
  ITERATION   2:   ||err||_max =   1.9173e-02 ( 106.8 sec   0/ 66 done)
  ITERATION   3:   ||err||_max =   6.3068e-03 ( 109.9 sec   6/ 66 done)
  ITERATION   4:   ||err||_max =   2.3065e-03 ( 105.7 sec  39/ 66 done)
  ITERATION   5:   ||err||_max =   7.9232e-04 (  47.5 sec  66/ 66 done)

CP-SCF equations solved in 576.7 sec
Response densities calculated in   0.3 sec

Maximum memory used throughout the entire SCFRESP-calculation: 366.0 MB

------------------------------------------------------------------------------
                              ORCA PROPERTY CALCULATIONS
------------------------------------------------------------------------------

GBWName                                 ... censo.gbw
Number of atoms                         ...     22
Number of basis functions               ...    525
Max core memory                         ...   1024 MB

Electric properties:
Dipole moment                           ... YES
Quadrupole moment                       ...  NO
Static polarizability (Dipole/Dipole)   ...  NO
Static polarizability (Dipole/Quad.)    ...  NO
Static polarizability (Quad./Quad.)     ...  NO
Static polarizability (Velocity)        ...  NO

Atomic electric properties:
Dipole moment                           ...  NO
Quadrupole moment                       ...  NO
Static polarizability                   ...  NO

Choice of electric origin               ... Center of mass
Position of electric origin             ...     0.016178    -0.000329     0.000086

General magnetic properties:
Magnetizability                         ...  NO

EPR properties:
g-Tensor (aka g-matrix)                 ...  NO
Zero-Field splitting spin-orbit         ...  NO
Zero-field splitting spin-spin          ...  NO
Hyperfine couplings                     ...  NO (   0 nuclei)
Quadrupole couplings                    ...  NO (   0 nuclei)
Contact density                         ...  NO (   0 nuclei)

NMR properties:
Chemical shifts                         ...  NO (   0 nuclei)
Spin-rotation constants                 ...  NO (   0 nuclei)
Spin-spin couplings                     ...  NO (   0 nuclei,    0 pairs)

Choice of magnetic origin               ... GIAO
Position of magnetic origin             ...     0.000000     0.000000     0.000000

Properties with geometric perturbations:
SCF Hessian                             ... YES
IR spectrum                             ... YES
VCD spectrum                            ...  NO
X-ray spectroscopy properties:
SCF XES/XAS/RIXS spectra                ...  NO


-------------
DIPOLE MOMENT
-------------

Method             : SCF
Type of density    : Electron Density
Multiplicity       :   1
Irrep              :   0
Energy             : -1841.9635374903207321 Eh
Relativity type    : 
Basis              : AO
                                X                 Y                 Z
Electronic contribution:     16.687232360      -0.001851575      -0.001619783
Nuclear contribution   :    -17.052919872       0.002050635       0.001661389
                        -----------------------------------------
Total Dipole Moment    :     -0.365687512       0.000199060       0.000041606
                        -----------------------------------------
Magnitude (a.u.)       :      0.365687569
Magnitude (Debye)      :      0.929503931



--------------------
Rotational spectrum 
--------------------
 
Rotational constants in cm-1:             0.024314             0.009464             0.007300 
Rotational constants in MHz :           728.919758           283.720046           218.857916 

Dipole components along the rotational axes: 
x,y,z [a.u.] :    -0.365688     0.000176    -0.000050 
x,y,z [Debye]:    -0.929504     0.000448    -0.000127 

 

Dipole moment calculation done in   0.0 sec 

-----------
SCF HESSIAN
-----------

Occupied/Occupied contributions to the Hessian:
   => Occupied/Occupied contributions              ... done (  0.1 sec)
Perturbed density contributions to the Hessian:
   => Perturbed density contributions              ... done (  0.3 sec)
Explicit contributions to the Hessian:
   => Nuclear repulsion Hessian                    ... done (  0.0 sec)
   => HCore and overlap Hessian                    ... done ( 61.0 sec)
   => RI-J Hessian                                 ... done ( 44.0 sec)
   => XC-Hessian                                   ... done (217.8 sec)
   => Van der Waals-Hessian                        ... done (  4.0 sec)
   => GCP-Hessian                                  ... done (  0.1 sec)
   => Explicit contributions done
Dipole derivatives                                 ... done (  0.5 sec)
Mass weighting the Hessian           ... done
Calculating normal modes             ... done
Scaling frequencies                  ... done

-----------------------
VIBRATIONAL FREQUENCIES
-----------------------

Scaling factor for frequencies =  1.000000000  (already applied!)

     0:       0.00 cm**-1
     1:       0.00 cm**-1
     2:       0.00 cm**-1
     3:       0.00 cm**-1
     4:       0.00 cm**-1
     5:       0.00 cm**-1
     6:      45.33 cm**-1
     7:      47.92 cm**-1
     8:      68.83 cm**-1
     9:     134.77 cm**-1
    10:     181.81 cm**-1
    11:     187.89 cm**-1
    12:     194.51 cm**-1
    13:     205.23 cm**-1
    14:     250.83 cm**-1
    15:     260.07 cm**-1
    16:     367.10 cm**-1
    17:     405.83 cm**-1
    18:     419.33 cm**-1
    19:     433.91 cm**-1
    20:     462.15 cm**-1
    21:     502.98 cm**-1
    22:     537.95 cm**-1
    23:     589.16 cm**-1
    24:     591.72 cm**-1
    25:     634.51 cm**-1
    26:     703.69 cm**-1
    27:     709.74 cm**-1
    28:     750.92 cm**-1
    29:     777.80 cm**-1
    30:     788.26 cm**-1
    31:     820.00 cm**-1
    32:     849.71 cm**-1
    33:     868.21 cm**-1
    34:     871.42 cm**-1
    35:     920.23 cm**-1
    36:     957.37 cm**-1
    37:     981.19 cm**-1
    38:    1015.54 cm**-1
    39:    1029.35 cm**-1
    40:    1053.51 cm**-1
    41:    1098.92 cm**-1
    42:    1108.29 cm**-1
    43:    1126.22 cm**-1
    44:    1182.18 cm**-1
    45:    1199.71 cm**-1
    46:    1204.13 cm**-1
    47:    1291.51 cm**-1
    48:    1307.33 cm**-1
    49:    1324.18 cm**-1
    50:    1348.91 cm**-1
    51:    1392.27 cm**-1
    52:    1458.26 cm**-1
    53:    1470.00 cm**-1
    54:    1523.68 cm**-1
    55:    1566.84 cm**-1
    56:    1601.99 cm**-1
    57:    1609.29 cm**-1
    58:    1633.50 cm**-1
    59:    3155.23 cm**-1
    60:    3159.97 cm**-1
    61:    3167.90 cm**-1
    62:    3174.83 cm**-1
    63:    3183.30 cm**-1
    64:    3209.03 cm**-1
    65:    3209.55 cm**-1


------------
NORMAL MODES
------------

These modes are the Cartesian displacements weighted by the diagonal matrix
M(i,i)=1/sqrt(m[i]) where m[i] is the mass of the displaced atom
Thus, these vectors are normalized but *not* orthogonal

                  0          1          2          3          4          5    
      0       0.000000   0.000000   0.000000   0.000000   0.000000   0.000000
      1       0.000000   0.000000   0.000000   0.000000   0.000000   0.000000
      2       0.000000   0.000000   0.000000   0.000000   0.000000   0.000000
      3       0.000000   0.000000   0.000000   0.000000   0.000000   0.000000
      4       0.000000   0.000000   0.000000   0.000000   0.000000   0.000000
      5       0.000000   0.000000   0.000000   0.000000   0.000000   0.000000
      6       0.000000   0.000000   0.000000   0.000000   0.000000   0.000000
      7       0.000000   0.000000   0.000000   0.000000   0.000000   0.000000
      8       0.000000   0.000000   0.000000   0.000000   0.000000   0.000000
      9       0.000000   0.000000   0.000000   0.000000   0.000000   0.000000
     10       0.000000   0.000000   0.000000   0.000000   0.000000   0.000000
     11       0.000000   0.000000   0.000000   0.000000   0.000000   0.000000
     12       0.000000   0.000000   0.000000   0.000000   0.000000   0.000000
     13       0.000000   0.000000   0.000000   0.000000   0.000000   0.000000
     14       0.000000   0.000000   0.000000   0.000000   0.000000   0.000000
     15       0.000000   0.000000   0.000000   0.000000   0.000000   0.000000
     16       0.000000   0.000000   0.000000   0.000000   0.000000   0.000000
     17       0.000000   0.000000   0.000000   0.000000   0.000000   0.000000
     18       0.000000   0.000000   0.000000   0.000000   0.000000   0.000000
     19       0.000000   0.000000   0.000000   0.000000   0.000000   0.000000
     20       0.000000   0.000000   0.000000   0.000000   0.000000   0.000000
     21       0.000000   0.000000   0.000000   0.000000   0.000000   0.000000
     22       0.000000   0.000000   0.000000   0.000000   0.000000   0.000000
     23       0.000000   0.000000   0.000000   0.000000   0.000000   0.000000
     24       0.000000   0.000000   0.000000   0.000000   0.000000   0.000000
     25       0.000000   0.000000   0.000000   0.000000   0.000000   0.000000
     26       0.000000   0.000000   0.000000   0.000000   0.000000   0.000000
     27       0.000000   0.000000   0.000000   0.000000   0.000000   0.000000
[...]
     47       0.001610  -0.000080   0.004450   0.000073  -0.000016  -0.000000
     48       0.224588  -0.034816   0.269978  -0.244988  -0.000160  -0.000286
     49       0.148334  -0.019917   0.175707  -0.162254  -0.000083  -0.000150
     50      -0.365285   0.049067  -0.432416   0.399402   0.000252   0.000349
     51       0.270106   0.275133  -0.229099   0.139465   0.000361   0.001937
     52      -0.177606  -0.180997   0.148338  -0.089729  -0.000262  -0.001227
     53       0.432435   0.440746  -0.361047   0.218437   0.000580   0.003077
     54      -0.269577   0.275322   0.229494   0.139334  -0.000378   0.001934
     55      -0.177046   0.180907   0.148417   0.089537  -0.000273   0.001223
     56       0.431526  -0.440987  -0.361624  -0.218204   0.000607  -0.003072
     57      -0.224177  -0.034655  -0.270067  -0.244453   0.000162  -0.000284
     58       0.148273   0.019843   0.176020   0.162134  -0.000085   0.000149
     59      -0.364645  -0.048810  -0.432595  -0.398571   0.000256  -0.000346
     60      -0.000210  -0.001348   0.000372  -0.000802   0.347900   0.350508
     61      -0.000323  -0.002665   0.000622  -0.001641   0.602820   0.608268
     62      -0.000069  -0.000410   0.000098  -0.000231   0.086287   0.087077
     63       0.000208  -0.001349  -0.000373  -0.000802  -0.351096   0.347656
     64      -0.000318   0.002665   0.000625   0.001641   0.607939  -0.602901
     65      -0.000068   0.000410   0.000098   0.000231   0.087200  -0.086487


-----------
IR SPECTRUM
-----------

 Mode   freq       eps      Int      T**2         TX        TY        TZ
       cm**-1   L/(mol*cm) km/mol    a.u.
----------------------------------------------------------------------------
  6:     45.33   0.000000    0.00  0.000002  ( 0.001332  0.000028 -0.000003)
  7:     47.92   0.000014    0.07  0.000090  (-0.000003 -0.000875 -0.009439)
  8:     68.83   0.000073    0.37  0.000331  (-0.000000 -0.017618 -0.004515)
  9:    134.77   0.000001    0.00  0.000002  ( 0.000005  0.000186  0.001350)
 10:    181.81   0.000052    0.26  0.000090  (-0.000012 -0.001761 -0.009317)
 11:    187.89   0.000048    0.24  0.000080  ( 0.008948 -0.000015 -0.000005)
 12:    194.51   0.000022    0.11  0.000036  ( 0.000014  0.005894 -0.001135)
 13:    205.23   0.000002    0.01  0.000003  (-0.001588 -0.000001  0.000002)
 14:    250.83   0.000002    0.01  0.000002  (-0.000014  0.001312 -0.000545)
 15:    260.07   0.000103    0.52  0.000123  (-0.011113 -0.000001  0.000004)
 16:    367.10   0.000011    0.06  0.000010  (-0.003090 -0.000002 -0.000002)
 17:    405.83   0.000021    0.11  0.000016  ( 0.004003 -0.000001  0.000010)
 18:    419.33   0.000191    0.96  0.000142  ( 0.000004  0.006582 -0.009939)
 19:    433.91   0.001261    6.37  0.000907  ( 0.000005 -0.029705 -0.004979)
 20:    462.15   0.000182    0.92  0.000123  (-0.000023  0.010771  0.002620)
 21:    502.98   0.004145   20.95  0.002572  ( 0.050711  0.000003 -0.000014)
 22:    537.95   0.000040    0.20  0.000023  (-0.004844 -0.000002 -0.000003)
 23:    589.16   0.002905   14.68  0.001539  (-0.000021 -0.032860 -0.021421)
 24:    591.72   0.001157    5.85  0.000610  (-0.000005  0.019737 -0.014856)
 25:    634.51   0.000048    0.24  0.000024  ( 0.000002 -0.001754  0.004524)
 26:    703.69   0.001386    7.00  0.000615  ( 0.024792 -0.000038 -0.000037)
 27:    709.74   0.009015   45.56  0.003964  ( 0.000040  0.057509  0.025620)
 28:    750.92   0.001622    8.20  0.000674  (-0.000041 -0.016303 -0.020206)
 29:    777.80   0.007138   36.07  0.002864  (-0.000001 -0.051795 -0.013460)
 30:    788.26   0.010479   52.96  0.004149  ( 0.000037 -0.063992 -0.007325)
 31:    820.00   0.012985   65.62  0.004942  (-0.070297 -0.000034  0.000022)
 32:    849.71   0.000001    0.01  0.000000  (-0.000614  0.000003 -0.000003)
 33:    868.21   0.005651   28.56  0.002031  ( 0.000017 -0.006448  0.044607)
 34:    871.42   0.000003    0.01  0.000001  (-0.000950 -0.000006  0.000015)
 35:    920.23   0.000048    0.24  0.000016  ( 0.000006 -0.000481  0.004024)
 36:    957.37   0.000001    0.01  0.000000  (-0.000688  0.000002 -0.000004)
 37:    981.19   0.000005    0.03  0.000002  (-0.000015 -0.000789  0.001018)
 38:   1015.54   0.000384    1.94  0.000118  ( 0.010869  0.000002  0.000002)
 39:   1029.35   0.002058   10.40  0.000624  ( 0.024979 -0.000003 -0.000002)
 40:   1053.51   0.000650    3.28  0.000192  (-0.013872  0.000001  0.000007)
 41:   1098.92   0.001110    5.61  0.000315  ( 0.000004 -0.003237  0.017456)
 42:   1108.29   0.001843    9.32  0.000519  ( 0.022783  0.000010 -0.000010)
 43:   1126.22   0.003284   16.60  0.000910  (-0.030166 -0.000001  0.000006)
 44:   1182.18   0.000008    0.04  0.000002  (-0.000001 -0.001174 -0.000877)
 45:   1199.71   0.000126    0.64  0.000033  ( 0.005719  0.000017  0.000004)
 46:   1204.13   0.003618   18.28  0.000938  (-0.000002  0.030288  0.004509)
 47:   1291.51   0.000109    0.55  0.000026  ( 0.005141 -0.000048 -0.000003)
 48:   1307.33   0.002540   12.84  0.000606  ( 0.000001  0.024445  0.002951)
 49:   1324.18   0.000081    0.41  0.000019  ( 0.000003  0.004340  0.000452)
 50:   1348.91   0.000187    0.95  0.000043  ( 0.000001  0.001736 -0.006344)
 51:   1392.27   0.009870   49.88  0.002212  ( 0.000002 -0.046471 -0.007263)
 52:   1458.26   0.017634   89.12  0.003774  ( 0.061430  0.000008 -0.000013)
 53:   1470.00   0.001128    5.70  0.000240  ( 0.000007  0.005067 -0.014623)
 54:   1523.68   0.000063    0.32  0.000013  (-0.003590 -0.000001  0.000008)
 55:   1566.84   0.015045   76.03  0.002997  (-0.000024 -0.053869 -0.009727)
 56:   1601.99   0.015285   77.24  0.002977  ( 0.054566 -0.000010 -0.000023)
 57:   1609.29   0.000436    2.20  0.000084  ( 0.000009  0.007018 -0.005936)
 58:   1633.50   0.000972    4.91  0.000186  (-0.013629 -0.000003  0.000001)
 59:   3155.23   0.000318    1.61  0.000031  ( 0.005608 -0.000005  0.000009)
 60:   3159.97   0.000065    0.33  0.000006  (-0.000004 -0.000970  0.002340)
 61:   3167.90   0.002109   10.66  0.000208  (-0.014414  0.000006 -0.000000)
 62:   3174.83   0.003956   19.99  0.000389  ( 0.000006 -0.007097  0.018398)
 63:   3183.30   0.002705   13.67  0.000265  ( 0.016284  0.000002 -0.000015)
 64:   3209.03   0.000706    3.57  0.000069  (-0.000017  0.008175  0.001339)
 65:   3209.55   0.000147    0.74  0.000014  ( 0.003782  0.000037  0.000005)

* The epsilon (eps) is given for a Dirac delta lineshape.
** The dipole moment derivative (T) already includes vibrational overlap.

The first frequency considered to be a vibration is 6
The total number of vibrations considered is 60


--------------------------
THERMOCHEMISTRY AT 298.15K
--------------------------

Temperature         ...   298.15 K
Pressure            ...     1.00 atm
Total Mass          ...   257.55 AMU
Quasi RRHO          ...     True
Cut-Off Frequency   ...     1.00 cm^-1

Throughout the following assumptions are being made:
  (1) The electronic state is orbitally nondegenerate
  (2) There are no thermally accessible electronically excited states
  (3) Hindered rotations indicated by low frequency modes are not
      treated as such but are treated as vibrations and this may
      cause some error
  (4) All equations used are the standard statistical mechanics
      equations for an ideal gas
  (5) All vibrations are strictly harmonic

freq.      45.33  E(vib)   ...       0.53 
freq.      47.92  E(vib)   ...       0.53 
freq.      68.83  E(vib)   ...       0.50 
freq.     134.77  E(vib)   ...       0.42 
freq.     181.81  E(vib)   ...       0.37 
freq.     187.89  E(vib)   ...       0.36 
freq.     194.51  E(vib)   ...       0.36 
freq.     205.23  E(vib)   ...       0.35 
freq.     250.83  E(vib)   ...       0.30 
freq.     260.07  E(vib)   ...       0.30 
freq.     367.10  E(vib)   ...       0.22 
freq.     405.83  E(vib)   ...       0.19 
freq.     419.33  E(vib)   ...       0.18 
freq.     433.91  E(vib)   ...       0.17 
freq.     462.15  E(vib)   ...       0.16 
freq.     502.98  E(vib)   ...       0.14 
freq.     537.95  E(vib)   ...       0.12 
freq.     589.16  E(vib)   ...       0.10 
freq.     591.72  E(vib)   ...       0.10 
freq.     634.51  E(vib)   ...       0.09 
freq.     703.69  E(vib)   ...       0.07 
freq.     709.74  E(vib)   ...       0.07 
freq.     750.92  E(vib)   ...       0.06 
freq.     777.80  E(vib)   ...       0.05 
freq.     788.26  E(vib)   ...       0.05 
freq.     820.00  E(vib)   ...       0.05 
freq.     849.71  E(vib)   ...       0.04 
freq.     868.21  E(vib)   ...       0.04 
freq.     871.42  E(vib)   ...       0.04 
freq.     920.23  E(vib)   ...       0.03 
freq.     957.37  E(vib)   ...       0.03 
freq.     981.19  E(vib)   ...       0.02 
freq.    1015.54  E(vib)   ...       0.02 
freq.    1029.35  E(vib)   ...       0.02 
freq.    1053.51  E(vib)   ...       0.02 
freq.    1098.92  E(vib)   ...       0.02 
freq.    1108.29  E(vib)   ...       0.02 
freq.    1126.22  E(vib)   ...       0.01 
freq.    1182.18  E(vib)   ...       0.01 
freq.    1199.71  E(vib)   ...       0.01 
freq.    1204.13  E(vib)   ...       0.01 
freq.    1291.51  E(vib)   ...       0.01 
freq.    1307.33  E(vib)   ...       0.01 
freq.    1324.18  E(vib)   ...       0.01 
freq.    1348.91  E(vib)   ...       0.01 
freq.    1392.27  E(vib)   ...       0.00 
freq.    1458.26  E(vib)   ...       0.00 
freq.    1470.00  E(vib)   ...       0.00 
freq.    1523.68  E(vib)   ...       0.00 
freq.    1566.84  E(vib)   ...       0.00 
freq.    1601.99  E(vib)   ...       0.00 
freq.    1609.29  E(vib)   ...       0.00 
freq.    1633.50  E(vib)   ...       0.00 
freq.    3155.23  E(vib)   ...       0.00 
freq.    3159.97  E(vib)   ...       0.00 
freq.    3167.90  E(vib)   ...       0.00 
freq.    3174.83  E(vib)   ...       0.00 
freq.    3183.30  E(vib)   ...       0.00 
freq.    3209.03  E(vib)   ...       0.00 
freq.    3209.55  E(vib)   ...       0.00 

------------
INNER ENERGY
------------

The inner energy is: U= E(el) + E(ZPE) + E(vib) + E(rot) + E(trans)
    E(el)   - is the total energy from the electronic structure calculation
              = E(kin-el) + E(nuc-el) + E(el-el) + E(nuc-nuc)
    E(ZPE)  - the the zero temperature vibrational energy from the frequency calculation
    E(vib)  - the the finite temperature correction to E(ZPE) due to population
              of excited vibrational states
    E(rot)  - is the rotational thermal energy
    E(trans)- is the translational thermal energy

Summary of contributions to the inner energy U:
Electronic energy                ...  -1841.96741275 Eh
Zero point energy                ...      0.15110137 Eh      94.82 kcal/mol
Thermal vibrational correction   ...      0.00993243 Eh       6.23 kcal/mol
Thermal rotational correction    ...      0.00141627 Eh       0.89 kcal/mol
Thermal translational correction ...      0.00141627 Eh       0.89 kcal/mol
-----------------------------------------------------------------------
Total thermal energy                  -1841.80354641 Eh


Summary of corrections to the electronic energy:
(perhaps to be used in another calculation)
Total thermal correction                  0.01276497 Eh       8.01 kcal/mol
Non-thermal (ZPE) correction              0.15110137 Eh      94.82 kcal/mol
-----------------------------------------------------------------------
Total correction                          0.16386634 Eh     102.83 kcal/mol


--------
ENTHALPY
--------

The enthalpy is H = U + kB*T
                kB is Boltzmann's constant
Total thermal energy              ...  -1841.80354641 Eh 
Thermal Enthalpy correction       ...      0.00094421 Eh       0.59 kcal/mol
-----------------------------------------------------------------------
Total Enthalpy                    ...  -1841.80260220 Eh


Note: Only C1 symmetry has been detected, increase convergence thresholds 
      if your molecule has a higher symmetry. Symmetry factor of 1.0 is   
      used for the rotational entropy correction. 
 

Note: Rotational entropy computed according to Herzberg 
Infrared and Raman Spectra, Chapter V,1, Van Nostrand Reinhold, 1945 
Point Group:  C1, Symmetry Number:   1  
Rotational constants in cm-1:     0.024314     0.009464     0.007300 

Vibrational entropy computed according to the QRRHO of S. Grimme
Chem.Eur.J. 2012 18 9955 using a reference frequency of 100.0 cm-1


-------
ENTROPY
-------

The entropy contributions are T*S = T*(S(el)+S(vib)+S(rot)+S(trans))
     S(el)   - electronic entropy
     S(vib)  - vibrational entropy
     S(rot)  - rotational entropy
     S(trans)- translational entropy
The entropies will be listed as multiplied by the temperature to get
units of energy

Electronic entropy                ...      0.00000000 Eh      0.00 kcal/mol
Vibrational entropy               ...      0.01706729 Eh     10.71 kcal/mol
Rotational entropy                ...      0.01578811 Eh      9.91 kcal/mol
Translational entropy             ...      0.02021108 Eh     12.68 kcal/mol
-----------------------------------------------------------------------
Final entropy term                ...      0.05306648 Eh     33.30 kcal/mol

In case the symmetry of your molecule has not been determined correctly
or in case you have a reason to use a different symmetry number we print 
out the resulting rotational entropy values for sn=1,12:

 non-linear molecules -----------------------------------
|  sn= 1 | S(rot)=       0.01578811 Eh      9.91 kcal/mol|
|  sn= 2 | S(rot)=       0.01513365 Eh      9.50 kcal/mol|
|  sn= 3 | S(rot)=       0.01475082 Eh      9.26 kcal/mol|
|  sn= 4 | S(rot)=       0.01447919 Eh      9.09 kcal/mol|
|  sn= 5 | S(rot)=       0.01426851 Eh      8.95 kcal/mol|
|  sn= 6 | S(rot)=       0.01409636 Eh      8.85 kcal/mol|
|  sn= 7 | S(rot)=       0.01395082 Eh      8.75 kcal/mol|
|  sn= 8 | S(rot)=       0.01382474 Eh      8.68 kcal/mol|
|  sn= 9 | S(rot)=       0.01371353 Eh      8.61 kcal/mol|
|  sn=10 | S(rot)=       0.01361405 Eh      8.54 kcal/mol|
|  sn=11 | S(rot)=       0.01352406 Eh      8.49 kcal/mol|
|  sn=12 | S(rot)=       0.01344190 Eh      8.43 kcal/mol|
 linear molecules ---------------------------------------
|  Dinfh | S(rot)=       0.00997102 Eh      6.26 kcal/mol|
|  Cinfv | S(rot)=       0.01062548 Eh      6.67 kcal/mol|
 --------------------------------------------------------


-------------------
GIBBS FREE ENERGY
-------------------

The Gibbs free energy is G = H - T*S

Total enthalpy                    ...  -1841.80260220 Eh 
Total entropy correction          ...     -0.05306648 Eh    -33.30 kcal/mol
-----------------------------------------------------------------------
Final Gibbs free energy         ...  -1841.85566868 Eh

For completeness - the Gibbs free energy minus the electronic energy
G-E(el)                           ...      0.11174407 Eh     70.12 kcal/mol


Maximum memory used throughout the entire PROP-calculation: 111.6 MB

--------------------------------
SUGGESTED CITATIONS FOR THIS RUN
--------------------------------

Below you find a list of papers that are relevant to this ORCA run
We neither can nor want to force you to cite these papers, but we appreciate if you do
You receive ORCA, which is the product of decades of hard work by many enthusiastic individuals, for free
The only thing we kindly ask in return is that you cite our papers,
We deeply appreciate it, if you show your appreciation for ORCA by not just citing the generic ORCA reference.

Please note that relegating all ORCA citations to the supporting information does *not* help us.
SI sections are not indexed - citations you put there will not count into any citation statistics
But we need these citations in order to attract the funding resources that allow us to do what we are doing

Therefore, if you are a happy ORCA user, please consider citing a few of the papers listed below in the main body of your paper

In addition to the list printed below, the program has created the file censo.bibtex that contains the list in bibtex format
You can import this file easily into all common literature databanks and citation aid programs


List of essential papers. We consider these as the minimum necessary citations

  1. Neese,F.
     Software update: the ORCA program system, version 5.0
     WIRES Comput. Molec. Sci., 2022 12(1)e1606
     doi.org/10.1002/wcms.1606
  2. Grimme,S.; Hansen,A.; Ehlert,S.; Mewes,J.
     r2SCAN-3c: A 'Swiss army knife' composite electronic-structure method
     J. Chem. Phys., 2021 154 064103
     doi.org/10.1063/5.0040021

List of papers to cite with high priority. The work reported in these papers was absolutely
necessary for this run to complete.
Our perspective: the developers of density functionals and basis sets usually get cited in chemistry papers
Good! But without the algorithms to do something with them, the functionals or basis sets would not do anything.
Hence, in our opinion, the algorithm design and method developments papers are equally worthy of getting cited

  1. Neese,F.
     An improvement of the resolution of the identity approximation for the formation of the Coulomb matrix
     J. Comp. Chem., 2003 24(14)1740-1747
     doi.org/10.1002/jcc.10318
  2. Bykov,D.; Petrenko,T.; Izsak,R.; Kossmann,S.; Becker,U.; Valeev,E.; Neese,F.
     Efficient implementation of the analytic second derivatives of Hartree-Fock and hybrid DFT energies: a detailed analysis of different approximations
     Molec. Phys., 2015 113 1961-1977
     doi.org/10.1080/00268976.2015.1025114
  3. Neese,F.
     The SHARK Integral Generation and Digestion System
     J. Comp. Chem., 2022  1-16
     doi.org/10.1002/jcc.26942
  4. Lehtola,S.; Steigemann,C.; Oliveira,M.; Marques,M.
     Recent developments in Libxc - A comprehensive library of functionals for density functional theory
     Software X, 2018 7 
     doi.org/10.1016/j.softx.2017.11.002
  5. Caldeweyher,E.; Bannwarth,C.; Grimme,S.
     Extension of the D3 dispersion coefficient model
     J. Chem. Phys., 2017 147 034112-XXXX
     doi.org/10.1063/1.4993215
  6. Caldeweyher,E.; Ehlert,S.; Hansen,A.; Neugebauer,H.; Spicher,S.; Bannwarth,C.; Grimme,S.
     A generally applicable atomic-charge dependent London dispersion correction
     J. Chem. Phys., 2019 150 154122-XXXX
     doi.org/10.1063/1.5090222
  7. Caldeweyher,E.; Mewes,J.; Ehlert,S.; Grimme,S.
     Extension and evaluation of the D4 London-dispersion model for periodic systems
     Phys. Chem. Chem. Phys., 2020 22(16)8499-8512
     doi.org/10.1039/D0CP00502A

List of suggested additional citations. These are papers that are important in the 'surrounding' of 
of this run, or papers that preceded the highly important papers. If you like your results we are grateful for a citation.

  1. Neese,F.
     The ORCA program system
     WIRES Comput. Molec. Sci., 2012 2(1)73-78
     doi.org/10.1002/wcms.81
  2. Neese,F.
     Software update: the ORCA program system, version 4.0
     WIRES Comput. Molec. Sci., 2018 8(1)1-6
     doi.org/10.1002/wcms.1327
  3. Neese,F.; Wennmohs,F.; Becker,U.; Riplinger,C.
     The ORCA quantum chemistry program package
     J. Chem. Phys., 2020 152 Art. No. L224108
     doi.org/10.1063/5.0004608

List of optional additional citations

  1. Neese,F.
     Approximate second-order SCF convergence for spin unrestricted wavefunctions
     Chem. Phys. Lett., 2000 325(1-3)93-98
     doi.org/10.1016/s0009-2614(00)00662-x

Timings for individual modules:

Sum of individual times          ...     2245.707 sec (=  37.428 min)
Startup calculation              ...        2.418 sec (=   0.040 min)   0.1 %
SCF iterations                   ...       85.029 sec (=   1.417 min)   3.8 %
Property integrals               ...     1251.251 sec (=  20.854 min)  55.7 %
SCF Response                     ...      579.070 sec (=   9.651 min)  25.8 %
Property calculations            ...      327.939 sec (=   5.466 min)  14.6 %
                             ****ORCA TERMINATED NORMALLY****
TOTAL RUN TIME: 0 days 0 hours 37 minutes 26 seconds 494 msec
