 Entering Gaussian System
 *********************************************
 Gaussian 98:
 frequency output generated by the xtb code
 *********************************************
                         Standard orientation:
 --------------------------------------------------------------------
  Center     Atomic     Atomic              Coordinates (Angstroms)
  Number     Number      Type              X           Y           Z
 --------------------------------------------------------------------
    1          6             0       -3.462595    0.420695   -0.000022
    2          6             0       -2.699731    1.574779   -0.000014
    3          6             0       -1.317005    1.488768   -0.000005
    4          6             0       -0.709938    0.250024   -0.000004
    5          6             0       -1.464267   -0.919785   -0.000012
    6          6             0       -2.850400   -0.820251   -0.000021
    7          8             0       -0.811001   -2.104073   -0.000011
    8         53             0        1.391396    0.069966    0.000010
    9          1             0       -4.540105    0.481590   -0.000029
   10          1             0       -3.174896    2.543130   -0.000015
   11          1             0       -0.713796    2.383328    0.000001
   12          1             0       -3.444859   -1.724154   -0.000028
   13          1             0       -1.434432   -2.839622   -0.000017
 --------------------------------------------------------------------
     1 basis functions        1 primitive gaussians
     1 alpha electrons        1 beta electrons
 
 Harmonic frequencies (cm**-1), IR intensities (km*mol⁻¹),
 Raman scattering activities (A**4/amu), Raman depolarization ratios,
 reduced masses (AMU), force constants (mDyne/A) and normal coordinates:
                      1                      2                      3
                        a                      a                      a 
 Frequencies --   125.0517               159.4104               238.6778
 Red. masses --    17.2253                33.1035                11.5263
 Frc consts  --     0.0000                 0.0000                 0.0000
 IR Inten    --     0.1617                 0.4519                 0.0101
 Raman Activ --     0.0000                 0.0000                 0.0000
 Depolar     --     0.0000                 0.0000                 0.0000
 Atom AN      X      Y      Z        X      Y      Z        X      Y      Z
   1   6     0.00   0.00  -0.41     0.02  -0.09  -0.00    -0.00  -0.00   0.17
   2   6    -0.00  -0.00   0.12    -0.14   0.01  -0.00    -0.00  -0.00   0.40
   3   6    -0.00  -0.00   0.45    -0.11   0.23  -0.00     0.00   0.00  -0.20
   4   6    -0.00  -0.00   0.32     0.00   0.29   0.00     0.00   0.00  -0.48
   5   6    -0.00  -0.00   0.13     0.16   0.20   0.00     0.00   0.00  -0.29
   6   6     0.00   0.00  -0.34     0.16  -0.03   0.00     0.00   0.00  -0.38
   7   8    -0.00  -0.00   0.44     0.54   0.44   0.00    -0.00  -0.00   0.41
   8  53     0.00   0.00  -0.23    -0.23  -0.35  -0.00    -0.00   0.00   0.06
   9   1     0.00   0.00  -0.24     0.00  -0.06  -0.00    -0.00  -0.00   0.14
  10   1    -0.00  -0.00   0.05    -0.08  -0.02  -0.00    -0.00  -0.00   0.28
  11   1    -0.00  -0.00   0.21    -0.07   0.09  -0.00     0.00   0.00  -0.06
  12   1     0.00   0.00  -0.19     0.08  -0.03   0.00     0.00   0.00  -0.14
  13   1    -0.00  -0.00   0.04     0.20   0.06   0.00    -0.00  -0.00   0.16
                      4                      5                      6
                        a                      a                      a 
 Frequencies --   255.3846               393.3000               429.9127
 Red. masses --    51.3078                 6.5211                 5.4281
 Frc consts  --     0.0000                 0.0000                 0.0000
 IR Inten    --     2.5930                52.8361                89.5354
 Raman Activ --     0.0000                 0.0000                 0.0000
 Depolar     --     0.0000                 0.0000                 0.0000
 Atom AN      X      Y      Z        X      Y      Z        X      Y      Z
   1   6    -0.35  -0.10  -0.00     0.00   0.00  -0.25    -0.00  -0.00   0.12
   2   6    -0.38  -0.08  -0.00     0.00   0.00  -0.04    -0.00  -0.00   0.05
   3   6    -0.34   0.05  -0.00    -0.00  -0.00   0.34     0.00   0.00  -0.21
   4   6    -0.09   0.15  -0.00     0.00   0.00  -0.41    -0.00  -0.00   0.39
   5   6    -0.14   0.17  -0.00     0.00   0.00  -0.20    -0.00  -0.00   0.15
   6   6    -0.17   0.00  -0.00    -0.00  -0.00   0.31     0.00   0.00  -0.25
   7   8    -0.24   0.17  -0.00     0.00   0.00  -0.11     0.00   0.00  -0.27
   8  53     0.58  -0.12   0.00    -0.00  -0.00   0.02    -0.00  -0.00  -0.02
   9   1    -0.10  -0.06  -0.00     0.00   0.00  -0.12    -0.00  -0.00   0.04
  10   1    -0.12  -0.03  -0.00    -0.00  -0.00   0.02    -0.00  -0.00  -0.00
  11   1    -0.15   0.05  -0.00    -0.00  -0.00   0.27     0.00   0.00  -0.17
  12   1    -0.00  -0.03  -0.00    -0.00  -0.00   0.25     0.00   0.00  -0.20
  13   1    -0.07   0.05  -0.00    -0.00  -0.00   0.60    -0.00  -0.00   0.74
                      7                      8                      9
                        a                      a                      a 
 Frequencies --   443.9847               505.5988               523.3545
 Red. masses --    13.2304                10.2381                12.9615
 Frc consts  --     0.0000                 0.0000                 0.0000
 IR Inten    --    12.6353                 0.0077                 0.8498
 Raman Activ --     0.0000                 0.0000                 0.0000
 Depolar     --     0.0000                 0.0000                 0.0000
 Atom AN      X      Y      Z        X      Y      Z        X      Y      Z
   1   6    -0.15   0.18  -0.00    -0.00  -0.00   0.40    -0.03   0.24   0.00
   2   6     0.08   0.03   0.00     0.00   0.00  -0.45    -0.32   0.41  -0.00
   3   6     0.06  -0.22  -0.00    -0.00  -0.00   0.26    -0.33  -0.04  -0.00
   4   6    -0.17  -0.28  -0.00    -0.00  -0.00   0.22    -0.17  -0.05  -0.00
   5   6    -0.37  -0.16  -0.00     0.00   0.00  -0.52     0.18  -0.27  -0.00
   6   6    -0.41  -0.01  -0.00     0.00   0.00  -0.18     0.18   0.27   0.00
   7   8     0.42   0.29   0.00    -0.00   0.00   0.19     0.27  -0.42   0.00
   8  53     0.13   0.03   0.00    -0.00   0.00  -0.02     0.07  -0.03   0.00
   9   1    -0.04   0.13   0.00    -0.00  -0.00   0.30    -0.02  -0.04   0.00
  10   1     0.08   0.04   0.00     0.00   0.00  -0.21    -0.07   0.13  -0.00
  11   1     0.06  -0.09   0.00    -0.00  -0.00   0.19    -0.05  -0.04  -0.00
  12   1    -0.18   0.04  -0.00    -0.00  -0.00   0.03    -0.02   0.12   0.00
  13   1     0.30  -0.09   0.00    -0.00   0.00   0.07     0.07  -0.11   0.00
                     10                     11                     12
                        a                      a                      a 
 Frequencies --   634.8760               656.1133               776.0518
 Red. masses --    12.9280                11.4269                 3.3099
 Frc consts  --     0.0000                 0.0000                 0.0000
 IR Inten    --     1.8203                 1.5595                37.7342
 Raman Activ --     0.0000                 0.0000                 0.0000
 Depolar     --     0.0000                 0.0000                 0.0000
 Atom AN      X      Y      Z        X      Y      Z        X      Y      Z
   1   6    -0.40   0.10  -0.00     0.00   0.00  -0.30    -0.00  -0.00   0.18
   2   6    -0.03  -0.19  -0.00    -0.00  -0.00   0.28    -0.00  -0.00   0.19
   3   6    -0.04  -0.48  -0.00     0.00   0.00  -0.31    -0.00   0.00   0.17
   4   6     0.43  -0.16   0.00    -0.00  -0.00   0.47     0.00   0.00  -0.09
   5   6     0.18   0.16   0.00     0.00   0.00  -0.59     0.00   0.00  -0.24
   6   6     0.18   0.39   0.00    -0.00  -0.00   0.30    -0.00  -0.00   0.21
   7   8     0.02   0.14   0.00    -0.00  -0.00   0.09    -0.00  -0.00   0.05
   8  53    -0.12   0.01  -0.00     0.00   0.00  -0.01    -0.00  -0.00   0.01
   9   1    -0.11  -0.02  -0.00     0.00   0.00  -0.04     0.00   0.00  -0.46
  10   1     0.14   0.02   0.00    -0.00  -0.00   0.13     0.00   0.00  -0.53
  11   1    -0.06  -0.10  -0.00     0.00   0.00  -0.05     0.00   0.00  -0.36
  12   1     0.13   0.06   0.00    -0.00  -0.00   0.19     0.00   0.00  -0.41
  13   1    -0.01   0.05  -0.00     0.00   0.00  -0.01    -0.00  -0.00   0.02
                     13                     14                     15
                        a                      a                      a 
 Frequencies --   824.5587               863.0251               905.8581
 Red. masses --    12.0660                 3.3786                 3.8894
 Frc consts  --     0.0000                 0.0000                 0.0000
 IR Inten    --    21.4545                 0.3292                 0.6961
 Raman Activ --     0.0000                 0.0000                 0.0000
 Depolar     --     0.0000                 0.0000                 0.0000
 Atom AN      X      Y      Z        X      Y      Z        X      Y      Z
   1   6    -0.49   0.06  -0.00    -0.00  -0.00   0.08     0.00   0.00  -0.25
   2   6     0.14  -0.30  -0.00     0.00   0.00  -0.22     0.00   0.00  -0.18
   3   6     0.24   0.39   0.00     0.00   0.00  -0.19    -0.00  -0.00   0.36
   4   6     0.06   0.22   0.00    -0.00  -0.00   0.00     0.00   0.00  -0.03
   5   6     0.04  -0.02   0.00     0.00   0.00  -0.04     0.00   0.00  -0.05
   6   6    -0.18   0.12  -0.00    -0.00  -0.00   0.35    -0.00  -0.00   0.19
   7   8     0.22  -0.45   0.00    -0.00   0.00   0.02    -0.00   0.00   0.01
   8  53    -0.01  -0.00  -0.00     0.00  -0.00  -0.00    -0.00   0.00   0.00
   9   1    -0.13   0.13   0.00     0.00   0.00  -0.10    -0.00  -0.00   0.42
  10   1     0.04  -0.07   0.00    -0.00  -0.00   0.36    -0.00  -0.00   0.33
  11   1    -0.03   0.18   0.00    -0.00  -0.00   0.43     0.00   0.00  -0.62
  12   1    -0.03   0.01   0.00     0.00   0.00  -0.68     0.00   0.00  -0.26
  13   1     0.05  -0.10   0.00     0.00   0.00  -0.00    -0.00   0.00   0.01
                     16                     17                     18
                        a                      a                      a 
 Frequencies --   919.9091              1009.8440              1092.5549
 Red. masses --     3.1712                11.6683                 6.2464
 Frc consts  --     0.0000                 0.0000                 0.0000
 IR Inten    --     0.0113                27.0052                 0.5478
 Raman Activ --     0.0000                 0.0000                 0.0000
 Depolar     --     0.0000                 0.0000                 0.0000
 Atom AN      X      Y      Z        X      Y      Z        X      Y      Z
   1   6    -0.00  -0.00   0.31    -0.10  -0.05  -0.00    -0.39  -0.08  -0.00
   2   6     0.00   0.00  -0.27     0.14  -0.29   0.00    -0.09   0.40   0.00
   3   6    -0.00  -0.00   0.10     0.10   0.09   0.00     0.25   0.10   0.00
   4   6    -0.00  -0.00   0.06    -0.66  -0.11  -0.00    -0.03  -0.08  -0.00
   5   6     0.00   0.00  -0.08     0.03  -0.17  -0.00     0.07   0.02   0.00
   6   6     0.00   0.00  -0.10     0.36   0.36   0.00     0.01  -0.25  -0.00
   7   8    -0.00   0.00   0.00    -0.10   0.20  -0.00     0.00   0.02   0.00
   8  53     0.00  -0.00   0.00     0.05  -0.00   0.00    -0.00   0.00  -0.00
   9   1     0.00   0.00  -0.61    -0.03  -0.12  -0.00    -0.13  -0.20  -0.00
  10   1    -0.00  -0.00   0.54     0.02  -0.09  -0.00     0.12   0.19   0.00
  11   1     0.00   0.00  -0.26     0.13  -0.06   0.00     0.41  -0.20   0.00
  12   1    -0.00  -0.00   0.26     0.15   0.07   0.00     0.33  -0.30   0.00
  13   1     0.00  -0.00  -0.00     0.01   0.02   0.00    -0.07   0.06  -0.00
                     19                     20                     21
                        a                      a                      a 
 Frequencies --  1118.6979              1160.8408              1178.6547
 Red. masses --     4.7475                 2.9663                 1.3070
 Frc consts  --     0.0000                 0.0000                 0.0000
 IR Inten    --   120.9321                 7.5999                 0.2998
 Raman Activ --     0.0000                 0.0000                 0.0000
 Depolar     --     0.0000                 0.0000                 0.0000
 Atom AN      X      Y      Z        X      Y      Z        X      Y      Z
   1   6     0.03  -0.03   0.00    -0.02  -0.10  -0.00     0.02   0.08   0.00
   2   6    -0.14   0.05  -0.00    -0.12   0.02  -0.00    -0.06  -0.03  -0.00
   3   6     0.19   0.13   0.00     0.20   0.09   0.00    -0.03  -0.02  -0.00
   4   6     0.27  -0.03   0.00     0.14  -0.15   0.00     0.02  -0.09  -0.00
   5   6    -0.23  -0.09  -0.00     0.01  -0.02   0.00     0.05   0.05   0.00
   6   6     0.12   0.13   0.00    -0.10   0.14  -0.00    -0.00   0.04   0.00
   7   8    -0.25   0.05  -0.00     0.15   0.02   0.00    -0.00  -0.01  -0.00
   8  53    -0.02   0.01  -0.00    -0.01   0.00  -0.00    -0.00  -0.00  -0.00
   9   1    -0.01  -0.31  -0.00    -0.02  -0.35  -0.00     0.04   0.61   0.00
  10   1    -0.24  -0.08  -0.00    -0.44  -0.19  -0.00    -0.57  -0.28  -0.00
  11   1     0.02   0.06   0.00     0.27  -0.11   0.00     0.23  -0.16   0.00
  12   1     0.07   0.02   0.00    -0.39   0.28  -0.00     0.29  -0.18   0.00
  13   1     0.53  -0.48   0.00    -0.29   0.27  -0.00     0.03  -0.03   0.00
                     22                     23                     24
                        a                      a                      a 
 Frequencies --  1258.3161              1284.4858              1332.0892
 Red. masses --     4.8768                 8.5744                11.4744
 Frc consts  --     0.0000                 0.0000                 0.0000
 IR Inten    --     0.4022               121.9479                37.8044
 Raman Activ --     0.0000                 0.0000                 0.0000
 Depolar     --     0.0000                 0.0000                 0.0000
 Atom AN      X      Y      Z        X      Y      Z        X      Y      Z
   1   6    -0.07   0.10  -0.00    -0.20   0.00  -0.00     0.06   0.41   0.00
   2   6     0.03   0.16   0.00    -0.20   0.00  -0.00    -0.34  -0.19  -0.00
   3   6     0.17   0.13   0.00     0.11   0.11   0.00     0.32  -0.25   0.00
   4   6     0.08  -0.36  -0.00     0.12   0.04   0.00    -0.02   0.39   0.00
   5   6    -0.04  -0.30  -0.00     0.27  -0.45   0.00    -0.41  -0.10  -0.00
   6   6     0.01  -0.01   0.00     0.23  -0.25   0.00     0.28  -0.18   0.00
   7   8     0.03   0.15   0.00    -0.21   0.29  -0.00     0.10  -0.07   0.00
   8  53    -0.01   0.00  -0.00    -0.01   0.00  -0.00     0.00   0.00   0.00
   9   1    -0.03  -0.04  -0.00    -0.04   0.39   0.00     0.01  -0.05  -0.00
  10   1    -0.19  -0.05  -0.00     0.11   0.09   0.00    -0.02  -0.02  -0.00
  11   1    -0.52   0.42  -0.00     0.06   0.02   0.00     0.00  -0.01  -0.00
  12   1     0.24  -0.17   0.00    -0.37   0.21  -0.00     0.08  -0.05   0.00
  13   1    -0.20   0.20  -0.00     0.06  -0.02   0.00    -0.16   0.13  -0.00
                     25                     26                     27
                        a                      a                      a 
 Frequencies --  1433.5232              1467.4867              1574.9531
 Red. masses --     9.2639                 9.7769                11.4801
 Frc consts  --     0.0000                 0.0000                 0.0000
 IR Inten    --    17.5857                95.4531                19.3555
 Raman Activ --     0.0000                 0.0000                 0.0000
 Depolar     --     0.0000                 0.0000                 0.0000
 Atom AN      X      Y      Z        X      Y      Z        X      Y      Z
   1   6    -0.19   0.31  -0.00     0.13   0.26   0.00    -0.24  -0.11  -0.00
   2   6     0.36   0.11   0.00     0.11  -0.23   0.00     0.49   0.19   0.00
   3   6     0.02  -0.32  -0.00    -0.36   0.20  -0.00    -0.36   0.05  -0.00
   4   6    -0.20   0.28  -0.00     0.27   0.17   0.00     0.16   0.08   0.00
   5   6     0.39   0.00   0.00     0.06  -0.51  -0.00    -0.47  -0.07  -0.00
   6   6    -0.10  -0.27  -0.00    -0.26   0.10  -0.00     0.44  -0.13   0.00
   7   8    -0.12   0.05  -0.00    -0.04   0.15   0.00     0.06  -0.03   0.00
   8  53     0.00  -0.00   0.00    -0.01  -0.00  -0.00     0.00  -0.00   0.00
   9   1    -0.08  -0.26  -0.00     0.02  -0.21  -0.00    -0.06   0.04  -0.00
  10   1    -0.31  -0.17  -0.00     0.08  -0.05   0.00    -0.11  -0.07  -0.00
  11   1    -0.14  -0.00  -0.00     0.22  -0.16   0.00     0.03  -0.07   0.00
  12   1    -0.11  -0.02  -0.00     0.21  -0.17   0.00    -0.08   0.09  -0.00
  13   1     0.11  -0.10   0.00    -0.07   0.08  -0.00    -0.06   0.06  -0.00
                     28                     29                     30
                        a                      a                      a 
 Frequencies --  1593.8174              3063.2651              3091.7098
 Red. masses --    11.6242                 1.8114                 1.7812
 Frc consts  --     0.0000                 0.0000                 0.0000
 IR Inten    --    22.4299                27.7619                 6.0166
 Raman Activ --     0.0000                 0.0000                 0.0000
 Depolar     --     0.0000                 0.0000                 0.0000
 Atom AN      X      Y      Z        X      Y      Z        X      Y      Z
   1   6     0.01  -0.52  -0.00     0.04  -0.00   0.00     0.18  -0.01   0.00
   2   6     0.06   0.25   0.00     0.00   0.00   0.00    -0.07   0.15  -0.00
   3   6     0.20  -0.31   0.00    -0.00   0.00  -0.00    -0.05  -0.08  -0.00
   4   6    -0.00   0.48   0.00     0.00   0.00   0.00    -0.00  -0.00  -0.00
   5   6    -0.05  -0.33  -0.00     0.00  -0.01  -0.00    -0.00   0.00  -0.00
   6   6    -0.20   0.33  -0.00    -0.15  -0.22  -0.00     0.02   0.03   0.00
   7   8     0.01   0.04   0.00    -0.00   0.00  -0.00     0.00  -0.00   0.00
   8  53    -0.00  -0.00  -0.00    -0.00  -0.00  -0.00     0.00   0.00   0.00
   9   1     0.02   0.12   0.00    -0.17   0.01  -0.00    -0.66   0.04  -0.00
  10   1    -0.05   0.03  -0.00     0.00  -0.01  -0.00     0.27  -0.54   0.00
  11   1    -0.08   0.01  -0.00    -0.00  -0.00   0.00     0.19   0.28   0.00
  12   1     0.09  -0.01   0.00     0.53   0.79   0.00    -0.07  -0.10  -0.00
  13   1    -0.04   0.04  -0.00    -0.00   0.01  -0.00    -0.00  -0.00  -0.00
                     31                     32                     33
                        a                      a                      a 
 Frequencies --  3097.4953              3107.4368              3523.1096
 Red. masses --     1.8430                 1.9136                 1.8614
 Frc consts  --     0.0000                 0.0000                 0.0000
 IR Inten    --    36.7728                22.3153                19.7413
 Raman Activ --     0.0000                 0.0000                 0.0000
 Depolar     --     0.0000                 0.0000                 0.0000
 Atom AN      X      Y      Z        X      Y      Z        X      Y      Z
   1   6    -0.16   0.01  -0.00     0.12  -0.01   0.00     0.00  -0.00   0.00
   2   6    -0.03   0.05  -0.00     0.09  -0.19   0.00     0.00   0.00   0.00
   3   6    -0.12  -0.18  -0.00    -0.08  -0.13  -0.00    -0.00  -0.00  -0.00
   4   6    -0.01   0.00  -0.00    -0.01   0.00  -0.00     0.00   0.00   0.00
   5   6     0.00   0.00   0.00    -0.00   0.00  -0.00    -0.00  -0.01  -0.00
   6   6    -0.02  -0.03  -0.00     0.01   0.02   0.00     0.00   0.00   0.00
   7   8    -0.00  -0.00  -0.00     0.00  -0.00   0.00    -0.16  -0.18  -0.00
   8  53     0.00   0.00   0.00     0.00  -0.00   0.00     0.00  -0.00   0.00
   9   1     0.56  -0.03   0.00    -0.38   0.02  -0.00    -0.00   0.00  -0.00
  10   1     0.09  -0.19   0.00    -0.32   0.64  -0.00     0.00  -0.00   0.00
  11   1     0.41   0.62   0.00     0.28   0.42   0.00     0.00  -0.00   0.00
  12   1     0.06   0.08   0.00    -0.04  -0.05  -0.00     0.00  -0.00  -0.00
  13   1     0.00   0.00  -0.00    -0.00  -0.00  -0.00     0.62   0.75   0.00
