
                                 *****************
                                 * O   R   C   A *
                                 *****************

                                            #,                                       
                                            ###                                      
                                            ####                                     
                                            #####                                    
                                            ######                                   
                                           ########,                                 
                                     ,,################,,,,,                         
                               ,,#################################,,                 
                          ,,##########################################,,             
                       ,#########################################, ''#####,          
                    ,#############################################,,   '####,        
                  ,##################################################,,,,####,       
                ,###########''''           ''''###############################       
              ,#####''   ,,,,##########,,,,          '''####'''          '####       
            ,##' ,,,,###########################,,,                        '##       
           ' ,,###''''                  '''############,,,                           
         ,,##''                                '''############,,,,        ,,,,,,###''
      ,#''                                            '''#######################'''  
     '                                                          ''''####''''         
             ,#######,   #######,   ,#######,      ##                                
            ,#'     '#,  ##    ##  ,#'     '#,    #''#        ,####,   ,####,        
            ##       ##  ##   ,#'  ##            #'  '#       #'       #'  '#        
            ##       ##  #######   ##           ,######,      #####,   #    #        
            '#,     ,#'  ##    ##  '#,     ,#' ,#      #,     #,   #   #,  ,#        
             '#######'   ##     ##  '#######'  #'      '#     '####' # '####'        



                #########################################################
                #                        -***-                          #
                #          Department of theory and spectroscopy        #
                #                                                       #
                #                      Frank Neese                      #
                #                                                       #
                #     Directorship, Architecture, Infrastructure        #
                #                    SHARK, DRIVERS                     #
                #        Core code/Algorithms in most modules           #
                #                                                       #
                #        Max Planck Institute fuer Kohlenforschung      #
                #                Kaiser Wilhelm Platz 1                 #
                #                 D-45470 Muelheim/Ruhr                 #
                #                      Germany                          #
                #                                                       #
                #                  All rights reserved                  #
                #                        -***-                          #
                #########################################################


                         Program Version 6.0.1  -  RELEASE   -


 With contributions from (in alphabetic order):
[Max-Planck-Institut fuer Kohlenforschung]                               
  Daniel Aravena         : Magnetic Suceptibility                        
  Michael Atanasov       : Ab Initio Ligand Field Theory (pilot matlab implementation)
  Alexander A. Auer      : GIAO ZORA, VPT2 properties, NMR spectrum      
  Ute Becker             : All parallelization in ORCA, NUMFREQ, NUMCALC 
  Giovanni Bistoni       : ED, misc. LED, open-shell LED, HFLD           
  Martin Brehm           : Molecular dynamics                            
  Dmytro Bykov           : pre 5.0 version of the SCF Hessian            
  Marcos Casanova-Páez   : Triplet and SCS-CIS(D). UHF-(DLPNO)-IP/EA/STEOM-CCSD. UHF-CVS-IP/STEOM-CCSD   
  Vijay G. Chilkuri      : MRCI spin determinant printing, contributions to CSF-ICE 
  Pauline Colinet        : FMM embedding                                 
  Dipayan Datta          : RHF DLPNO-CCSD density                        
  Achintya Kumar Dutta   : EOM-CC, STEOM-CC                              
  Nicolas Foglia         : Exact transition moments, OPA infrastructure, MCD improvements    
  Dmitry Ganyushin       : Spin-Orbit,Spin-Spin,Magnetic field MRCI      
  Miquel Garcia-Rates    : C-PCM and meta-GGA Hessian, CCSD/C-PCM, Gaussian charge scheme 
  Tiago L. C. Gouveia    : GS-ROHF, GS-ROCIS                             
  Yang Guo               : DLPNO-NEVPT2, F12-NEVPT2, CIM, IAO-localization        
  Andreas Hansen         : Spin unrestricted coupled pair/coupled cluster methods 
  Ingolf Harden          : AUTO-CI MPn and infrastructure                
  Benjamin Helmich-Paris : MC-RPA, TRAH-(SCF,CASSCF), AVAS, COSX integrals, SCF dyn. polar. 
  Lee Huntington         : MR-EOM, pCC                                   
  Robert Izsak           : Overlap fitted RIJCOSX, COSX-SCS-MP3, EOM     
  Riya Kayal             : Wick's Theorem for AUTO-CI, AUTO-CI UHF-CCSDT 
  Emily Kempfer          : AUTO-CI, RHF CISDT and CCSDT                  
  Christian Kollmar      : KDIIS, OOCD, Brueckner-CCSD(T), CCSD density, CASPT2, CASPT2-K, improved NEVPT2 
  Axel Koslowski         : Symmetry handling                             
  Simone Kossmann        : meta-GGA functionals, TD-DFT gradient, OOMP2, (MP2 Hessian; deprecated post 5.0) 
  Lucas Lang             : DCDCAS                                        
  Marvin Lechner         : AUTO-CI (C++ implementation), FIC-MRCC        
  Spencer Leger          : CASSCF response                               
  Dagmar Lenk            : GEPOL surface, SMD, ORCA-2-JSON               
  Dimitrios Liakos       : Extrapolation schemes; Compound Job, initial MDCI parallelization 
  Dimitrios Manganas     : Further ROCIS development; embedding schemes. LFT, Crystal Embedding 
  Dimitrios Pantazis     : SARC Basis sets                               
  Anastasios Papadopoulos: AUTO-CI, single reference methods and gradients 
  Taras Petrenko         : pre 6.0 DFT Hessian and TD-DFT gradient, (ASA, deprecated), ECA, 1-Electron XAS/XES, NRVS 
  Peter Pinski           : DLPNO-MP2, DLPNO-MP2 Gradient                 
  Christoph Reimann      : Effective Core Potentials                     
  Marius Retegan         : Local ZFS, SOC                                
  Christoph Riplinger    : Optimizer, TS searches, QM/MM, DLPNO-CCSD(T), (RO)-DLPNO pert. Triples 
  Michael Roemelt        : Original ROCIS implementation                 
  Masaaki Saitow         : Open-shell DLPNO-CCSD energy and density      
  Barbara Sandhoefer     : DKH picture change effects                    
  Kantharuban Sivalingam : CASSCF convergence/infrastructure, NEVPT2 and variants, FIC-MRCI 
  Bernardo de Souza      : ESD, SOC TD-DFT                               
  Georgi L. Stoychev     : AutoAux, RI-MP2 NMR, DLPNO-MP2 response, X2C  
  Van Anh Tran           : RI-MP2 g-tensors                              
  Willem Van den Heuvel  : Paramagnetic NMR                              
  Zikuan Wang            : NOTCH, Electric field optimization            
  Frank Wennmohs         : Technical directorship and infrastructure     
  Hang Xu                : AUTO-CI-Response properties                   
                                                                         
[FACCTs GmbH]                                                            
  Markus Bursch, Miquel Garcia-Rates, Christoph Riplinger, Bernardo de Souza, Georgi L. Stoychev 
                                                                 
  APM, Basis sets (HGBS, AHGBS, def-TZVP (Ac-Lr), def2-XVPD (La-Lu)), CI-OPT, improved COSX, DLPNO-Multilevel,           
  DOCKER, DRACO, updates on ESD, GOAT, IRC, LR-CPCM, MBIS, meta-GGA TD-DFT gradient, ML-optimized integration grids, 
  MM, NACMEs, nearIR, NEB, NEB-TS, NL-DFT gradient (VV10), 2- and 3-layer-ONIOM, interface openCOSMO-RS, QMMM,   
  Crystal-QMMM, SF, symmetry and pop. for TD-DFT, r2SCAN hybrids, SOLVATOR                                   
                                                                         
[Other institutions]                                                     
  V. Asgeirsson          : NEB                                           
  Christoph Bannwarth    : sTDA-DFT, sTD-DFT, PBEh-3c, B97-3c, D3        
  Sebastian Ehlert       : rSCAN, r2SCAN, r2SCAN-3c, D4, dhf basis sets  
  Marvin Friede          : D4 for Fr, Ra, Ac-Lr                          
  Lars Goerigk           : TD-DFT with DH, B97 family of functionals     
  Stefan Grimme          : VdW corrections, initial TS optimization, DFT functionals, gCP, sTDA/sTD-DF 
  Waldemar Hujo          : DFT-NL                                        
  H. Jonsson             : NEB                                           
  Holger Kruse           : gCP                                           
  Marcel Mueller         : wB97X-3c, vDZP basis set                      
  Hagen Neugebauer       : wr2SCAN                                       
  Tobias Risthaus        : range-separated hybrid DFT                    
  Lukas Wittmann         : regularized MP2, r2SCAN double-hybrids, wr2SCAN        
                                                                         
We gratefully acknowledge several colleagues who have allowed us to      
interface, adapt or use parts of their codes:                            
  Ed Valeev, F. Pavosevic, A. Kumar             : LibInt (2-el integral package), F12 methods 
  Garnet Chan, S. Sharma, J. Yang, R. Olivares  : DMRG                   
  Ulf Ekstrom                                   : XCFun DFT Library      
  Mihaly Kallay                                 : mrcc  (arbitrary order and MRCC methods)
  Frank Weinhold                                : gennbo (NPA and NBO analysis)           
  Simon Mueller                                 : openCOSMO-RS                            
  Christopher J. Cramer and Donald G. Truhlar   : smd solvation model                     
  S Lehtola, MJT Oliveira, MAL Marques          : LibXC Library                           
  Liviu Ungur et al                             : ANISO software                          


 Your calculation uses the libint2 library for the computation of 2-el integrals
 For citations please refer to: http://libint.valeyev.net

 Your ORCA version has been built with support for libXC version: 6.2.2
 For citations please refer to: https://libxc.gitlab.io

 This ORCA versions uses:
   CBLAS   interface :  Fast vector & matrix operations
   LAPACKE interface :  Fast linear algebra routines
   SCALAPACK package :  Parallel linear algebra routines
   Shared memory     :  Shared parallel matrices
   BLAS/LAPACK       :  OpenBLAS 0.3.27  USE64BITINT DYNAMIC_ARCH NO_AFFINITY Zen SINGLE_THREADED
        Core in use  :  Zen
   Copyright (c) 2011-2014, The OpenBLAS Project


Your calculation utilizes the geometrical counterpoise correction gCP
Please cite in your paper:
H.Kruse, S. Grimme J.Chem.Phys., 136, (2012), 154101 
   

Your calculation utilizes the atom-pairwise dispersion correction
based on EEQ partial charges (D4)


================================================================================

----- Orbital basis set information -----
Your calculation utilizes the basis: def2-mTZVPP
   Stefan Grimme, Andreas Hansen, Sebastian Ehlert, and Jan-Michael Mewes 
   J. Chem. Phys. 154, 064103 (2021). DOI: 10.1063/5.0040021

----- AuxJ basis set information -----
Your calculation utilizes the auxiliary basis: def2/J
   F. Weigend, Phys. Chem. Chem. Phys. 8, 1057 (2006).

================================================================================
                                        WARNINGS
                       Please study these warnings very carefully!
================================================================================



WARNING: SCAN, rSCAN, or r2SCAN functional requested.
  ===> : libXC variant has now been activated.



================================================================================
                                       INPUT FILE
================================================================================
NAME = sp.inp
|  1> ! r2scan-3c def2/J RI DEFGRID2 scfconv6 printgap
|  2> %output
|  3>     printlevel normal
|  4> end
|  5> * xyz 0 1
|  6> C -2.6233833786 -1.5443964081 -0.1113692022
|  7> C -1.9661172227 -0.1750583148 0.0101066111
|  8> C -0.4537070891 -0.1799784115 -0.0112370959
|  9> C 0.298219694 -1.3388849062 -0.1331612175
| 10> C 1.6821288102 -1.3040790252 -0.1488243519
| 11> C 2.3438998446 -0.0946030568 -0.041435852
| 12> C 1.6182481477 1.0738454398 0.0809835812
| 13> C 0.2295202161 1.0379914962 0.096558578
| 14> O -0.4175918765 2.233113792 0.2203864388
| 15> H -3.7054911142 -1.4323879883 -0.0852966617
| 16> H -2.329078031 -2.1902799601 0.7122700404
| 17> H -2.3541455577 -2.0219427017 -1.050315351
| 18> H -2.303617616 0.282705901 0.9487021135
| 19> H -2.3280013479 0.4509909412 -0.8154342954
| 20> H -0.1980772457 -2.2922651061 -0.218132247
| 21> H 2.2396234519 -2.2235978972 -0.2450233469
| 22> H 3.4227567093 -0.0582376465 -0.0527153475
| 23> H 2.1043312335 2.0328263316 0.1666245145
| 24> H -1.3713044452 2.0957581542 0.2199722033
| 25> *
| 26> 
| 27>                          ****END OF INPUT****
================================================================================

                       ****************************
                       * Single Point Calculation *
                       ****************************

---------------------------------
CARTESIAN COORDINATES (ANGSTROEM)
---------------------------------
  C     -2.623383   -1.544396   -0.111369
  C     -1.966117   -0.175058    0.010107
  C     -0.453707   -0.179978   -0.011237
  C      0.298220   -1.338885   -0.133161
  C      1.682129   -1.304079   -0.148824
  C      2.343900   -0.094603   -0.041436
  C      1.618248    1.073845    0.080984
  C      0.229520    1.037991    0.096559
  O     -0.417592    2.233114    0.220386
  H     -3.705491   -1.432388   -0.085297
  H     -2.329078   -2.190280    0.712270
  H     -2.354146   -2.021943   -1.050315
  H     -2.303618    0.282706    0.948702
  H     -2.328001    0.450991   -0.815434
  H     -0.198077   -2.292265   -0.218132
  H      2.239623   -2.223598   -0.245023
  H      3.422757   -0.058238   -0.052715
  H      2.104331    2.032826    0.166625
  H     -1.371304    2.095758    0.219972

----------------------------
CARTESIAN COORDINATES (A.U.)
----------------------------
  NO LB      ZA    FRAG     MASS         X           Y           Z
   0 C     6.0000    0    12.011   -4.957476   -2.918486   -0.210457
   1 C     6.0000    0    12.011   -3.715423   -0.330812    0.019099
   2 C     6.0000    0    12.011   -0.857382   -0.340110   -0.021235
   3 C     6.0000    0    12.011    0.563554   -2.530126   -0.251638
   4 C     6.0000    0    12.011    3.178763   -2.464352   -0.281237
   5 C     6.0000    0    12.011    4.429329   -0.178774   -0.078302
   6 C     6.0000    0    12.011    3.058046    2.029274    0.153037
   7 C     6.0000    0    12.011    0.433730    1.961520    0.182469
   8 O     8.0000    0    15.999   -0.789134    4.219973    0.416470
   9 H     1.0000    0     1.008   -7.002363   -2.706821   -0.161187
  10 H     1.0000    0     1.008   -4.401320   -4.139029    1.345995
  11 H     1.0000    0     1.008   -4.448690   -3.820918   -1.984808
  12 H     1.0000    0     1.008   -4.353206    0.534237    1.792787
  13 H     1.0000    0     1.008   -4.399285    0.852249   -1.540947
  14 H     1.0000    0     1.008   -0.374312   -4.331753   -0.412210
  15 H     1.0000    0     1.008    4.232275   -4.201991   -0.463027
  16 H     1.0000    0     1.008    6.468073   -0.110053   -0.099618
  17 H     1.0000    0     1.008    3.976610    3.841485    0.314875
  18 H     1.0000    0     1.008   -2.591390    3.960409    0.415687

--------------------------------
INTERNAL COORDINATES (ANGSTROEM)
--------------------------------
 C      0   0   0     0.000000000000     0.00000000     0.00000000
 C      1   0   0     1.523759162949     0.00000000     0.00000000
 C      2   1   0     1.512568733445   115.29328119     0.00000000
 C      3   2   1     1.386839443493   123.09913008     0.05203739
 C      4   3   2     1.384435345198   121.46429019   180.00403790
 C      5   4   3     1.382861276491   119.96561408     0.00000000
 C      6   5   4     1.380879716719   119.70106966     0.00000000
 C      7   6   5     1.389277997308   120.29471326     0.00000000
 O      8   7   6     1.364699491250   116.89827823   180.00389922
 H      1   2   3     1.088201642583   109.54340550   179.97449745
 H      1   2   3     1.087273103834   110.89706839    60.62757768
 H      1   2   3     1.087271510286   110.89994758   299.32160917
 H      2   1   3     1.097458933113   108.08162873   238.15140190
 H      2   1   3     1.097458691393   108.08569160   121.85419256
 H      4   3   2     1.078176485447   119.75388513     0.00000000
 H      5   4   3     1.079615430664   119.72131258   179.99983675
 H      6   5   4     1.079528510321   120.45793201   179.99742833
 H      7   6   5     1.078543224259   121.50449721   180.00215496
 H      9   8   7     0.963553011787   110.14881850   179.98321686

---------------------------
INTERNAL COORDINATES (A.U.)
---------------------------
 C      0   0   0     0.000000000000     0.00000000     0.00000000
 C      1   0   0     2.879487512027     0.00000000     0.00000000
 C      2   1   0     2.858340664944   115.29328119     0.00000000
 C      3   2   1     2.620746739922   123.09913008     0.05203739
 C      4   3   2     2.616203652545   121.46429019   180.00403790
 C      5   4   3     2.613229093773   119.96561408     0.00000000
 C      6   5   4     2.609484488485   119.70106966     0.00000000
 C      7   6   5     2.625354938794   120.29471326     0.00000000
 O      8   7   6     2.578908293564   116.89827823   180.00389922
 H      1   2   3     2.056403082964   109.54340550   179.97449745
 H      1   2   3     2.054648399025   110.89706839    60.62757768
 H      1   2   3     2.054645387656   110.89994758   299.32160917
 H      2   1   3     2.073896826810   108.08162873   238.15140190
 H      2   1   3     2.073896370025   108.08569160   121.85419256
 H      4   3   2     2.037458281529   119.75388513     0.00000000
 H      5   4   3     2.040177493910   119.72131258   179.99983675
 H      6   5   4     2.040013238266   120.45793201   179.99742833
 H      7   6   5     2.038151317446   121.50449721   180.00215496
 H      9   8   7     1.820851307791   110.14881850   179.98321686

---------------------
BASIS SET INFORMATION
---------------------
There are 3 groups of distinct atoms

 Group   1 Type C   : 11s6p1d contracted to 5s3p1d pattern {62111/411/1}
 Group   2 Type O   : 11s6p2d contracted to 5s3p2d pattern {62111/411/11}
 Group   3 Type H   : 4s1p contracted to 2s1p pattern {31/1}

Atom   0C    basis set group =>   1
Atom   1C    basis set group =>   1
Atom   2C    basis set group =>   1
Atom   3C    basis set group =>   1
Atom   4C    basis set group =>   1
Atom   5C    basis set group =>   1
Atom   6C    basis set group =>   1
Atom   7C    basis set group =>   1
Atom   8O    basis set group =>   2
Atom   9H    basis set group =>   3
Atom  10H    basis set group =>   3
Atom  11H    basis set group =>   3
Atom  12H    basis set group =>   3
Atom  13H    basis set group =>   3
Atom  14H    basis set group =>   3
Atom  15H    basis set group =>   3
Atom  16H    basis set group =>   3
Atom  17H    basis set group =>   3
Atom  18H    basis set group =>   3
---------------------------------
AUXILIARY/J BASIS SET INFORMATION
---------------------------------
There are 3 groups of distinct atoms

 Group   1 Type C   : 12s5p4d2f1g contracted to 6s4p3d1f1g pattern {711111/2111/211/2/1}
 Group   2 Type O   : 12s5p4d2f1g contracted to 6s4p3d1f1g pattern {711111/2111/211/2/1}
 Group   3 Type H   : 5s2p1d contracted to 3s1p1d pattern {311/2/1}

Atom   0C    basis set group =>   1
Atom   1C    basis set group =>   1
Atom   2C    basis set group =>   1
Atom   3C    basis set group =>   1
Atom   4C    basis set group =>   1
Atom   5C    basis set group =>   1
Atom   6C    basis set group =>   1
Atom   7C    basis set group =>   1
Atom   8O    basis set group =>   2
Atom   9H    basis set group =>   3
Atom  10H    basis set group =>   3
Atom  11H    basis set group =>   3
Atom  12H    basis set group =>   3
Atom  13H    basis set group =>   3
Atom  14H    basis set group =>   3
Atom  15H    basis set group =>   3
Atom  16H    basis set group =>   3
Atom  17H    basis set group =>   3
Atom  18H    basis set group =>   3

Checking for AutoStart:
The File: sp.gbw exists
Trying to determine its content:
     ... Fine, the file contains calculation information
     ... Fine, the calculation information was read
     ... Fine, the file contains a basis set
     ... Fine, the basis set was read
     ... Fine, the file contains a geometry
     ... Fine, the geometry was read
     ... Fine, the file contains a set of orbitals
     ... Fine, the orbitals can be read
     => possible old guess file was deleted
     => GBW file was renamed to GES file
     => GES file is set as startup file
     => Guess is set to MORead
     ... now leaving AutoStart

------------------------------------------------------------------------------
                             ORCA STARTUP CALCULATIONS
                           -- RI-GTO INTEGRALS CHOSEN --
------------------------------------------------------------------------------
------------------------------------------------------------------------------
                   ___                                                        
                  /   \      - P O W E R E D   B Y -                         
                 /     \                                                     
                 |  |  |   _    _      __       _____    __    __             
                 |  |  |  | |  | |    /  \     |  _  \  |  |  /  |          
                  \  \/   | |  | |   /    \    | | | |  |  | /  /          
                 / \  \   | |__| |  /  /\  \   | |_| |  |  |/  /          
                |  |  |   |  __  | /  /__\  \  |    /   |      \           
                |  |  |   | |  | | |   __   |  |    \   |  |\   \          
                \     /   | |  | | |  |  |  |  | |\  \  |  | \   \       
                 \___/    |_|  |_| |__|  |__|  |_| \__\ |__|  \__/        
                                                                              
                      - O R C A' S   B I G   F R I E N D -                    
                                      &                                       
                       - I N T E G R A L  F E E D E R -                       
                                                                              
 v1 FN, 2020, v2 2021, v3 2022-2024                                           
------------------------------------------------------------------------------


----------------------
SHARK INTEGRAL PACKAGE
----------------------

Number of atoms                             ...     19
Number of basis functions                   ...    226
Number of shells                            ...    112
Maximum angular momentum                    ...      2
Integral batch strategy                     ... SHARK/LIBINT Hybrid
RI-J (if used) integral strategy            ... SPLIT-RIJ (Revised 2003 algorithm where possible)
Printlevel                                  ...      1
Contraction scheme used                     ... SEGMENTED contraction
Prescreening option                         ... SCHWARTZ
   Thresh                                   ... 1.000e-10
   Tcut                                     ... 1.000e-11
   Tpresel                                  ... 1.000e-11 
Coulomb Range Separation                    ... NOT USED
Exchange Range Separation                   ... NOT USED
Multipole approximations                    ... NOT USED
Finite Nucleus Model                        ... NOT USED
CABS basis                                  ... NOT available
Auxiliary Coulomb fitting basis             ... AVAILABLE
   # of basis functions in Aux-J            ...    551
   # of shells in Aux-J                     ...    185
   Maximum angular momentum in Aux-J        ...      4
Auxiliary J/K fitting basis                 ... NOT available
Auxiliary Correlation fitting basis         ... NOT available
Auxiliary 'external' fitting basis          ... NOT available

Checking pre-screening integrals            ... done (  0.0 sec) Dimension = 112
Check shell pair data                       ... done (  0.0 sec)
Shell pair information
Shell pair cut-off parameter TPreSel        ...   1.0e-11
Total number of shell pairs                 ...      6328
Shell pairs after pre-screening             ...      5605
Total number of primitive shell pairs       ...     23019
Primitive shell pairs kept                  ...     14394
          la=0 lb=0:   1849 shell pairs
          la=1 lb=0:   2142 shell pairs
          la=1 lb=1:    644 shell pairs
          la=2 lb=0:    580 shell pairs
          la=2 lb=1:    338 shell pairs
          la=2 lb=2:     52 shell pairs

Calculating one electron integrals          ... done (  0.0 sec)
Calculating RI/J V-Matrix + Cholesky decomp.... done (  0.0 sec)
Calculating Nuclear repulsion               ... done (  0.0 sec) ENN=    428.275933111208 Eh

Diagonalization of the overlap matrix:
Smallest eigenvalue                        ... 2.394e-05
Time for diagonalization                   ...    0.008 sec
Threshold for overlap eigenvalues          ... 1.000e-07
Number of eigenvalues below threshold      ... 0
Time for construction of square roots      ...    0.005 sec
Total time needed                          ...    0.014 sec

-------------------
DFT GRID GENERATION
-------------------

General Integration Accuracy     IntAcc      ... 4.388
Radial Grid Type                 RadialGrid  ... OptM3 with GC (2021)
Angular Grid (max. ang.)         AngularGrid ... 4 (Lebedev-302)
Angular grid pruning method      GridPruning ... 4 (adaptive)
Weight generation scheme         WeightScheme... mBecke (2022)
Basis function cutoff            BFCut       ... 1.0000e-10
Integration weight cutoff        WCut        ... 1.0000e-14
Partially contracted basis set               ... off
Rotationally invariant grid construction     ... off
Angular grids for H and He will be reduced by one unit
Diffuse basis detected: some atoms will have their outermost
                        angular grid increased by 1.

Total number of grid points                  ...    86339
Total number of batches                      ...     1361
Average number of points per batch           ...       63
Average number of grid points per atom       ...     4544
Initializing property integral containers    ... done (  0.0 sec)

SHARK setup successfully completed in   1.1 seconds

Maximum memory used throughout the entire STARTUP-calculation: 39.7 MB
-------------------------------------------------------------------------------
                                 ORCA GUESS
                   Start orbitals & Density for SCF / CASSCF
-------------------------------------------------------------------------------

------------
SCF SETTINGS
------------
Hamiltonian:
 Density Functional     Method          .... DFT(GTOs)
  Functional kind                       .... Exchange
  Functional name                       .... Re-regularized SCAN exchange by Furness et al
  Functional family                     .... MGGA
  Functional refs                              
    [ 0] J. W. Furness, A. D. Kaplan, J. Ning, J. P. Perdew, and J. Sun.,  J. Phys. Chem. Lett. 11, 8208-8215 (2020), doi: 10.1021/acs.jpclett.0c02405
    [ 1] J. W. Furness, A. D. Kaplan, J. Ning, J. P. Perdew, and J. Sun.,  J. Phys. Chem. Lett. 11, 9248-9248 (2020), doi: 10.1021/acs.jpclett.0c03077
  Functional external parameters        .... 6
    Parameter  0 _c1        =  6.670000e-01 : c1 parameter        
    Parameter  1 _c2        =  8.000000e-01 : c2 parameter        
    Parameter  2 _d         =  1.240000e+00 : d parameter         
    Parameter  3 _k1        =  6.500000e-02 : k1 parameter        
    Parameter  4 _eta       =  1.000000e-03 : eta parameter       
    Parameter  5 _dp2       =  3.610000e-01 : dp2 parameter       
  Functional kind                       .... Correlation
  Functional name                       .... Re-regularized SCAN correlation by Furness et al
  Functional family                     .... MGGA
  Functional refs                              
    [ 0] J. W. Furness, A. D. Kaplan, J. Ning, J. P. Perdew, and J. Sun.,  J. Phys. Chem. Lett. 11, 8208-8215 (2020), doi: 10.1021/acs.jpclett.0c02405
    [ 1] J. W. Furness, A. D. Kaplan, J. Ning, J. P. Perdew, and J. Sun.,  J. Phys. Chem. Lett. 11, 9248-9248 (2020), doi: 10.1021/acs.jpclett.0c03077
  Functional external parameters        .... 1
    Parameter  0 _eta       =  1.000000e-03 : Regularization parameter
 Gradients option       PostSCFGGA      .... off
 RI-approximation to the Coulomb term is turned on
   Number of AuxJ basis functions       .... 551


General Settings:
 Integral files         IntName         .... sp
 Hartree-Fock type      HFTyp           .... RHF
 Total Charge           Charge          ....    0
 Multiplicity           Mult            ....    1
 Number of Electrons    NEL             ....   66
 Basis Dimension        Dim             ....  226
 Nuclear Repulsion      ENuc            ....    428.2759331112 Eh

Convergence Acceleration:
 AO-DIIS                CNVDIIS         .... on
   Start iteration      DIISMaxIt       ....    12
   Startup error        DIISStart       ....  0.200000
   # of expansion vecs  DIISMaxEq       ....     5
   Bias factor          DIISBfac        ....   1.050
   Max. coefficient     DIISMaxC        ....  10.000
 MO-DIIS                CNVKDIIS        .... off
 Trust-Rad. Augm. Hess. CNVTRAH         .... auto
   Auto Start mean grad. ratio tolernc. ....  1.125000
   Auto Start start iteration           ....     1
   Auto Start num. interpolation iter.  ....    10
   Max. Number of Micro iterations      ....    24
   Max. Number of Macro iterations      .... Maxiter - #DIIS iter
   Number of Davidson start vectors     ....     2
   Converg. threshold    (grad. norm)   ....   3.330e-04
   Grad. Scal. Fac. for Micro threshold ....   0.100
   Minimum threshold for Micro iter.    ....   1.000e-02
   NR start threshold (gradient norm)   ....   1.000e-04
   Initial trust radius                 ....   0.400
   Minimum AH scaling param. (alpha)    ....   1.000
   Maximum AH scaling param. (alpha)    .... 1000.000
   Quad. conv. algorithm                .... NR
   White noise on init. David. guess    .... on
   Maximum white noise                  ....   0.010
   Pseudo random numbers                .... off
   Inactive MOs                         .... canonical
   Orbital update algorithm             .... Taylor
   Preconditioner                       .... Diag
   Full preconditioner red. dimension   ....   250
   COSX micro iterations for RIJONX calc.... off
 SOSCF                  CNVSOSCF        .... on
   Start iteration      SOSCFMaxIt      ....   150
   Startup grad/error   SOSCFStart      ....  0.003300
   Hessian update       SOSCFHessUp     .... L-BFGS
 Level Shifting         CNVShift        .... on
   Level shift para.    LevelShift      ....    0.2500
   Turn off err/grad.   ShiftErr        ....    0.0010
 Zerner damping         CNVZerner       .... off
 Static damping         CNVDamp         .... on
   Fraction old density DampFac         ....    0.7000
   Max. Damping (<1)    DampMax         ....    0.9800
   Min. Damping (>=0)   DampMin         ....    0.0000
   Turn off err/grad.   DampErr         ....    0.1000

SCF Procedure:
 Maximum # iterations   MaxIter         ....   125
 SCF integral mode      SCFMode         .... Direct
   Integral package                     .... SHARK and LIBINT hybrid scheme
 Reset frequency        DirectResetFreq ....    20
 Integral Threshold     Thresh          ....  1.000e-10 Eh
 Primitive CutOff       TCut            ....  1.000e-11 Eh

Convergence Tolerance:
 Convergence Check Mode ConvCheckMode   .... Total+1el-Energy
 Convergence forced     ConvForced      .... 0
 Energy Change          TolE            ....  1.000e-06 Eh
 1-El. energy change                    ....  1.000e-03 Eh
 Orbital Gradient       TolG            ....  3.330e-04
 Orbital Rotation angle TolX            ....  3.330e-04
 DIIS Error             TolErr          ....  1.000e-06

---------------------
INITIAL GUESS: MOREAD
---------------------
Guess MOs are being read from file: sp.ges
Input Geometry matches current geometry (good)
Atom 0: N(Shells)= 9 and 6 - projection required
Input basis set needs projection
NBasis(read)= 146
NBasis(calc)= 226
Basis set overlap was calculated
Using GuessMode=FMatrix for the initial guess
C*T matrix was formed
Effective Fockian was calculated
Effective Fockian was diagonalized
Initial density was built
                      ------------------
                      INITIAL GUESS DONE (   0.0 sec)
                      ------------------
             **** ENERGY FILE WAS UPDATED (sp.en.tmp) ****
Finished Guess after   0.1 sec
Maximum memory used throughout the entire GUESS-calculation: 16.8 MB

-------------------------------------------------------------------------------------------
                                      ORCA LEAN-SCF
                              memory conserving SCF solver
-------------------------------------------------------------------------------------------

----------------------------------------D-I-I-S--------------------------------------------
Iteration    Energy (Eh)           Delta-E    RMSDP     MaxDP     DIISErr   Damp  Time(sec)
-------------------------------------------------------------------------------------------
               ***  Starting incremental Fock matrix formation  ***
    1    -385.8123295654820026     0.00e+00  1.70e-02  6.04e-01  6.23e-01  0.700   2.0
    2    -385.8685950941969054    -5.63e-02  1.26e-02  4.41e-01  4.38e-01  0.700   1.7
    3    -385.9083392071802905    -3.97e-02  8.88e-03  3.10e-01  3.07e-01  0.700   2.0
    4    -385.9362341245021639    -2.79e-02  6.22e-03  2.16e-01  2.15e-01  0.700   1.7
                               ***Turning on AO-DIIS***
    5    -385.9557990773518554    -1.96e-02  4.36e-03  1.51e-01  1.50e-01  0.700   1.7
    6    -385.9695136663137305    -1.37e-02  3.05e-03  1.06e-01  1.05e-01  0.700   1.6
    7    -385.9791278549276399    -9.61e-03  2.14e-03  7.39e-02  7.36e-02  0.700   1.6
    8    -385.9858643229352424    -6.74e-03  4.98e-03  1.72e-01  5.16e-02  0.000   1.6
                              *** Initializing SOSCF ***
---------------------------------------S-O-S-C-F--------------------------------------
Iteration    Energy (Eh)           Delta-E    RMSDP     MaxDP     MaxGrad    Time(sec)
--------------------------------------------------------------------------------------
    9    -386.0016038512346199    -1.57e-02  1.13e-05  4.26e-04  1.64e-04     1.6
               *** Restarting incremental Fock matrix formation ***
   10    -386.0016039284875546    -7.73e-08  9.56e-06  2.70e-04  2.71e-05     1.9
                  *** Gradient check signals convergence ***

               *****************************************************
               *                     SUCCESS                       *
               *           SCF CONVERGED AFTER  10 CYCLES          *
               *****************************************************

             **** ENERGY FILE WAS UPDATED (sp.en.tmp) ****

----------------
TOTAL SCF ENERGY
----------------

Total Energy       :       -386.00160392848755 Eh          -10503.63764 eV

Components:
Nuclear Repulsion  :        428.27593311120762 Eh           11653.98062 eV
Electronic Energy  :       -814.27753703969518 Eh          -22157.61825 eV
One Electron Energy:      -1370.53887946204077 Eh          -37294.25891 eV
Two Electron Energy:        556.26134242234559 Eh           15136.64066 eV

Virial components:
Potential Energy   :       -770.42667237406499 Eh          -20964.37556 eV
Kinetic Energy     :        384.42506844557738 Eh           10460.73793 eV
Virial Ratio       :          2.00410102153141

DFT components:
N(Alpha)           :       33.000003213641 electrons
N(Beta)            :       33.000003213641 electrons
N(Total)           :       66.000006427282 electrons
E(X)               :      -53.527949296521 Eh       
E(C)               :       -2.121768592943 Eh       
E(XC)              :      -55.649717889465 Eh       

---------------
SCF CONVERGENCE
---------------

  Last Energy change         ...    7.7253e-08  Tolerance :   1.0000e-06
  Last MAX-Density change    ...    2.6970e-04  Tolerance :   1.0000e-05
  Last RMS-Density change    ...    9.5590e-06  Tolerance :   1.0000e-06
  Last DIIS Error            ...    1.6435e-04  Tolerance :   1.0000e-06
  Last Orbital Gradient      ...    2.7129e-05  Tolerance :   3.3300e-04
  Last Orbital Rotation      ...    9.5952e-05  Tolerance :   3.3300e-04


----------------
ORBITAL ENERGIES
----------------

  NO   OCC          E(Eh)            E(eV) 
   0   2.0000     -18.983062      -516.5554 
   1   2.0000     -10.091069      -274.5919 
   2   2.0000     -10.050915      -273.4993 
   3   2.0000     -10.041059      -273.2311 
   4   2.0000     -10.031627      -272.9745 
   5   2.0000     -10.030495      -272.9437 
   6   2.0000     -10.029512      -272.9169 
   7   2.0000     -10.025140      -272.7979 
   8   2.0000     -10.022869      -272.7361 
   9   2.0000      -1.027505       -27.9598 
  10   2.0000      -0.822881       -22.3917 
  11   2.0000      -0.763936       -20.7878 
  12   2.0000      -0.707466       -19.2511 
  13   2.0000      -0.695059       -18.9135 
  14   2.0000      -0.621715       -16.9177 
  15   2.0000      -0.573320       -15.6008 
  16   2.0000      -0.555646       -15.1199 
  17   2.0000      -0.511116       -13.9082 
  18   2.0000      -0.458674       -12.4812 
  19   2.0000      -0.437911       -11.9162 
  20   2.0000      -0.437699       -11.9104 
  21   2.0000      -0.404234       -10.9998 
  22   2.0000      -0.399397       -10.8681 
  23   2.0000      -0.377333       -10.2678 
  24   2.0000      -0.357056        -9.7160 
  25   2.0000      -0.352404        -9.5894 
  26   2.0000      -0.347338        -9.4515 
  27   2.0000      -0.332584        -9.0501 
  28   2.0000      -0.313996        -8.5443 
  29   2.0000      -0.309564        -8.4237 
  30   2.0000      -0.299846        -8.1592 
  31   2.0000      -0.229521        -6.2456 
  32   2.0000      -0.200663        -5.4603 
  33   0.0000      -0.025268        -0.6876 
  34   0.0000      -0.013407        -0.3648 
  35   0.0000       0.050304         1.3688 
  36   0.0000       0.086010         2.3405 
  37   0.0000       0.101074         2.7504 
  38   0.0000       0.120169         3.2700 
  39   0.0000       0.121617         3.3094 
  40   0.0000       0.128475         3.4960 
  41   0.0000       0.145665         3.9637 
  42   0.0000       0.156041         4.2461 
  43   0.0000       0.164265         4.4699 
*Only the first 10 virtual orbitals were printed.

                    ********************************
                    * MULLIKEN POPULATION ANALYSIS *
                    ********************************

-----------------------
MULLIKEN ATOMIC CHARGES
-----------------------
   0 C :   -0.523090
   1 C :   -0.358924
   2 C :   -0.009066
   3 C :   -0.156076
   4 C :   -0.209581
   5 C :   -0.120913
   6 C :   -0.289166
   7 C :    0.372524
   8 O :   -0.421611
   9 H :    0.150934
  10 H :    0.162770
  11 H :    0.162674
  12 H :    0.160701
  13 H :    0.160810
  14 H :    0.143052
  15 H :    0.143823
  16 H :    0.146544
  17 H :    0.156406
  18 H :    0.328189
Sum of atomic charges:   -0.0000000

--------------------------------
MULLIKEN REDUCED ORBITAL CHARGES
--------------------------------
  0 C s       :     3.382948  s :     3.382948
      pz      :     1.081173  p :     3.113016
      px      :     1.092764
      py      :     0.939079
      dz2     :     0.005240  d :     0.027126
      dxz     :     0.001482
      dyz     :     0.008180
      dx2y2   :     0.007612
      dxy     :     0.004613

  1 C s       :     3.293815  s :     3.293815
      pz      :     1.066890  p :     3.027291
      px      :     0.931287
      py      :     1.029114
      dz2     :     0.005615  d :     0.037818
      dxz     :     0.006286
      dyz     :     0.008494
      dx2y2   :     0.009942
      dxy     :     0.007481

  2 C s       :     3.175025  s :     3.175025
      pz      :     1.035491  p :     2.788733
      px      :     0.800322
      py      :     0.952921
      dz2     :     0.003720  d :     0.045307
      dxz     :     0.006230
      dyz     :     0.006481
      dx2y2   :     0.013895
      dxy     :     0.014981

  3 C s       :     3.174196  s :     3.174196
      pz      :     1.012702  p :     2.943703
      px      :     0.939914
      py      :     0.991087
      dz2     :     0.003354  d :     0.038177
      dxz     :     0.006638
      dyz     :     0.003567
      dx2y2   :     0.011507
      dxy     :     0.013110

  4 C s       :     3.195195  s :     3.195195
      pz      :     1.020291  p :     2.976793
      px      :     0.957742
      py      :     0.998760
      dz2     :     0.003300  d :     0.037593
      dxz     :     0.005689
      dyz     :     0.003617
      dx2y2   :     0.012092
      dxy     :     0.012895

  5 C s       :     3.171369  s :     3.171369
      pz      :     0.988153  p :     2.910999
      px      :     1.021738
      py      :     0.901108
      dz2     :     0.003413  d :     0.038545
      dxz     :     0.002436
      dyz     :     0.007795
      dx2y2   :     0.013287
      dxy     :     0.011613

  6 C s       :     3.217761  s :     3.217761
      pz      :     1.041920  p :     3.035699
      px      :     0.961828
      py      :     1.031951
      dz2     :     0.003434  d :     0.035706
      dxz     :     0.005648
      dyz     :     0.003476
      dx2y2   :     0.013328
      dxy     :     0.009821

  7 C s       :     3.119214  s :     3.119214
      pz      :     0.946269  p :     2.435663
      px      :     0.764566
      py      :     0.724829
      dz2     :     0.005108  d :     0.072598
      dxz     :     0.009412
      dyz     :     0.013954
      dx2y2   :     0.022172
      dxy     :     0.021952

  8 O s       :     3.755037  s :     3.755037
      pz      :     1.840971  p :     4.628053
      px      :     1.301159
      py      :     1.485923
      dz2     :     0.004930  d :     0.038521
      dxz     :     0.005367
      dyz     :     0.006647
      dx2y2   :     0.013438
      dxy     :     0.008140

  9 H s       :     0.830848  s :     0.830848
      pz      :     0.003737  p :     0.018219
      px      :     0.010881
      py      :     0.003600

 10 H s       :     0.819003  s :     0.819003
      pz      :     0.007761  p :     0.018227
      px      :     0.004196
      py      :     0.006270

 11 H s       :     0.819098  s :     0.819098
      pz      :     0.009061  p :     0.018228
      px      :     0.004109
      py      :     0.005058

 12 H s       :     0.821516  s :     0.821516
      pz      :     0.008884  p :     0.017783
      px      :     0.004231
      py      :     0.004669

 13 H s       :     0.821408  s :     0.821408
      pz      :     0.007697  p :     0.017782
      px      :     0.004336
      py      :     0.005749

 14 H s       :     0.836774  s :     0.836774
      pz      :     0.004413  p :     0.020174
      px      :     0.005398
      py      :     0.010363

 15 H s       :     0.836512  s :     0.836512
      pz      :     0.004555  p :     0.019665
      px      :     0.005507
      py      :     0.009604

 16 H s       :     0.833918  s :     0.833918
      pz      :     0.004195  p :     0.019538
      px      :     0.012173
      py      :     0.003170

 17 H s       :     0.823900  s :     0.823900
      pz      :     0.004417  p :     0.019695
      px      :     0.004895
      py      :     0.010383

 18 H s       :     0.627925  s :     0.627925
      pz      :     0.012394  p :     0.043885
      px      :     0.022777
      py      :     0.008714


------------------------
MULLIKEN OVERLAP CHARGES
------------------------
B(  0-C ,  1-C ) :   0.2649 B(  0-C ,  2-C ) :  -0.0779 B(  0-C ,  9-H ) :   0.7922 
B(  0-C , 10-H ) :   0.8721 B(  0-C , 11-H ) :   0.8715 B(  1-C ,  2-C ) :   0.2306 
B(  1-C ,  3-C ) :  -0.1678 B(  1-C ,  4-C ) :   0.0611 B(  1-C ,  7-C ) :  -0.3589 
B(  1-C ,  9-H ) :  -0.0772 B(  1-C , 10-H ) :  -0.0907 B(  1-C , 11-H ) :  -0.0901 
B(  1-C , 12-H ) :   0.8725 B(  1-C , 13-H ) :   0.8716 B(  2-C ,  3-C ) :   0.8042 
B(  2-C ,  4-C ) :  -0.1980 B(  2-C ,  6-C ) :  -0.2081 B(  2-C ,  7-C ) :   0.8199 
B(  2-C ,  8-O ) :  -0.1744 B(  2-C , 12-H ) :  -0.1212 B(  2-C , 13-H ) :  -0.1207 
B(  3-C ,  4-C ) :   0.9727 B(  3-C ,  5-C ) :  -0.1665 B(  3-C ,  6-C ) :  -0.1968 
B(  3-C ,  7-C ) :   0.1557 B(  3-C , 14-H ) :   0.8063 B(  4-C ,  5-C ) :   0.9489 
B(  4-C ,  6-C ) :  -0.0786 B(  4-C ,  7-C ) :  -0.1483 B(  4-C , 14-H ) :  -0.0673 
B(  4-C , 15-H ) :   0.7863 B(  5-C ,  6-C ) :   0.8128 B(  5-C ,  7-C ) :  -0.1184 
B(  5-C , 15-H ) :  -0.0557 B(  5-C , 16-H ) :   0.7924 B(  5-C , 17-H ) :  -0.0510 
B(  6-C ,  7-C ) :   0.8368 B(  6-C , 16-H ) :  -0.0522 B(  6-C , 17-H ) :   0.7753 
B(  7-C ,  8-O ) :   0.5044 B(  7-C , 18-H ) :  -0.0745 B(  8-O , 18-H ) :   0.5971 
B( 10-H , 11-H ) :  -0.0566 B( 12-H , 13-H ) :  -0.0822 


                     *******************************
                     * LOEWDIN POPULATION ANALYSIS *
                     *******************************

----------------------
LOEWDIN ATOMIC CHARGES
----------------------
   0 C :   -0.413468
   1 C :   -0.289415
   2 C :   -0.094296
   3 C :   -0.156474
   4 C :   -0.188717
   5 C :   -0.159487
   6 C :   -0.141261
   7 C :    0.190018
   8 O :   -0.501254
   9 H :    0.154242
  10 H :    0.156230
  11 H :    0.156211
  12 H :    0.162235
  13 H :    0.162247
  14 H :    0.170797
  15 H :    0.165602
  16 H :    0.167352
  17 H :    0.179479
  18 H :    0.279958

-------------------------------
LOEWDIN REDUCED ORBITAL CHARGES
-------------------------------
  0 C s       :     2.968261  s :     2.968261
      pz      :     1.158129  p :     3.382181
      px      :     1.139016
      py      :     1.085036
      dz2     :     0.012781  d :     0.063026
      dxz     :     0.003447
      dyz     :     0.018930
      dx2y2   :     0.017700
      dxy     :     0.010169

  1 C s       :     2.922128  s :     2.922128
      pz      :     1.129816  p :     3.286155
      px      :     1.054182
      py      :     1.102157
      dz2     :     0.013093  d :     0.081132
      dxz     :     0.012885
      dyz     :     0.018729
      dx2y2   :     0.020952
      dxy     :     0.015473

  2 C s       :     2.857195  s :     2.857195
      pz      :     1.019608  p :     3.143257
      px      :     1.054177
      py      :     1.069472
      dz2     :     0.006805  d :     0.093844
      dxz     :     0.010096
      dyz     :     0.011522
      dx2y2   :     0.032187
      dxy     :     0.033233

  3 C s       :     2.891510  s :     2.891510
      pz      :     0.995796  p :     3.181471
      px      :     1.095927
      py      :     1.089748
      dz2     :     0.005711  d :     0.083494
      dxz     :     0.012247
      dyz     :     0.006235
      dx2y2   :     0.027778
      dxy     :     0.031522

  4 C s       :     2.899331  s :     2.899331
      pz      :     1.014409  p :     3.207003
      px      :     1.093718
      py      :     1.098876
      dz2     :     0.005631  d :     0.082383
      dxz     :     0.010396
      dyz     :     0.006081
      dx2y2   :     0.028882
      dxy     :     0.031393

  5 C s       :     2.900756  s :     2.900756
      pz      :     0.976804  p :     3.174866
      px      :     1.100254
      py      :     1.097808
      dz2     :     0.005797  d :     0.083865
      dxz     :     0.003658
      dyz     :     0.014627
      dx2y2   :     0.032323
      dxy     :     0.027460

  6 C s       :     2.890595  s :     2.890595
      pz      :     1.018146  p :     3.172820
      px      :     1.053434
      py      :     1.101240
      dz2     :     0.005706  d :     0.077846
      dxz     :     0.010101
      dyz     :     0.005736
      dx2y2   :     0.030748
      dxy     :     0.025555

  7 C s       :     2.780985  s :     2.780985
      pz      :     0.912758  p :     2.870990
      px      :     1.025659
      py      :     0.932573
      dz2     :     0.011161  d :     0.158007
      dxz     :     0.017474
      dyz     :     0.026776
      dx2y2   :     0.052956
      dxy     :     0.049640

  8 O s       :     3.482464  s :     3.482464
      pz      :     1.806532  p :     4.747695
      px      :     1.376837
      py      :     1.564326
      dz2     :     0.032559  d :     0.271094
      dxz     :     0.025400
      dyz     :     0.049266
      dx2y2   :     0.097405
      dxy     :     0.066464

  9 H s       :     0.802361  s :     0.802361
      pz      :     0.008133  p :     0.043397
      px      :     0.027069
      py      :     0.008195

 10 H s       :     0.800065  s :     0.800065
      pz      :     0.019343  p :     0.043706
      px      :     0.009537
      py      :     0.014826

 11 H s       :     0.800083  s :     0.800083
      pz      :     0.022740  p :     0.043706
      px      :     0.009300
      py      :     0.011666

 12 H s       :     0.794503  s :     0.794503
      pz      :     0.022268  p :     0.043261
      px      :     0.009663
      py      :     0.011330

 13 H s       :     0.794491  s :     0.794491
      pz      :     0.019229  p :     0.043262
      px      :     0.009936
      py      :     0.014097

 14 H s       :     0.783567  s :     0.783567
      pz      :     0.009637  p :     0.045636
      px      :     0.012098
      py      :     0.023902

 15 H s       :     0.789546  s :     0.789546
      pz      :     0.009914  p :     0.044852
      px      :     0.012610
      py      :     0.022329

 16 H s       :     0.788228  s :     0.788228
      pz      :     0.008982  p :     0.044420
      px      :     0.028390
      py      :     0.007048

 17 H s       :     0.775406  s :     0.775406
      pz      :     0.009838  p :     0.045115
      px      :     0.010772
      py      :     0.024505

 18 H s       :     0.596066  s :     0.596066
      pz      :     0.031578  p :     0.123976
      px      :     0.068266
      py      :     0.024132


---------------------------------
LOEWDIN BOND ORDERS (THRESH 0.050000)
---------------------------------
B(  0-C ,  1-C ) :   1.1342 B(  0-C ,  2-C ) :   0.0651 B(  0-C ,  9-H ) :   0.9257 
B(  0-C , 10-H ) :   0.9243 B(  0-C , 11-H ) :   0.9243 B(  1-C ,  2-C ) :   1.0608 
B(  1-C ,  3-C ) :   0.0761 B(  1-C ,  7-C ) :   0.0811 B(  1-C , 12-H ) :   0.8752 
B(  1-C , 13-H ) :   0.8753 B(  2-C ,  3-C ) :   1.4489 B(  2-C ,  4-C ) :   0.0924 
B(  2-C ,  5-C ) :   0.1186 B(  2-C ,  6-C ) :   0.0876 B(  2-C ,  7-C ) :   1.2651 
B(  2-C ,  8-O ) :   0.2067 B(  2-C , 14-H ) :   0.0519 B(  3-C ,  4-C ) :   1.4967 
B(  3-C ,  5-C ) :   0.0892 B(  3-C ,  6-C ) :   0.1227 B(  3-C ,  7-C ) :   0.0917 
B(  3-C , 14-H ) :   0.8589 B(  3-C , 15-H ) :   0.0552 B(  4-C ,  5-C ) :   1.4996 
B(  4-C ,  6-C ) :   0.0913 B(  4-C ,  7-C ) :   0.1090 B(  4-C , 14-H ) :   0.0539 
B(  4-C , 15-H ) :   0.8744 B(  4-C , 16-H ) :   0.0542 B(  5-C ,  6-C ) :   1.5117 
B(  5-C ,  7-C ) :   0.0941 B(  5-C , 15-H ) :   0.0541 B(  5-C , 16-H ) :   0.8733 
B(  5-C , 17-H ) :   0.0530 B(  6-C ,  7-C ) :   1.3268 B(  6-C ,  8-O ) :   0.2313 
B(  6-C , 16-H ) :   0.0554 B(  6-C , 17-H ) :   0.8599 B(  7-C ,  8-O ) :   1.4819 
B(  7-C , 17-H ) :   0.0555 B(  8-O , 18-H ) :   0.9433 

------------------------------------------
LOEWDIN REDUCED ORBITAL POPULATIONS PER MO
-------------------------------------------
THRESHOLD FOR PRINTING IS 0.1%%
                      0         1         2         3         4         5   
                 -18.98306 -10.09107 -10.05092 -10.04106 -10.03163 -10.03050
                   2.00000   2.00000   2.00000   2.00000   2.00000   2.00000
                  --------  --------  --------  --------  --------  --------
 0 C  s               0.0       0.0       0.0       0.0      99.7       0.0
 1 C  s               0.0       0.0      99.7       0.0       0.0       0.0
 2 C  s               0.0       0.0       0.0      99.5       0.0       0.1
 3 C  s               0.0       0.0       0.0       0.1       0.0      99.4
 4 C  s               0.0       0.0       0.0       0.0       0.0       0.1
 4 C  px              0.0       0.0       0.0       0.0       0.0       0.1
 6 C  px              0.0       0.1       0.0       0.0       0.0       0.0
 7 C  s               0.0      99.2       0.0       0.0       0.0       0.0
 8 O  s              99.9       0.0       0.0       0.0       0.0       0.0
 8 O  py              0.0       0.1       0.0       0.0       0.0       0.0
 8 O  dxy             0.0       0.2       0.0       0.0       0.0       0.0

                      6         7         8         9        10        11   
                 -10.02951 -10.02514 -10.02287  -1.02750  -0.82288  -0.76394
                   2.00000   2.00000   2.00000   2.00000   2.00000   2.00000
                  --------  --------  --------  --------  --------  --------
 0 C  s               0.0       0.0       0.0       0.0       1.3      13.6
 0 C  px              0.0       0.0       0.0       0.0       0.3       0.6
 0 C  py              0.0       0.0       0.0       0.0       0.4       1.9
 1 C  s               0.0       0.0       0.0       0.2       4.4      22.2
 1 C  px              0.0       0.0       0.0       0.2       1.2       0.0
 1 C  py              0.0       0.0       0.0       0.2       0.1       0.8
 2 C  s               0.0       0.0       0.0       0.9      14.9       6.2
 2 C  px              0.0       0.0       0.0       0.1       1.0       6.5
 2 C  py              0.0       0.0       0.0       1.6       0.2       0.1
 2 C  dz2             0.0       0.0       0.0       0.0       0.2       0.1
 3 C  s               0.0       0.0       0.1       0.1      13.0       0.1
 3 C  px              0.0       0.0       0.1       0.0       0.2       4.0
 3 C  py              0.0       0.0       0.0       0.1       2.3       0.2
 3 C  dz2             0.0       0.0       0.0       0.0       0.1       0.0
 4 C  s               0.1       0.0      99.4       0.0      10.6       3.4
 4 C  px              0.0       0.0       0.0       0.0       0.9       0.6
 4 C  py              0.1       0.0       0.0       0.0       1.6       1.1
 4 C  dz2             0.0       0.0       0.0       0.0       0.1       0.0
 5 C  s              99.1       0.3       0.2       0.1       9.8       8.2
 5 C  px              0.0       0.0       0.0       0.1       2.4       0.5
 5 C  py              0.0       0.1       0.1       0.0       0.0       0.0
 5 C  dz2             0.0       0.0       0.0       0.0       0.1       0.1
 6 C  s               0.3      99.3       0.0       0.8       8.8       6.0
 6 C  px              0.0       0.0       0.0       1.5       0.3       0.3
 6 C  py              0.1       0.0       0.0       0.1       2.2       0.8
 7 C  s               0.0       0.0       0.0       9.8       6.9       0.2
 7 C  px              0.0       0.1       0.0       2.6       1.0       4.5
 7 C  py              0.0       0.0       0.0       6.5       5.2       0.7
 7 C  dz2             0.0       0.0       0.0       0.3       0.1       0.0
 7 C  dx2y2           0.0       0.0       0.0       0.1       0.0       0.0
 7 C  dxy             0.0       0.0       0.0       0.5       0.1       0.0
 8 O  s               0.0       0.0       0.0      58.5       1.9       0.1
 8 O  px              0.0       0.0       0.0       0.2       0.6       0.3
 8 O  py              0.0       0.0       0.0       2.7       0.6       0.0
 8 O  dz2             0.0       0.0       0.0       0.2       0.2       0.0
 8 O  dx2y2           0.0       0.0       0.0       0.0       0.2       0.1
 8 O  dxy             0.0       0.0       0.0       0.1       0.2       0.2
 9 H  s               0.0       0.0       0.0       0.0       0.1       2.0
 9 H  px              0.0       0.0       0.0       0.0       0.0       0.2
10 H  s               0.0       0.0       0.0       0.0       0.1       1.9
11 H  s               0.0       0.0       0.0       0.0       0.1       1.9
11 H  pz              0.0       0.0       0.0       0.0       0.0       0.1
12 H  s               0.0       0.0       0.0       0.0       0.5       3.3
12 H  pz              0.0       0.0       0.0       0.0       0.0       0.2
13 H  s               0.0       0.0       0.0       0.0       0.5       3.3
13 H  pz              0.0       0.0       0.0       0.0       0.0       0.2
13 H  py              0.0       0.0       0.0       0.0       0.0       0.1
14 H  s               0.0       0.0       0.0       0.0       1.3       0.1
15 H  s               0.0       0.0       0.0       0.0       1.0       0.4
16 H  s               0.0       0.0       0.0       0.0       0.9       1.0
17 H  s               0.0       0.0       0.0       0.1       0.8       0.7
18 H  s               0.0       0.0       0.0       9.8       0.5       0.1
18 H  px              0.0       0.0       0.0       2.2       0.1       0.0

                     12        13        14        15        16        17   
                  -0.70747  -0.69506  -0.62172  -0.57332  -0.55565  -0.51112
                   2.00000   2.00000   2.00000   2.00000   2.00000   2.00000
                  --------  --------  --------  --------  --------  --------
 0 C  s               0.6      15.1      12.6       0.0       4.4       0.0
 0 C  px              0.0       0.1       0.4       0.2       1.1       1.3
 0 C  py              0.1       0.2       3.1       0.4       4.2       0.6
 1 C  s               0.7       2.8       6.7       0.9       6.2       0.4
 1 C  px              0.1       5.5       1.6       0.6       0.5       4.6
 1 C  py              0.0       1.9       7.5       0.8       1.2       2.2
 1 C  dx2y2           0.0       0.1       0.1       0.0       0.0       0.1
 2 C  s               0.0       9.5       1.4       0.9       2.5       1.5
 2 C  px              0.3       2.5       5.4       0.4       3.7       2.0
 2 C  py              6.7       0.2       2.0       7.4       4.9       3.7
 2 C  dxy             0.2       0.0       0.0       0.1       0.1       0.0
 3 C  s              14.3       2.5       4.1       2.6       3.8       0.3
 3 C  px              2.1       2.1       0.1       7.8       0.1       9.0
 3 C  py              0.6       1.4       0.8       0.5       5.3       0.1
 3 C  dx2y2           0.1       0.1       0.0       0.1       0.1       0.0
 4 C  s              13.7       3.4       0.0       8.9       0.1       0.9
 4 C  px              2.1       3.6       4.1       2.1       2.9       3.3
 4 C  py              0.7       1.2       1.5       1.2       3.1       0.4
 4 C  dx2y2           0.1       0.1       0.1       0.0       0.1       0.0
 5 C  s               0.0      12.3       5.5       0.4       1.4       5.0
 5 C  pz              0.1       0.0       0.0       0.1       0.0       0.0
 5 C  px              0.0       0.2       0.7       0.0       0.1      10.1
 5 C  py              9.2       0.1       0.0      11.9       1.7       0.1
 5 C  dxy             0.3       0.0       0.0       0.2       0.0       0.0
 6 C  s              13.6       1.7       0.2       4.1       4.4       1.3
 6 C  px              1.3       4.4       3.3       5.1       0.1       3.6
 6 C  py              0.4       1.0       2.0       0.4       5.2       0.2
 6 C  dxy             0.0       0.1       0.0       0.0       0.0       0.2
 7 C  s               8.4       4.1       1.2       4.2       0.8       0.1
 7 C  px              4.2       1.1       2.8       1.1       5.0       4.0
 7 C  py              0.1       2.9       1.8       1.5       8.9       5.9
 7 C  dx2y2           0.1       0.1       0.0       0.1       0.1       0.4
 7 C  dxy             0.0       0.1       0.0       0.0       0.0       0.0
 8 O  s               1.7       0.9       0.0       0.8       0.2       0.2
 8 O  px              4.0       0.7       5.2      12.7       4.0      16.5
 8 O  py              1.7       1.1       0.2       6.6       0.3       2.9
 8 O  dz2             0.2       0.1       0.0       0.0       0.0       0.1
 8 O  dx2y2           0.1       0.5       0.0       0.6       0.6       0.3
 8 O  dxy             0.7       0.1       0.5       0.1       0.0       0.1
 9 H  s               0.1       3.3       3.9       0.0       2.2       0.4
 9 H  px              0.0       0.3       0.3       0.0       0.1       0.0
10 H  s               0.1       2.8       4.1       0.1       2.1       0.1
10 H  pz              0.0       0.1       0.2       0.0       0.1       0.0
11 H  s               0.1       2.8       4.1       0.1       2.1       0.1
11 H  pz              0.0       0.2       0.3       0.0       0.1       0.0
12 H  s               0.2       0.6       2.7       0.6       2.8       1.2
12 H  pz              0.0       0.0       0.2       0.0       0.2       0.1
13 H  s               0.2       0.6       2.7       0.6       2.8       1.2
13 H  pz              0.0       0.0       0.1       0.0       0.1       0.1
14 H  s               2.6       0.3       1.8       1.3       3.3       1.3
14 H  py              0.2       0.0       0.1       0.1       0.2       0.1
15 H  s               2.4       0.7       0.0       4.8       0.2       0.1
15 H  py              0.1       0.1       0.0       0.3       0.0       0.0
16 H  s               0.0       2.5       2.0       0.2       0.6       7.7
16 H  px              0.0       0.2       0.2       0.0       0.0       0.4
17 H  s               2.5       0.3       0.1       1.5       4.2       0.0
17 H  py              0.2       0.0       0.0       0.1       0.2       0.0
18 H  s               1.6       0.5       1.3       4.3       0.6       5.0
18 H  px              0.2       0.1       0.1       0.3       0.0       0.1
18 H  py              0.0       0.0       0.0       0.1       0.0       0.1

                     18        19        20        21        22        23   
                  -0.45867  -0.43791  -0.43770  -0.40423  -0.39940  -0.37733
                   2.00000   2.00000   2.00000   2.00000   2.00000   2.00000
                  --------  --------  --------  --------  --------  --------
 0 C  s               0.2       0.0       0.0       0.0       0.1       0.0
 0 C  pz              0.0       0.0      21.7       0.1       0.0      10.4
 0 C  px              0.0       5.0       0.0      15.7       0.6       0.0
 0 C  py              3.6       0.3       0.2       4.2       0.4       0.1
 1 C  s               0.7       0.0       0.0       0.1       0.0       0.0
 1 C  pz              0.0       0.1      35.8       0.0       0.0       0.2
 1 C  px              2.7       6.3       0.0       7.0       3.0       0.0
 1 C  py              0.6       3.7       0.4       0.7       0.1       0.0
 2 C  s               0.2       1.6       0.0       0.8       1.5       0.0
 2 C  pz              0.1       0.0       7.1       0.0       0.0       6.6
 2 C  px              1.4       1.9       0.0       8.1       0.8       0.0
 2 C  py              7.4       2.5       0.1       1.0       0.1       0.1
 2 C  dx2y2           0.1       0.2       0.0       0.1       0.1       0.0
 2 C  dxy             0.1       0.0       0.0       0.1       0.2       0.0
 3 C  s               0.2       2.4       0.0       0.4       0.4       0.0
 3 C  pz              0.1       0.0       1.3       0.1       0.1       2.4
 3 C  px              0.2       2.3       0.0       0.8       8.3       0.0
 3 C  py             10.2       2.5       0.0       5.2      12.3       0.0
 3 C  dx2y2           0.0       0.0       0.0       0.1       0.3       0.0
 3 C  dxy             0.0       0.2       0.0       0.2       0.1       0.0
 4 C  s               0.8       1.6       0.0       0.1       1.4       0.0
 4 C  pz              0.2       0.0       0.2       0.0       0.0       2.2
 4 C  px              0.4      12.4       0.0       1.2       4.0       0.0
 4 C  py             17.3       1.0       0.0       1.4       0.3       0.0
 4 C  dx2y2           0.0       0.1       0.0       0.1       0.0       0.0
 4 C  dxy             0.0       0.1       0.0       0.0       0.1       0.0
 5 C  s               0.5       0.9       0.0       0.3       0.7       0.0
 5 C  pz              0.0       0.1       0.1       0.0       0.0       3.2
 5 C  px              4.6       0.2       0.0      15.0       3.2       0.0
 5 C  py              2.2       7.4       0.0       0.8       0.9       0.0
 5 C  dx2y2           0.0       0.1       0.0       0.0       0.2       0.0
 5 C  dxy             0.1       0.0       0.0       0.0       0.1       0.0
 6 C  s               1.8       0.6       0.0       0.2       0.3       0.0
 6 C  pz              0.0       0.1       0.4       0.1       0.0       8.2
 6 C  px              3.3       4.8       0.0       0.1      14.6       0.0
 6 C  py              4.2       5.0       0.0       8.7       5.9       0.1
 6 C  dxz             0.0       0.0       0.0       0.0       0.0       0.1
 6 C  dx2y2           0.0       0.0       0.0       0.1       0.5       0.0
 6 C  dxy             0.1       0.2       0.0       0.1       0.0       0.0
 7 C  s               0.5       0.2       0.0       0.1       2.5       0.0
 7 C  pz              0.0       0.0       2.5       0.0       0.0      24.2
 7 C  px              2.6       7.6       0.0       0.1       6.2       0.0
 7 C  py              1.6       0.3       0.0       0.5       0.7       0.2
 7 C  dx2y2           0.2       0.1       0.0       0.2       0.2       0.0
 7 C  dxy             0.2       0.2       0.0       0.1       0.0       0.0
 8 O  s               2.0       0.6       0.0       0.2       0.1       0.0
 8 O  pz              0.0       0.1       1.6       0.0       0.0      32.8
 8 O  px              6.9       0.7       0.0       0.1       1.7       0.0
 8 O  py              2.8      10.3       0.0       2.2       0.3       0.3
 8 O  dz2             0.2       0.0       0.0       0.0       0.0       0.0
 8 O  dxz             0.0       0.0       0.0       0.0       0.0       0.1
 8 O  dyz             0.0       0.0       0.2       0.0       0.0       0.9
 8 O  dx2y2           0.0       0.5       0.0       0.1       0.0       0.0
 8 O  dxy             0.0       0.2       0.0       0.0       0.4       0.0
 9 H  s               0.1       1.9       0.0       7.1       0.2       0.0
 9 H  pz              0.0       0.0       0.1       0.0       0.0       0.1
 9 H  px              0.0       0.1       0.0       0.2       0.0       0.0
10 H  s               0.7       0.1       4.8       1.8       0.0       3.3
10 H  py              0.0       0.0       0.1       0.0       0.0       0.1
11 H  s               0.7       0.2       4.7       1.8       0.0       3.3
11 H  py              0.0       0.0       0.1       0.0       0.0       0.1
12 H  s               0.3       1.2       8.6       0.4       0.3       0.0
12 H  py              0.0       0.0       0.2       0.0       0.0       0.0
13 H  s               0.3       1.0       8.8       0.4       0.3       0.0
13 H  py              0.0       0.0       0.2       0.0       0.0       0.0
14 H  s               2.4       1.8       0.0       1.0      12.1       0.0
14 H  px              0.1       0.1       0.0       0.0       0.0       0.0
14 H  py              0.0       0.0       0.0       0.0       0.2       0.0
15 H  s               7.0       5.7       0.0       0.8       0.1       0.0
15 H  px              0.2       0.0       0.0       0.0       0.0       0.0
15 H  py              0.1       0.3       0.0       0.0       0.0       0.0
16 H  s               0.9       0.9       0.0       6.1       3.1       0.0
16 H  px              0.0       0.0       0.0       0.1       0.1       0.0
17 H  s               5.0       1.3       0.0       2.7       9.1       0.0
17 H  px              0.0       0.1       0.0       0.0       0.0       0.0
17 H  py              0.2       0.0       0.0       0.0       0.2       0.0
18 H  s               1.3       0.3       0.0       0.0       0.7       0.0
18 H  pz              0.0       0.0       0.0       0.0       0.0       0.5
18 H  py              0.0       0.2       0.0       0.0       0.0       0.0

                     24        25        26        27        28        29   
                  -0.35706  -0.35240  -0.34734  -0.33258  -0.31400  -0.30956
                   2.00000   2.00000   2.00000   2.00000   2.00000   2.00000
                  --------  --------  --------  --------  --------  --------
 0 C  s               0.2       0.4       0.0       0.0       0.1       0.0
 0 C  pz              0.0       0.1       0.1      25.2       0.1       0.0
 0 C  px              1.7      13.9      11.2       0.0       2.2       0.0
 0 C  py              5.5      11.9       9.5       0.2       6.5       0.0
 0 C  dz2             0.0       0.0       0.2       0.0       0.1       0.0
 0 C  dyz             0.0       0.0       0.0       0.8       0.0       0.0
 0 C  dx2y2           0.0       0.2       0.2       0.0       0.1       0.0
 0 C  dxy             0.1       0.1       0.0       0.0       0.1       0.0
 1 C  s               0.3       0.1       0.1       0.0       0.3       0.0
 1 C  pz              0.1       0.1       0.0      17.7       0.1       0.6
 1 C  px              0.1       5.1       0.3       0.0       5.6       0.0
 1 C  py              8.0      16.4       3.8       0.2       6.6       0.0
 1 C  dz2             0.0       0.0       0.1       0.0       0.2       0.0
 1 C  dyz             0.0       0.0       0.0       0.7       0.0       0.0
 1 C  dx2y2           0.0       0.3       0.1       0.0       0.1       0.0
 1 C  dxy             0.1       0.1       0.1       0.0       0.3       0.0
 2 C  s               0.3       0.8       0.3       0.0       0.0       0.0
 2 C  pz              0.0       0.0       0.0       1.2       0.1       3.9
 2 C  px              0.2       3.2       1.5       0.0       7.3       0.0
 2 C  py              1.7       0.4       1.6       0.0       5.4       0.0
 2 C  dxz             0.0       0.0       0.0       0.1       0.0       0.1
 2 C  dyz             0.0       0.0       0.0       0.0       0.0       0.1
 2 C  dx2y2           0.1       0.1       0.1       0.0       0.1       0.0
 2 C  dxy             0.2       0.1       0.0       0.0       0.3       0.0
 3 C  s               0.4       0.1       0.2       0.0       0.0       0.0
 3 C  pz              0.0       0.0       0.0       0.0       0.1      17.2
 3 C  px              3.1       0.4       6.7       0.0       3.8       0.0
 3 C  py              0.0       1.5       0.4       0.0       7.4       0.2
 3 C  dxy             0.1       0.0       0.0       0.0       0.3       0.0
 4 C  s               0.1       0.0       0.1       0.0       0.1       0.0
 4 C  pz              0.1       0.0       0.0       0.1       0.1      22.8
 4 C  px              1.6       0.3       6.1       0.0       3.9       0.0
 4 C  py             12.7       0.0       1.3       0.0       6.8       0.2
 4 C  dx2y2           0.0       0.1       0.4       0.0       0.1       0.0
 4 C  dxy             0.2       0.0       0.1       0.0       0.7       0.0
 5 C  s               0.0       0.1       0.1       0.0       0.1       0.0
 5 C  pz              0.1       0.0       0.0       0.6       0.0      18.2
 5 C  px              1.0       1.3      10.0       0.0       0.8       0.0
 5 C  py             12.3       0.2       0.7       0.0       4.4       0.2
 5 C  dx2y2           0.0       0.0       0.4       0.0       0.1       0.0
 5 C  dxy             0.2       0.0       0.1       0.0       0.2       0.0
 6 C  s               0.1       0.0       0.6       0.0       0.1       0.0
 6 C  pz              0.1       0.0       0.0       1.5       0.0       5.5
 6 C  px              0.7       0.1       0.9       0.0       1.3       0.0
 6 C  py              8.1       1.7       3.2       0.0       3.2       0.1
 6 C  dyz             0.0       0.0       0.0       0.0       0.0       0.1
 7 C  s               0.0       0.5       0.1       0.0       0.2       0.0
 7 C  pz              0.0       0.0       0.0       2.0       0.0       0.2
 7 C  px              0.1       0.5       0.6       0.0       0.1       0.0
 7 C  py              2.7       0.2       0.7       0.0       0.6       0.0
 7 C  dxz             0.0       0.0       0.0       0.0       0.0       0.2
 7 C  dyz             0.0       0.0       0.0       0.1       0.0       0.4
 7 C  dx2y2           0.3       0.0       0.0       0.0       0.1       0.0
 7 C  dxy             0.0       0.1       0.2       0.0       0.4       0.0
 8 O  s               3.3       2.4       0.3       0.0       0.1       0.0
 8 O  pz              0.1       0.1       0.0       7.8       0.0      27.2
 8 O  px              5.0       6.9       0.6       0.0       0.3       0.0
 8 O  py             13.3      17.5       5.8       0.1       3.3       0.3
 8 O  dz2             0.2       0.0       0.0       0.0       0.0       0.0
 8 O  dxz             0.0       0.0       0.0       0.1       0.0       0.1
 8 O  dx2y2           0.9       0.1       0.0       0.0       0.0       0.0
 8 O  dxy             0.0       0.1       0.0       0.0       0.1       0.0
 9 H  s               0.5       5.8       8.3       0.0       2.8       0.0
 9 H  pz              0.0       0.0       0.0       0.2       0.0       0.0
 9 H  px              0.0       0.0       0.1       0.0       0.0       0.0
 9 H  py              0.1       0.2       0.0       0.0       0.0       0.0
10 H  s               0.4       0.3       3.7      11.6       1.8       0.0
10 H  pz              0.0       0.0       0.1       0.0       0.1       0.0
10 H  px              0.0       0.1       0.0       0.0       0.0       0.0
10 H  py              0.0       0.1       0.0       0.1       0.0       0.0
11 H  s               0.4       0.2       3.7      11.6       1.8       0.0
11 H  pz              0.0       0.0       0.1       0.0       0.0       0.0
11 H  px              0.0       0.1       0.0       0.0       0.0       0.0
11 H  py              0.0       0.1       0.0       0.1       0.0       0.0
12 H  s               0.8       0.6       1.3       8.5       2.9       0.5
13 H  s               0.8       0.6       1.3       8.5       2.8       0.5
14 H  s               1.1       0.9       0.6       0.0       1.5       0.0
14 H  pz              0.0       0.0       0.0       0.0       0.0       0.1
14 H  px              0.0       0.0       0.0       0.0       0.2       0.0
15 H  s               3.6       0.1       3.6       0.0       8.9       0.0
15 H  pz              0.0       0.0       0.0       0.0       0.0       0.2
15 H  px              0.1       0.0       0.0       0.0       0.0       0.0
16 H  s               0.7       0.5       7.0       0.0       1.0       0.0
16 H  pz              0.0       0.0       0.0       0.0       0.0       0.1
16 H  py              0.1       0.0       0.0       0.0       0.0       0.0
17 H  s               3.4       0.7       0.3       0.0       0.6       0.0
18 H  s               1.5       1.2       0.1       0.0       0.0       0.0
18 H  pz              0.0       0.0       0.0       0.1       0.0       0.5
18 H  py              0.2       0.2       0.1       0.0       0.1       0.0

                     30        31        32        33        34        35   
                  -0.29985  -0.22952  -0.20066  -0.02527  -0.01341   0.05030
                   2.00000   2.00000   2.00000   0.00000   0.00000   0.00000
                  --------  --------  --------  --------  --------  --------
 0 C  s               0.0       0.0       0.0       0.0       0.0       0.7
 0 C  pz              0.0       0.0       0.0       0.2       0.2       0.0
 0 C  px              2.6       0.0       0.0       0.0       0.0       1.1
 0 C  py              1.0       0.0       0.0       0.0       0.0       3.1
 0 C  dx2y2           0.1       0.0       0.0       0.0       0.0       0.3
 1 C  s               0.1       0.0       0.0       0.0       0.0      10.9
 1 C  pz              0.0       1.2       0.5       0.0       0.2       0.1
 1 C  px              8.1       0.0       0.0       0.0       0.0       0.5
 1 C  py              0.1       0.0       0.0       0.0       0.0      12.2
 1 C  dz2             0.0       0.0       0.0       0.0       0.0       0.1
 1 C  dxz             0.0       0.3       0.2       0.6       0.2       0.0
 1 C  dx2y2           0.1       0.0       0.0       0.0       0.0       0.2
 2 C  s               0.0       0.0       0.0       0.0       0.0       0.9
 2 C  pz              0.0      18.5      13.2      20.5       5.4       0.0
 2 C  px              6.2       0.0       0.0       0.0       0.0       0.2
 2 C  py              5.9       0.2       0.1       0.2       0.0       0.3
 2 C  dxz             0.0       0.1       0.0       0.1       0.1       0.0
 2 C  dyz             0.0       0.2       0.2       0.4       1.1       0.0
 2 C  dx2y2           0.5       0.0       0.0       0.0       0.0       0.5
 2 C  dxy             0.2       0.0       0.0       0.0       0.0       0.0
 3 C  s               0.1       0.0       0.0       0.0       0.0       0.0
 3 C  pz              0.0      26.3       2.1      23.3       7.0       0.0
 3 C  px              3.5       0.0       0.0       0.0       0.0       0.3
 3 C  py              3.1       0.2       0.0       0.2       0.1       0.4
 3 C  dxz             0.0       0.0       0.4       0.1       1.0       0.0
 3 C  dyz             0.0       0.1       0.1       0.4       0.0       0.0
 3 C  dx2y2           0.4       0.0       0.0       0.0       0.0       0.2
 3 C  dxy             0.4       0.0       0.0       0.0       0.0       0.0
 4 C  s               0.0       0.0       0.0       0.0       0.0       0.2
 4 C  pz              0.0       0.2      24.7       0.1      29.1       0.0
 4 C  px              5.1       0.0       0.0       0.0       0.0       0.1
 4 C  py              2.7       0.0       0.2       0.0       0.3       0.2
 4 C  dxz             0.0       0.5       0.0       1.0       0.0       0.0
 4 C  dyz             0.0       0.2       0.0       0.3       0.2       0.0
 4 C  dx2y2           0.1       0.0       0.0       0.0       0.0       0.0
 5 C  s               0.0       0.0       0.0       0.0       0.0       0.4
[...]
 8 O  dyz             0.0       0.0       0.0       0.0       0.2       0.4
 8 O  dx2y2           0.0       0.0       0.2       3.9       0.6       0.0
 8 O  dxy             0.2       0.0       0.3       6.1       3.3       5.1
 9 H  s               1.7       0.0       0.1       0.5       0.0       0.0
 9 H  px              3.7       0.0       0.3       1.0       0.0       0.0
 9 H  py              0.2       0.0       0.0       0.3       0.0       0.0
10 H  s               2.1       3.3       0.0       0.0       0.0       0.0
10 H  pz              4.8       4.2       0.1       0.1       0.0       0.0
10 H  px              0.3       0.4       0.0       0.1       0.0       0.0
10 H  py              1.1       3.7       0.0       0.0       0.0       0.0
11 H  s               2.1       3.2       0.0       0.0       0.0       0.0
11 H  pz              5.6       5.7       0.1       0.1       0.0       0.0
11 H  px              0.3       0.3       0.0       0.1       0.0       0.0
11 H  py              0.4       2.2       0.0       0.0       0.0       0.0
12 H  s               1.7       4.7       0.0       0.4       0.0       0.0
12 H  pz              4.5       7.5       0.0       1.4       0.0       0.0
12 H  px              1.0       1.0       0.1       0.0       0.0       0.0
12 H  py              0.3       3.1       0.0       0.1       0.0       0.0
13 H  s               1.7       4.7       0.0       0.4       0.0       0.0
13 H  pz              3.8       5.4       0.0       1.4       0.0       0.0
13 H  px              1.1       1.1       0.1       0.1       0.0       0.0
13 H  py              0.9       5.1       0.0       0.0       0.0       0.0
14 H  s               0.4       0.0       4.5       0.3       1.8       0.7
14 H  px              0.1       0.0       3.8       0.0       0.5       0.3
14 H  py              1.2       0.0      10.1       0.8       3.4       0.8
15 H  s               0.0       0.0       0.3       0.0       3.1       0.7
15 H  px              0.0       0.0       0.1       0.0       1.9       0.3
15 H  py              0.1       0.0       0.7       0.1       4.4       0.8
16 H  s               0.1       0.0       1.5       0.2       2.7       0.8
16 H  px              0.3       0.0       4.4       0.5       5.6       1.4
16 H  py              0.0       0.0       0.3       0.0       0.0       0.0
17 H  s               0.1       0.0       3.5       0.2       1.1       1.1
17 H  px              0.1       0.0       2.5       0.0       0.5       0.4
17 H  py              0.3       0.0       8.0       0.8       1.8       1.4
18 H  s               0.0       0.0       0.0       0.0       0.0       1.4
18 H  px              0.1       0.0       0.1       0.0       0.0       1.8
18 H  py              0.1       0.0       0.1       2.5       0.0       0.0

                    216       217       218       219       220       221   
                   4.61071  21.38144  21.84174  21.94896  21.99792  22.04342
                   0.00000   0.00000   0.00000   0.00000   0.00000   0.00000
                  --------  --------  --------  --------  --------  --------
 0 C  s               0.0       0.2       9.9      76.1       4.1       8.6
 1 C  s               0.1       1.4      29.7       0.1       7.8      54.3
 1 C  px              0.1       0.0       0.0       0.0       0.0       0.0
 2 C  s               0.1      23.3      25.1       4.5       1.6       4.5
 2 C  px              0.1       0.0       0.0       0.0       0.0       0.1
 2 C  py              0.0       0.0       0.0       0.0       0.1       0.1
 2 C  dx2y2           0.5       0.0       0.0       0.0       0.0       0.0
 3 C  s               0.0      17.7       0.4       5.4      11.3      14.0
 3 C  dxy             0.1       0.0       0.0       0.0       0.0       0.0
 4 C  s               0.0      14.6      11.6       0.5      22.5       0.3
 5 C  s               0.0      14.8      15.9       5.0       2.4      10.9
 5 C  dx2y2           0.2       0.0       0.0       0.0       0.0       0.0
 6 C  s               0.2      14.1       6.1       8.0      15.8       6.6
 6 C  dx2y2           0.2       0.0       0.0       0.0       0.0       0.0
 6 C  dxy             0.1       0.0       0.0       0.0       0.0       0.0
 7 C  s               0.2      13.5       0.7       0.0      33.7       0.3
 7 C  px              0.5       0.0       0.0       0.0       0.0       0.1
 7 C  py              1.3       0.0       0.1       0.0       0.0       0.0
 7 C  dx2y2           0.8       0.0       0.0       0.0       0.0       0.0
 7 C  dxy             1.7       0.0       0.0       0.0       0.0       0.0
 8 O  s               4.7       0.1       0.0       0.0       0.1       0.0
 8 O  px             21.9       0.0       0.0       0.0       0.0       0.0
 8 O  py              0.5       0.0       0.0       0.0       0.0       0.0
 8 O  dz2             4.0       0.0       0.0       0.0       0.0       0.0
 8 O  dx2y2          26.3       0.0       0.0       0.0       0.0       0.0
 8 O  dxy             7.6       0.0       0.0       0.0       0.0       0.0
18 H  s              13.2       0.0       0.0       0.0       0.0       0.0
18 H  px             14.0       0.0       0.0       0.0       0.0       0.0
18 H  py              0.3       0.0       0.0       0.0       0.0       0.0

                    222       223       224       225   
                  22.19505  22.20026  22.35361  43.66837
                   0.00000   0.00000   0.00000   0.00000
                  --------  --------  --------  --------
 0 C  s               0.0       0.7       0.0       0.0
 1 C  s               3.3       2.2       0.6       0.0
 2 C  s              19.3       6.9      14.6       0.0
 3 C  s              27.5       6.4      16.7       0.0
 4 C  s               0.3      34.0      15.8       0.0
 5 C  s              24.2      10.7      15.6       0.0
 6 C  s              25.1       6.3      17.6       0.0
 7 C  s               0.1      32.4      18.8       0.0
 8 O  s               0.0       0.0       0.0      99.9


                      *****************************
                      * MAYER POPULATION ANALYSIS *
                      *****************************

  NA   - Mulliken gross atomic population
  ZA   - Total nuclear charge
  QA   - Mulliken gross atomic charge
  VA   - Mayer's total valence
  BVA  - Mayer's bonded valence
  FA   - Mayer's free valence

  ATOM       NA         ZA         QA         VA         BVA        FA
  0 C      6.5231     6.0000    -0.5231     3.8347     3.8347    -0.0000
  1 C      6.3589     6.0000    -0.3589     3.4913     3.4913    -0.0000
  2 C      6.0091     6.0000    -0.0091     3.5677     3.5677    -0.0000
  3 C      6.1561     6.0000    -0.1561     3.8815     3.8815    -0.0000
  4 C      6.2096     6.0000    -0.2096     3.8427     3.8427     0.0000
  5 C      6.1209     6.0000    -0.1209     3.7972     3.7972    -0.0000
  6 C      6.2892     6.0000    -0.2892     3.8496     3.8496    -0.0000
  7 C      5.6275     6.0000     0.3725     3.7365     3.7365    -0.0000
  8 O      8.4216     8.0000    -0.4216     2.0120     2.0120    -0.0000
  9 H      0.8491     1.0000     0.1509     0.9609     0.9609    -0.0000
 10 H      0.8372     1.0000     0.1628     0.9566     0.9566    -0.0000
 11 H      0.8373     1.0000     0.1627     0.9566     0.9566    -0.0000
 12 H      0.8393     1.0000     0.1607     0.9470     0.9470    -0.0000
 13 H      0.8392     1.0000     0.1608     0.9470     0.9470    -0.0000
 14 H      0.8569     1.0000     0.1431     0.9685     0.9685    -0.0000
 15 H      0.8562     1.0000     0.1438     0.9700     0.9700     0.0000
 16 H      0.8535     1.0000     0.1465     0.9690     0.9690    -0.0000
 17 H      0.8436     1.0000     0.1564     0.9678     0.9678    -0.0000
 18 H      0.6718     1.0000     0.3282     0.8891     0.8891     0.0000

  Mayer bond orders larger than 0.100000
B(  0-C ,  1-C ) :   0.8724 B(  0-C ,  9-H ) :   0.9682 B(  0-C , 10-H ) :   0.9850 
B(  0-C , 11-H ) :   0.9849 B(  1-C ,  2-C ) :   0.8266 B(  1-C ,  7-C ) :  -0.1052 
B(  1-C , 12-H ) :   0.9739 B(  1-C , 13-H ) :   0.9736 B(  2-C ,  3-C ) :   1.4124 
B(  2-C ,  7-C ) :   1.3963 B(  3-C ,  4-C ) :   1.4278 B(  3-C , 14-H ) :   0.9404 
B(  4-C ,  5-C ) :   1.4124 B(  4-C , 15-H ) :   0.9438 B(  5-C ,  6-C ) :   1.3838 
B(  5-C , 16-H ) :   0.9485 B(  6-C ,  7-C ) :   1.4063 B(  6-C , 17-H ) :   0.9411 
B(  7-C ,  8-O ) :   0.9659 B(  8-O , 18-H ) :   0.8625 

-------
TIMINGS
-------

Total SCF time: 0 days 0 hours 0 min 19 sec 

Total time                  ....      19.543 sec
Sum of individual times     ....      19.303 sec  ( 98.8%)

SCF preparation             ....       0.383 sec  (  2.0%)
Fock matrix formation       ....      16.948 sec  ( 86.7%)
  Startup                   ....       0.008 sec  (  0.0% of F)
  Split-RI-J                ....       3.770 sec  ( 22.2% of F)
  XC integration            ....      13.029 sec  ( 76.9% of F)
    Basis function eval.    ....       2.280 sec  ( 17.5% of XC)
    Density eval.           ....       4.395 sec  ( 33.7% of XC)
    XC-Functional eval.     ....       1.392 sec  ( 10.7% of XC)
    XC-Potential eval.      ....       4.477 sec  ( 34.4% of XC)
Diagonalization             ....       0.000 sec  (  0.0%)
Density matrix formation    ....       0.043 sec  (  0.2%)
Total Energy calculation    ....       0.003 sec  (  0.0%)
Population analysis         ....       1.742 sec  (  8.9%)
Orbital Transformation      ....       0.022 sec  (  0.1%)
Orbital Orthonormalization  ....       0.000 sec  (  0.0%)
DIIS solution               ....       0.144 sec  (  0.7%)
  MO trafo                  ....       0.000 sec  (  0.0 % of DIIS)
  Orb grad                  ....       0.000 sec  (  0.0 % of DIIS)
  Energy W gradient         ....       0.000 sec  (  0.0 % of DIIS)
  DIIS error                ....       0.017 sec  ( 11.7 % of DIIS)
  DIIS work                 ....       0.114 sec  ( 79.3 % of DIIS)
  Form Q                    ....       0.000 sec  (  0.0 % of DIIS)
  Form QpQm                 ....       0.000 sec  (  0.0 % of DIIS)
  Exp/Cayley                ....       0.000 sec  (  0.0 % of DIIS)
  Orb update                ....       0.000 sec  (  0.0 % of DIIS)
  Wake-sleep                ....       0.002 sec  (  1.2 % of DIIS)
SOSCF solution              ....       0.018 sec  (  0.1%)
  MO trafo                  ....       0.014 sec  ( 75.7 % of SOSCF)
  Orb grad                  ....       0.000 sec  (  0.6 % of SOSCF)
  Rot update                ....       0.000 sec  (  0.1 % of SOSCF)
  Step                      ....       0.004 sec  ( 23.3 % of SOSCF)
Finished LeanSCF after  20.9 sec

Maximum memory used throughout the entire LEANSCF-calculation: 25.9 MB


-------------------------------------------------------------------------------
                          DFT DISPERSION CORRECTION                            
                                                                               
                                DFTD4 V3.4.0                                   
-------------------------------------------------------------------------------
The R2SCAN3C composite method is recognized
Using three-body term ABC
Active option DFTDOPT                   ...         5   

-------------------------   ----------------
Dispersion correction           -0.006197489
-------------------------   ----------------

------------------   -----------------
gCP correction             0.007095362
------------------   -----------------

-------------------------   --------------------
FINAL SINGLE POINT ENERGY      -386.000706055399
-------------------------   --------------------


------------------------------------------------------------------------------
                              ORCA PROPERTY CALCULATIONS
------------------------------------------------------------------------------

GBWName                                 ... sp.gbw
Number of atoms                         ...     19
Number of basis functions               ...    226
Max core memory                         ...   1024 MB

Electric properties:
Dipole moment                           ... YES
Quadrupole moment                       ...  NO
Static polarizability (Dipole/Dipole)   ...  NO
Static polarizability (Dipole/Quad.)    ...  NO
Static polarizability (Quad./Quad.)     ...  NO
Static polarizability (Velocity)        ...  NO

Atomic electric properties:
Dipole moment                           ...  NO
Quadrupole moment                       ...  NO
Static polarizability                   ...  NO

Choice of electric origin               ... Center of mass
Position of electric origin             ...    -0.000008    -0.000022    -0.000002

General magnetic properties:
Magnetizability                         ...  NO

EPR properties:
g-Tensor (aka g-matrix)                 ...  NO
Zero-Field splitting spin-orbit         ...  NO
Zero-field splitting spin-spin          ...  NO
Hyperfine couplings                     ...  NO (   0 nuclei)
Quadrupole couplings                    ...  NO (   0 nuclei)
Contact density                         ...  NO (   0 nuclei)

NMR properties:
Chemical shifts                         ...  NO (   0 nuclei)
Spin-rotation constants                 ...  NO (   0 nuclei)
Spin-spin couplings                     ...  NO (   0 nuclei,    0 pairs)

Choice of magnetic origin               ... GIAO
Position of magnetic origin             ...     0.000000     0.000000     0.000000

Properties with geometric perturbations:
SCF Hessian                             ...  NO
IR spectrum                             ...  NO
VCD spectrum                            ...  NO
X-ray spectroscopy properties:
SCF XES/XAS/RIXS spectra                ...  NO


-------------
DIPOLE MOMENT
-------------

Method             : SCF
Type of density    : Electron Density
Multiplicity       :   1
Irrep              :   0
Energy             :  -386.0016039284875546 Eh
Relativity type    : 
Basis              : AO
                                X                 Y                 Z
Electronic contribution:      5.722598987       4.704102178       0.371683987
Nuclear contribution   :     -6.407317666      -4.992140187      -0.390153392
                        -----------------------------------------
Total Dipole Moment    :     -0.684718679      -0.288038009      -0.018469404
                        -----------------------------------------
Magnitude (a.u.)       :      0.743065732
Magnitude (Debye)      :      1.888722992



--------------------
Rotational spectrum 
--------------------
 
Rotational constants in cm-1:             0.083676             0.049378             0.031419 
Rotational constants in MHz :          2508.530074          1480.322429           941.930883 

Dipole components along the rotational axes: 
x,y,z [a.u.] :    -0.738966    -0.077948    -0.000304 
x,y,z [Debye]:    -1.878302    -0.198129    -0.000772 

 

Dipole moment calculation done in   0.6 sec 

Maximum memory used throughout the entire PROP-calculation: 15.4 MB

--------------------------------
SUGGESTED CITATIONS FOR THIS RUN
--------------------------------

Below you find a list of papers that are relevant to this ORCA run
We neither can nor want to force you to cite these papers, but we appreciate if you do
You receive ORCA, which is the product of decades of hard work by many enthusiastic individuals, for free
The only thing we kindly ask in return is that you cite our papers,
We deeply appreciate it, if you show your appreciation for ORCA by not just citing the generic ORCA reference.

Please note that relegating all ORCA citations to the supporting information does *not* help us.
SI sections are not indexed - citations you put there will not count into any citation statistics
But we need these citations in order to attract the funding resources that allow us to do what we are doing

Therefore, if you are a happy ORCA user, please consider citing a few of the papers listed below in the main body of your paper

In addition to the list printed below, the program has created the file sp.bibtex that contains the list in bibtex format
You can import this file easily into all common literature databanks and citation aid programs


List of essential papers. We consider these as the minimum necessary citations

  1. Neese,F.
     Software update: the ORCA program system, version 5.0
     WIRES Comput. Molec. Sci., 2022 12(1)e1606
     doi.org/10.1002/wcms.1606
  2. Grimme,S.; Hansen,A.; Ehlert,S.; Mewes,J.
     r2SCAN-3c: A 'Swiss army knife' composite electronic-structure method
     J. Chem. Phys., 2021 154 064103
     doi.org/10.1063/5.0040021

List of papers to cite with high priority. The work reported in these papers was absolutely
necessary for this run to complete.
Our perspective: the developers of density functionals and basis sets usually get cited in chemistry papers
Good! But without the algorithms to do something with them, the functionals or basis sets would not do anything.
Hence, in our opinion, the algorithm design and method developments papers are equally worthy of getting cited

  1. Neese,F.
     An improvement of the resolution of the identity approximation for the formation of the Coulomb matrix
     J. Comp. Chem., 2003 24(14)1740-1747
     doi.org/10.1002/jcc.10318
  2. Neese,F.
     The SHARK Integral Generation and Digestion System
     J. Comp. Chem., 2022  1-16
     doi.org/10.1002/jcc.26942
  3. Lehtola,S.; Steigemann,C.; Oliveira,M.; Marques,M.
     Recent developments in Libxc - A comprehensive library of functionals for density functional theory
     Software X, 2018 7 
     doi.org/10.1016/j.softx.2017.11.002
  4. Caldeweyher,E.; Bannwarth,C.; Grimme,S.
     Extension of the D3 dispersion coefficient model
     J. Chem. Phys., 2017 147 034112
     doi.org/10.1063/1.4993215
  5. Caldeweyher,E.; Ehlert,S.; Hansen,A.; Neugebauer,H.; Spicher,S.; Bannwarth,C.; Grimme,S.
     A generally applicable atomic-charge dependent London dispersion correction
     J. Chem. Phys., 2019 150 154122
     doi.org/10.1063/1.5090222
  6. Caldeweyher,E.; Mewes,J.; Ehlert,S.; Grimme,S.
     Extension and evaluation of the D4 London-dispersion model for periodic systems
     Phys. Chem. Chem. Phys., 2020 22(16)8499-8512
     doi.org/10.1039/D0CP00502A
  7. Wittmann,L.; Gordiy,I.; Friede,M.; Helmich-Paris,B.; Grimme,S.; Hansen,A.; Bursch,M.
     Extension of the D3 and D4 London Dispersion Corrections to the full Actinides Series
     Phys. Chem. Chem. Phys., 2024 26(32)21379-21394
     doi.org/https://doi.org/10.1039/D4CP01514B 

List of suggested additional citations. These are papers that are important in the 'surrounding' of 
of this run, or papers that preceded the highly important papers. If you like your results we are grateful for a citation.

  1. Neese,F.
     The ORCA program system
     WIRES Comput. Molec. Sci., 2012 2(1)73-78
     doi.org/10.1002/wcms.81
  2. Neese,F.
     Software update: the ORCA program system, version 4.0
     WIRES Comput. Molec. Sci., 2018 8(1)1-6
     doi.org/10.1002/wcms.1327
  3. Neese,F.; Wennmohs,F.; Becker,U.; Riplinger,C.
     The ORCA quantum chemistry program package
     J. Chem. Phys., 2020 152 Art. No. L224108
     doi.org/10.1063/5.0004608

List of optional additional citations

  1. Neese,F.
     Approximate second-order SCF convergence for spin unrestricted wavefunctions
     Chem. Phys. Lett., 2000 325(1-3)93-98
     doi.org/10.1016/s0009-2614(00)00662-x

Timings for individual modules:

Sum of individual times          ...       22.800 sec (=   0.380 min)
Startup calculation              ...        1.108 sec (=   0.018 min)   4.9 %
SCF iterations                   ...       21.033 sec (=   0.351 min)  92.3 %
Property calculations            ...        0.658 sec (=   0.011 min)   2.9 %
                             ****ORCA TERMINATED NORMALLY****
TOTAL RUN TIME: 0 days 0 hours 0 minutes 25 seconds 107 msec
