31
 energy: -468.210575768074 gnorm: 0.000958860815 xtb: 6.7.1 (edcfbbe)
C            3.69585504515589       -0.35090871014955       -0.08097005059571
C            2.22414026971173       -0.30790941081431        0.32430129938807
H            2.16271039676099       -0.39600157491891        1.42043643979726
C            1.43843606285540       -1.47327497748661       -0.28238539927146
C           -0.04511830676702       -1.40554062568446        0.08190899593800
C           -0.67465176853994       -0.07816779966706       -0.36415172194502
H           -0.52006821184082        0.02189120656833       -1.45028267229518
C            0.10176873863867        1.08048193786657        0.28323309189798
H            0.01182226773687        1.00194399126379        1.38111181274077
C            1.57904384210662        1.01939949482020       -0.08122284599036
O           -0.36454508237754        2.36586976655764       -0.14867164045852
C           -2.19965247251090        0.00225026528711       -0.12792689989479
C           -2.96009433502440       -1.01109976027329       -0.98888897757111
C           -2.60608159866196       -0.14410199284649        1.34212755856677
H            4.25648200335422        0.47527371388209        0.36838246311875
H            4.16565974541381       -1.28965256167957        0.23054804899329
H            3.79567806007387       -0.26999090757449       -1.16970034494168
H            1.54737716436366       -1.44176527904625       -1.37648128004426
H            1.86715648310976       -2.42672568450827        0.05073504528094
H           -0.57658129222430       -2.24835257550591       -0.37268483556460
H           -0.15020188898913       -1.51656443127338        1.16994450212888
H            1.67167802016856        1.15687030354295       -1.16814447732533
H            2.09680668893179        1.86117802325339        0.39302778956828
H           -1.23857399451125        2.51423556987354        0.22616904230183
H           -2.51628576311892        0.99734175252645       -0.47299781885683
H           -2.67551623194879       -0.92946616574936       -2.04335464355785
H           -4.03985764886090       -0.84483290562016       -0.91639502222105
H           -2.76654797368732       -2.03888199519280       -0.66407259474687
H           -2.10055383165022        0.57837634247669        1.99182227268921
H           -2.37560151810494       -1.14705529218028        1.71675023620632
H           -3.68435910855822        0.00780267843419        1.45563282005600
31
 energy: -468.210580232412 gnorm: 0.000494826204 xtb: 6.7.1 (edcfbbe)
C            3.69638011136066       -0.35122657612741       -0.08089733362643
C            2.22456325367539       -0.30793983654717        0.32338249113913
H            2.16264200528661       -0.39629586588612        1.41944025020853
C            1.43829190797107       -1.47289634789604       -0.28348647483919
C           -0.04500576373316       -1.40561960142430        0.08168983493666
C           -0.67433586572085       -0.07788149072258       -0.36402517585896
H           -0.51977773978741        0.02255858763760       -1.45007103401450
C            0.10180352658782        1.08034507261732        0.28404026892153
H            0.01273248254684        1.00102843717549        1.38190338056726
C            1.57868679443532        1.01928602496343       -0.08157536354256
O           -0.36474327022904        2.36698444601480       -0.14593680884583
C           -2.19939902531483        0.00222268388836       -0.12758537411873
C           -2.95927359811854       -1.01159259333728       -0.98840704604013
C           -2.60683288932258       -0.14321736421146        1.34212736402866
H            4.25716011133993        0.47433218297449        0.36938561285575
H            4.16555061812176       -1.29037438705003        0.23051910544720
H            3.79711917244748       -0.26982297468505       -1.16944518566036
H            1.54663032153434       -1.44070047568280       -1.37759761991245
H            1.86726383108234       -2.42648352653037        0.04880286312954
H           -0.57704425604618       -2.24842920866570       -0.37228427462788
H           -0.14917735355510       -1.51626793419546        1.16994590228781
H            1.67046866160830        1.15670979120210       -1.16853892551305
H            2.09666869758480        1.86111492451379        0.39231722759982
H           -1.24103789285322        2.51184640410061        0.22587706539357
H           -2.51629706410994        0.99693167634068       -0.47335261400565
H           -2.67253970233295       -0.93185488039048       -2.04223978406294
H           -4.03893077788410       -0.84394261847025       -0.91849104382891
H           -2.76778867560705       -2.03897760500390       -0.66177330054512
H           -2.10213868874304        0.58006808947281        1.99128063144856
H           -2.37611181160744       -1.14552058405975        1.71774638049137
H           -3.68520363801073        0.00823793978579        1.45504886029655
31
 energy: -468.210580232412 gnorm: 0.000494826204 xtb: 6.7.1 (edcfbbe)
C            3.69638011136066       -0.35122657612741       -0.08089733362643
C            2.22456325367539       -0.30793983654717        0.32338249113913
H            2.16264200528661       -0.39629586588612        1.41944025020853
C            1.43829190797107       -1.47289634789604       -0.28348647483919
C           -0.04500576373316       -1.40561960142430        0.08168983493666
C           -0.67433586572085       -0.07788149072258       -0.36402517585896
H           -0.51977773978741        0.02255858763760       -1.45007103401450
C            0.10180352658782        1.08034507261732        0.28404026892153
H            0.01273248254684        1.00102843717549        1.38190338056726
C            1.57868679443532        1.01928602496343       -0.08157536354256
O           -0.36474327022904        2.36698444601480       -0.14593680884583
C           -2.19939902531483        0.00222268388836       -0.12758537411873
C           -2.95927359811854       -1.01159259333728       -0.98840704604013
C           -2.60683288932258       -0.14321736421146        1.34212736402866
H            4.25716011133993        0.47433218297449        0.36938561285575
H            4.16555061812176       -1.29037438705003        0.23051910544720
H            3.79711917244748       -0.26982297468505       -1.16944518566036
H            1.54663032153434       -1.44070047568280       -1.37759761991245
H            1.86726383108234       -2.42648352653037        0.04880286312954
H           -0.57704425604618       -2.24842920866570       -0.37228427462788
H           -0.14917735355510       -1.51626793419546        1.16994590228781
H            1.67046866160830        1.15670979120210       -1.16853892551305
H            2.09666869758480        1.86111492451379        0.39231722759982
H           -1.24103789285322        2.51184640410061        0.22587706539357
H           -2.51629706410994        0.99693167634068       -0.47335261400565
H           -2.67253970233295       -0.93185488039048       -2.04223978406294
H           -4.03893077788410       -0.84394261847025       -0.91849104382891
H           -2.76778867560705       -2.03897760500390       -0.66177330054512
H           -2.10213868874304        0.58006808947281        1.99128063144856
H           -2.37611181160744       -1.14552058405975        1.71774638049137
H           -3.68520363801073        0.00823793978579        1.45504886029655
