
                                 *****************
                                 * O   R   C   A *
                                 *****************

                                            #,                                       
                                            ###                                      
                                            ####                                     
                                            #####                                    
                                            ######                                   
                                           ########,                                 
                                     ,,################,,,,,                         
                               ,,#################################,,                 
                          ,,##########################################,,             
                       ,#########################################, ''#####,          
                    ,#############################################,,   '####,        
                  ,##################################################,,,,####,       
                ,###########''''           ''''###############################       
              ,#####''   ,,,,##########,,,,          '''####'''          '####       
            ,##' ,,,,###########################,,,                        '##       
           ' ,,###''''                  '''############,,,                           
         ,,##''                                '''############,,,,        ,,,,,,###''
      ,#''                                            '''#######################'''  
     '                                                          ''''####''''         
             ,#######,   #######,   ,#######,      ##                                
            ,#'     '#,  ##    ##  ,#'     '#,    #''#        ,####,   ,####,        
            ##       ##  ##   ,#'  ##            #'  '#       #'       #'  '#        
            ##       ##  #######   ##           ,######,      #####,   #    #        
            '#,     ,#'  ##    ##  '#,     ,#' ,#      #,     #,   #   #,  ,#        
             '#######'   ##     ##  '#######'  #'      '#     '####' # '####'        



                #########################################################
                #                        -***-                          #
                #          Department of theory and spectroscopy        #
                #                                                       #
                #                      Frank Neese                      #
                #                                                       #
                #     Directorship, Architecture, Infrastructure        #
                #                    SHARK, DRIVERS                     #
                #        Core code/Algorithms in most modules           #
                #                                                       #
                #        Max Planck Institute fuer Kohlenforschung      #
                #                Kaiser Wilhelm Platz 1                 #
                #                 D-45470 Muelheim/Ruhr                 #
                #                      Germany                          #
                #                                                       #
                #                  All rights reserved                  #
                #                        -***-                          #
                #########################################################


                         Program Version 6.0.1  -  RELEASE   -


 With contributions from (in alphabetic order):
[Max-Planck-Institut fuer Kohlenforschung]                               
  Daniel Aravena         : Magnetic Suceptibility                        
  Michael Atanasov       : Ab Initio Ligand Field Theory (pilot matlab implementation)
  Alexander A. Auer      : GIAO ZORA, VPT2 properties, NMR spectrum      
  Ute Becker             : All parallelization in ORCA, NUMFREQ, NUMCALC 
  Giovanni Bistoni       : ED, misc. LED, open-shell LED, HFLD           
  Martin Brehm           : Molecular dynamics                            
  Dmytro Bykov           : pre 5.0 version of the SCF Hessian            
  Marcos Casanova-Páez   : Triplet and SCS-CIS(D). UHF-(DLPNO)-IP/EA/STEOM-CCSD. UHF-CVS-IP/STEOM-CCSD   
  Vijay G. Chilkuri      : MRCI spin determinant printing, contributions to CSF-ICE 
  Pauline Colinet        : FMM embedding                                 
  Dipayan Datta          : RHF DLPNO-CCSD density                        
  Achintya Kumar Dutta   : EOM-CC, STEOM-CC                              
  Nicolas Foglia         : Exact transition moments, OPA infrastructure, MCD improvements    
  Dmitry Ganyushin       : Spin-Orbit,Spin-Spin,Magnetic field MRCI      
  Miquel Garcia-Rates    : C-PCM and meta-GGA Hessian, CCSD/C-PCM, Gaussian charge scheme 
  Tiago L. C. Gouveia    : GS-ROHF, GS-ROCIS                             
  Yang Guo               : DLPNO-NEVPT2, F12-NEVPT2, CIM, IAO-localization        
  Andreas Hansen         : Spin unrestricted coupled pair/coupled cluster methods 
  Ingolf Harden          : AUTO-CI MPn and infrastructure                
  Benjamin Helmich-Paris : MC-RPA, TRAH-(SCF,CASSCF), AVAS, COSX integrals, SCF dyn. polar. 
  Lee Huntington         : MR-EOM, pCC                                   
  Robert Izsak           : Overlap fitted RIJCOSX, COSX-SCS-MP3, EOM     
  Riya Kayal             : Wick's Theorem for AUTO-CI, AUTO-CI UHF-CCSDT 
  Emily Kempfer          : AUTO-CI, RHF CISDT and CCSDT                  
  Christian Kollmar      : KDIIS, OOCD, Brueckner-CCSD(T), CCSD density, CASPT2, CASPT2-K, improved NEVPT2 
  Axel Koslowski         : Symmetry handling                             
  Simone Kossmann        : meta-GGA functionals, TD-DFT gradient, OOMP2, (MP2 Hessian; deprecated post 5.0) 
  Lucas Lang             : DCDCAS                                        
  Marvin Lechner         : AUTO-CI (C++ implementation), FIC-MRCC        
  Spencer Leger          : CASSCF response                               
  Dagmar Lenk            : GEPOL surface, SMD, ORCA-2-JSON               
  Dimitrios Liakos       : Extrapolation schemes; Compound Job, initial MDCI parallelization 
  Dimitrios Manganas     : Further ROCIS development; embedding schemes. LFT, Crystal Embedding 
  Dimitrios Pantazis     : SARC Basis sets                               
  Anastasios Papadopoulos: AUTO-CI, single reference methods and gradients 
  Taras Petrenko         : pre 6.0 DFT Hessian and TD-DFT gradient, (ASA, deprecated), ECA, 1-Electron XAS/XES, NRVS 
  Peter Pinski           : DLPNO-MP2, DLPNO-MP2 Gradient                 
  Christoph Reimann      : Effective Core Potentials                     
  Marius Retegan         : Local ZFS, SOC                                
  Christoph Riplinger    : Optimizer, TS searches, QM/MM, DLPNO-CCSD(T), (RO)-DLPNO pert. Triples 
  Michael Roemelt        : Original ROCIS implementation                 
  Masaaki Saitow         : Open-shell DLPNO-CCSD energy and density      
  Barbara Sandhoefer     : DKH picture change effects                    
  Kantharuban Sivalingam : CASSCF convergence/infrastructure, NEVPT2 and variants, FIC-MRCI 
  Bernardo de Souza      : ESD, SOC TD-DFT                               
  Georgi L. Stoychev     : AutoAux, RI-MP2 NMR, DLPNO-MP2 response, X2C  
  Van Anh Tran           : RI-MP2 g-tensors                              
  Willem Van den Heuvel  : Paramagnetic NMR                              
  Zikuan Wang            : NOTCH, Electric field optimization            
  Frank Wennmohs         : Technical directorship and infrastructure     
  Hang Xu                : AUTO-CI-Response properties                   
                                                                         
[FACCTs GmbH]                                                            
  Markus Bursch, Miquel Garcia-Rates, Christoph Riplinger, Bernardo de Souza, Georgi L. Stoychev 
                                                                 
  APM, Basis sets (HGBS, AHGBS, def-TZVP (Ac-Lr), def2-XVPD (La-Lu)), CI-OPT, improved COSX, DLPNO-Multilevel,           
  DOCKER, DRACO, updates on ESD, GOAT, IRC, LR-CPCM, MBIS, meta-GGA TD-DFT gradient, ML-optimized integration grids, 
  MM, NACMEs, nearIR, NEB, NEB-TS, NL-DFT gradient (VV10), 2- and 3-layer-ONIOM, interface openCOSMO-RS, QMMM,   
  Crystal-QMMM, SF, symmetry and pop. for TD-DFT, r2SCAN hybrids, SOLVATOR                                   
                                                                         
[Other institutions]                                                     
  V. Asgeirsson          : NEB                                           
  Christoph Bannwarth    : sTDA-DFT, sTD-DFT, PBEh-3c, B97-3c, D3        
  Sebastian Ehlert       : rSCAN, r2SCAN, r2SCAN-3c, D4, dhf basis sets  
  Marvin Friede          : D4 for Fr, Ra, Ac-Lr                          
  Lars Goerigk           : TD-DFT with DH, B97 family of functionals     
  Stefan Grimme          : VdW corrections, initial TS optimization, DFT functionals, gCP, sTDA/sTD-DF 
  Waldemar Hujo          : DFT-NL                                        
  H. Jonsson             : NEB                                           
  Holger Kruse           : gCP                                           
  Marcel Mueller         : wB97X-3c, vDZP basis set                      
  Hagen Neugebauer       : wr2SCAN                                       
  Tobias Risthaus        : range-separated hybrid DFT                    
  Lukas Wittmann         : regularized MP2, r2SCAN double-hybrids, wr2SCAN        
                                                                         
We gratefully acknowledge several colleagues who have allowed us to      
interface, adapt or use parts of their codes:                            
  Ed Valeev, F. Pavosevic, A. Kumar             : LibInt (2-el integral package), F12 methods 
  Garnet Chan, S. Sharma, J. Yang, R. Olivares  : DMRG                   
  Ulf Ekstrom                                   : XCFun DFT Library      
  Mihaly Kallay                                 : mrcc  (arbitrary order and MRCC methods)
  Frank Weinhold                                : gennbo (NPA and NBO analysis)           
  Simon Mueller                                 : openCOSMO-RS                            
  Christopher J. Cramer and Donald G. Truhlar   : smd solvation model                     
  S Lehtola, MJT Oliveira, MAL Marques          : LibXC Library                           
  Liviu Ungur et al                             : ANISO software                          


 Your calculation uses the libint2 library for the computation of 2-el integrals
 For citations please refer to: http://libint.valeyev.net

 Your ORCA version has been built with support for libXC version: 6.2.2
 For citations please refer to: https://libxc.gitlab.io

 This ORCA versions uses:
   CBLAS   interface :  Fast vector & matrix operations
   LAPACKE interface :  Fast linear algebra routines
   SCALAPACK package :  Parallel linear algebra routines
   Shared memory     :  Shared parallel matrices
   BLAS/LAPACK       :  OpenBLAS 0.3.27  USE64BITINT DYNAMIC_ARCH NO_AFFINITY Zen SINGLE_THREADED
        Core in use  :  Zen
   Copyright (c) 2011-2014, The OpenBLAS Project


Your calculation utilizes the geometrical counterpoise correction gCP
Please cite in your paper:
H.Kruse, S. Grimme J.Chem.Phys., 136, (2012), 154101 
   

Your calculation utilizes the atom-pairwise dispersion correction
based on EEQ partial charges (D4)


================================================================================

----- Orbital basis set information -----
Your calculation utilizes the basis: def2-SV(P)
   F. Weigend and R. Ahlrichs, Phys. Chem. Chem. Phys. 7, 3297 (2005).

----- AuxJ basis set information -----
Your calculation utilizes the auxiliary basis: def2/J
   F. Weigend, Phys. Chem. Chem. Phys. 8, 1057 (2006).

================================================================================
                                        WARNINGS
                       Please study these warnings very carefully!
================================================================================


================================================================================
                                       INPUT FILE
================================================================================
NAME = sp.inp
|  1> ! pbe def2-sv(p) def2/J RI DEFGRID1 loosescf d4 GCP(DFT/SV(P)) printgap
|  2> %output
|  3>     printlevel normal
|  4> end
|  5> * xyz 0 1
|  6> C -2.0982211828 -1.0516690873 -0.0811196063
|  7> C -1.0390381785 -0.3956750915 0.8225928795
|  8> H -1.474344591 -0.365319944 1.8300229577
|  9> C -0.7399892411 1.0762817762 0.433118937
| 10> H -1.6021203925 1.4593008925 -0.1213990326
| 11> C 0.5073308906 1.2602124549 -0.4534804311
| 12> H 0.8446435213 2.3009484625 -0.3044629479
| 13> C 1.6336448984 0.3225984814 0.0255896999
| 14> H 2.5075159166 0.4186818088 -0.6311395003
| 15> C 1.1248484127 -1.1335121896 0.0191371374
| 16> H 1.9145916895 -1.7955894653 0.4023375945
| 17> O 0.1077212664 -1.2201860553 0.9985296999
| 18> O 0.7855280499 -1.6057398872 -1.2248509488
| 19> O 2.0217556629 0.670542451 1.3375827455
| 20> O 0.1633181573 1.0506320916 -1.7976660034
| 21> O -0.6265082023 1.8715401582 1.5871167419
| 22> O -1.8282330297 -0.8088894822 -1.4444696673
| 23> H -3.0776623935 -0.6362894439 0.1888409031
| 24> H -2.0949786111 -2.1286882329 0.1320821543
| 25> H -0.0073597942 -1.1265716606 -1.5462201951
| 26> H 1.6262790225 0.0193658256 1.9368874513
| 27> H 0.9582452965 1.0987821533 -2.3407217503
| 28> H 0.2668591221 1.7637495705 1.9456537371
| 29> H -2.4741480476 -1.2723945775 -1.9866675224
| 30> *
| 31> 
| 32>                          ****END OF INPUT****
================================================================================

                       ****************************
                       * Single Point Calculation *
                       ****************************

---------------------------------
CARTESIAN COORDINATES (ANGSTROEM)
---------------------------------
  C     -2.098221   -1.051669   -0.081120
  C     -1.039038   -0.395675    0.822593
  H     -1.474345   -0.365320    1.830023
  C     -0.739989    1.076282    0.433119
  H     -1.602120    1.459301   -0.121399
  C      0.507331    1.260212   -0.453480
  H      0.844644    2.300948   -0.304463
  C      1.633645    0.322598    0.025590
  H      2.507516    0.418682   -0.631140
  C      1.124848   -1.133512    0.019137
  H      1.914592   -1.795589    0.402338
  O      0.107721   -1.220186    0.998530
  O      0.785528   -1.605740   -1.224851
  O      2.021756    0.670542    1.337583
  O      0.163318    1.050632   -1.797666
  O     -0.626508    1.871540    1.587117
  O     -1.828233   -0.808889   -1.444470
  H     -3.077662   -0.636289    0.188841
  H     -2.094979   -2.128688    0.132082
  H     -0.007360   -1.126572   -1.546220
  H      1.626279    0.019366    1.936887
  H      0.958245    1.098782   -2.340722
  H      0.266859    1.763750    1.945654
  H     -2.474148   -1.272395   -1.986668

----------------------------
CARTESIAN COORDINATES (A.U.)
----------------------------
  NO LB      ZA    FRAG     MASS         X           Y           Z
   0 C     6.0000    0    12.011   -3.965063   -1.987367   -0.153294
   1 C     6.0000    0    12.011   -1.963498   -0.747718    1.554475
   2 H     1.0000    0     1.008   -2.786108   -0.690355    3.458242
   3 C     6.0000    0    12.011   -1.398377    2.033878    0.818476
   4 H     1.0000    0     1.008   -3.027569    2.757679   -0.229411
   5 C     6.0000    0    12.011    0.958716    2.381456   -0.856954
   6 H     1.0000    0     1.008    1.596145    4.348162   -0.575352
   7 C     6.0000    0    12.011    3.087141    0.609623    0.048358
   8 H     1.0000    0     1.008    4.738518    0.791194   -1.192681
   9 C     6.0000    0    12.011    2.125655   -2.142028    0.036164
  10 H     1.0000    0     1.008    3.618054   -3.393172    0.760308
  11 O     8.0000    0    15.999    0.203564   -2.305817    1.886948
  12 O     8.0000    0    15.999    1.484433   -3.034409   -2.314633
  13 O     8.0000    0    15.999    3.820565    1.267142    2.527665
  14 O     8.0000    0    15.999    0.308627    1.985407   -3.397096
  15 O     8.0000    0    15.999   -1.183929    3.536698    2.999216
  16 O     8.0000    0    15.999   -3.454860   -1.528580   -2.729652
  17 H     1.0000    0     1.008   -5.815939   -1.202413    0.356858
  18 H     1.0000    0     1.008   -3.958936   -4.022638    0.249599
  19 H     1.0000    0     1.008   -0.013908   -2.128912   -2.921933
  20 H     1.0000    0     1.008    3.073222    0.036596    3.660187
  21 H     1.0000    0     1.008    1.810821    2.076397   -4.423323
  22 H     1.0000    0     1.008    0.504291    3.333004    3.676753
  23 H     1.0000    0     1.008   -4.675462   -2.404477   -3.754258

--------------------------------
INTERNAL COORDINATES (ANGSTROEM)
--------------------------------
 C      0   0   0     0.000000000000     0.00000000     0.00000000
 C      1   0   0     1.539120858190     0.00000000     0.00000000
 H      2   1   0     1.097874523889   106.12382813     0.00000000
 C      2   1   3     1.551701401435   112.92714884   243.93983625
 H      4   2   1     1.094286957007   107.90159379    22.40113682
 C      4   2   1     1.541329440784   114.42736817   262.53667958
 H      6   4   2     1.104136521742   106.38392204   203.26420150
 C      6   4   2     1.541820806023   109.86868565   319.86121322
 H      8   6   4     1.097349445095   110.03154815   177.48030634
 C      8   6   4     1.542457061193   109.37882156    56.47803868
 H     10   8   6     1.099492315831   109.27282192   182.43721462
 O     10   8   6     1.414662426947   106.98425160   294.19635249
 O     10   8   6     1.373187410953   114.20109304    63.12997768
 O      8   6   4     1.411743858922   109.85927148   296.75081787
 O      6   4   2     1.403247498531   109.55992804    84.18382410
 O      4   2   1     1.406067129984   110.24757655   138.15304053
 O      1   2   3     1.410871690940   111.24469771   163.20772616
 H      1   2   3     1.097599202808   107.96149516    42.32744459
 H      1   2   3     1.097923378466   107.58060631   284.78981186
 H     13  10   8     0.980587331742   109.18725531   292.37603336
 H     14   8   6     0.969329098379   107.26846804   102.98105503
 H     15   6   4     0.963917594673   109.27094736   184.36767122
 H     16   4   2     0.968644807981   108.37793308    81.61516409
 H     17   1   2     0.962300211884   109.45894685   176.67789683

---------------------------
INTERNAL COORDINATES (A.U.)
---------------------------
 C      0   0   0     0.000000000000     0.00000000     0.00000000
 C      1   0   0     2.908516908984     0.00000000     0.00000000
 H      2   1   0     2.074682179560   106.12382813     0.00000000
 C      2   1   3     2.932290690334   112.92714884   243.93983625
 H      4   2   1     2.067902660665   107.90159379    22.40113682
 C      4   2   1     2.912690525231   114.42736817   262.53667958
 H      6   4   2     2.086515640552   106.38392204   203.26420150
 C      6   4   2     2.913619070965   109.86868565   319.86121322
 H      8   6   4     2.073689924439   110.03154815   177.48030634
 C      8   6   4     2.914821418987   109.37882156    56.47803868
 H     10   8   6     2.077739363271   109.27282192   182.43721462
 O     10   8   6     2.673324558879   106.98425160   294.19635249
 O     10   8   6     2.594948137249   114.20109304    63.12997768
 O      8   6   4     2.667809264608   109.85927148   296.75081787
 O      6   4   2     2.651753470333   109.55992804    84.18382410
 O      4   2   1     2.657081801579   110.24757655   138.15304053
 O      1   2   3     2.666161105979   111.24469771   163.20772616
 H      1   2   3     2.074161898117   107.96149516    42.32744459
 H      1   2   3     2.074774501331   107.58060631   284.78981186
 H     13  10   8     1.853041507384   109.18725531   292.37603336
 H     14   8   6     1.831766529576   107.26846804   102.98105503
 H     15   6   4     1.821540269599   109.27094736   184.36767122
 H     16   4   2     1.830473408130   108.37793308    81.61516409
 H     17   1   2     1.818483859076   109.45894685   176.67789683

---------------------
BASIS SET INFORMATION
---------------------
There are 3 groups of distinct atoms

 Group   1 Type C   : 7s4p1d contracted to 3s2p1d pattern {511/31/1}
 Group   2 Type H   : 4s contracted to 2s pattern {31}
 Group   3 Type O   : 7s4p1d contracted to 3s2p1d pattern {511/31/1}

Atom   0C    basis set group =>   1
Atom   1C    basis set group =>   1
Atom   2H    basis set group =>   2
Atom   3C    basis set group =>   1
Atom   4H    basis set group =>   2
Atom   5C    basis set group =>   1
Atom   6H    basis set group =>   2
Atom   7C    basis set group =>   1
Atom   8H    basis set group =>   2
Atom   9C    basis set group =>   1
Atom  10H    basis set group =>   2
Atom  11O    basis set group =>   3
Atom  12O    basis set group =>   3
Atom  13O    basis set group =>   3
Atom  14O    basis set group =>   3
Atom  15O    basis set group =>   3
Atom  16O    basis set group =>   3
Atom  17H    basis set group =>   2
Atom  18H    basis set group =>   2
Atom  19H    basis set group =>   2
Atom  20H    basis set group =>   2
Atom  21H    basis set group =>   2
Atom  22H    basis set group =>   2
Atom  23H    basis set group =>   2
---------------------------------
AUXILIARY/J BASIS SET INFORMATION
---------------------------------
There are 3 groups of distinct atoms

 Group   1 Type C   : 12s5p4d2f1g contracted to 6s4p3d1f1g pattern {711111/2111/211/2/1}
 Group   2 Type H   : 5s2p1d contracted to 3s1p1d pattern {311/2/1}
 Group   3 Type O   : 12s5p4d2f1g contracted to 6s4p3d1f1g pattern {711111/2111/211/2/1}

Atom   0C    basis set group =>   1
Atom   1C    basis set group =>   1
Atom   2H    basis set group =>   2
Atom   3C    basis set group =>   1
Atom   4H    basis set group =>   2
Atom   5C    basis set group =>   1
Atom   6H    basis set group =>   2
Atom   7C    basis set group =>   1
Atom   8H    basis set group =>   2
Atom   9C    basis set group =>   1
Atom  10H    basis set group =>   2
Atom  11O    basis set group =>   3
Atom  12O    basis set group =>   3
Atom  13O    basis set group =>   3
Atom  14O    basis set group =>   3
Atom  15O    basis set group =>   3
Atom  16O    basis set group =>   3
Atom  17H    basis set group =>   2
Atom  18H    basis set group =>   2
Atom  19H    basis set group =>   2
Atom  20H    basis set group =>   2
Atom  21H    basis set group =>   2
Atom  22H    basis set group =>   2
Atom  23H    basis set group =>   2
------------------------------------------------------------------------------
                             ORCA STARTUP CALCULATIONS
                           -- RI-GTO INTEGRALS CHOSEN --
------------------------------------------------------------------------------
------------------------------------------------------------------------------
                   ___                                                        
                  /   \      - P O W E R E D   B Y -                         
                 /     \                                                     
                 |  |  |   _    _      __       _____    __    __             
                 |  |  |  | |  | |    /  \     |  _  \  |  |  /  |          
                  \  \/   | |  | |   /    \    | | | |  |  | /  /          
                 / \  \   | |__| |  /  /\  \   | |_| |  |  |/  /          
                |  |  |   |  __  | /  /__\  \  |    /   |      \           
                |  |  |   | |  | | |   __   |  |    \   |  |\   \          
                \     /   | |  | | |  |  |  |  | |\  \  |  | \   \       
                 \___/    |_|  |_| |__|  |__|  |_| \__\ |__|  \__/        
                                                                              
                      - O R C A' S   B I G   F R I E N D -                    
                                      &                                       
                       - I N T E G R A L  F E E D E R -                       
                                                                              
 v1 FN, 2020, v2 2021, v3 2022-2024                                           
------------------------------------------------------------------------------


----------------------
SHARK INTEGRAL PACKAGE
----------------------

Number of atoms                             ...     24
Number of basis functions                   ...    192
Number of shells                            ...     96
Maximum angular momentum                    ...      2
Integral batch strategy                     ... SHARK/LIBINT Hybrid
RI-J (if used) integral strategy            ... SPLIT-RIJ (Revised 2003 algorithm where possible)
Printlevel                                  ...      1
Contraction scheme used                     ... SEGMENTED contraction
Prescreening option                         ... SCHWARTZ
   Thresh                                   ... 1.000e-09
   Tcut                                     ... 1.000e-10
   Tpresel                                  ... 1.000e-10 
Coulomb Range Separation                    ... NOT USED
Exchange Range Separation                   ... NOT USED
Multipole approximations                    ... NOT USED
Finite Nucleus Model                        ... NOT USED
CABS basis                                  ... NOT available
Auxiliary Coulomb fitting basis             ... AVAILABLE
   # of basis functions in Aux-J            ...    720
   # of shells in Aux-J                     ...    240
   Maximum angular momentum in Aux-J        ...      4
Auxiliary J/K fitting basis                 ... NOT available
Auxiliary Correlation fitting basis         ... NOT available
Auxiliary 'external' fitting basis          ... NOT available

Checking pre-screening integrals            ... done (  0.0 sec) Dimension = 96
Check shell pair data                       ... done (  0.0 sec)
Shell pair information
Shell pair cut-off parameter TPreSel        ...   1.0e-10
Total number of shell pairs                 ...      4656
Shell pairs after pre-screening             ...      4351
Total number of primitive shell pairs       ...     18720
Primitive shell pairs kept                  ...     11794
          la=0 lb=0:   1682 shell pairs
          la=1 lb=0:   1372 shell pairs
          la=1 lb=1:    296 shell pairs
          la=2 lb=0:    647 shell pairs
          la=2 lb=1:    280 shell pairs
          la=2 lb=2:     74 shell pairs

Calculating one electron integrals          ... done (  0.0 sec)
Calculating RI/J V-Matrix + Cholesky decomp.... done (  0.0 sec)
Calculating Nuclear repulsion               ... done (  0.0 sec) ENN=    876.655786340024 Eh

Diagonalization of the overlap matrix:
Smallest eigenvalue                        ... 8.756e-04
Time for diagonalization                   ...    0.003 sec
Threshold for overlap eigenvalues          ... 1.000e-07
Number of eigenvalues below threshold      ... 0
Time for construction of square roots      ...    0.003 sec
Total time needed                          ...    0.008 sec

-------------------
DFT GRID GENERATION
-------------------

General Integration Accuracy     IntAcc      ... 4.159
Radial Grid Type                 RadialGrid  ... OptM3 with GC (2021)
Angular Grid (max. ang.)         AngularGrid ... 3 (Lebedev-194)
Angular grid pruning method      GridPruning ... 4 (adaptive)
Weight generation scheme         WeightScheme... mBecke (2022)
Basis function cutoff            BFCut       ... 1.0000e-10
Integration weight cutoff        WCut        ... 1.0000e-14
Partially contracted basis set               ... off
Rotationally invariant grid construction     ... off
Angular grids for H and He will be reduced by one unit

Total number of grid points                  ...    55547
Total number of batches                      ...      881
Average number of points per batch           ...       63
Average number of grid points per atom       ...     2314
Initializing property integral containers    ... done (  0.0 sec)

SHARK setup successfully completed in   0.6 seconds

Maximum memory used throughout the entire STARTUP-calculation: 29.0 MB
-------------------------------------------------------------------------------
                                 ORCA GUESS
                   Start orbitals & Density for SCF / CASSCF
-------------------------------------------------------------------------------

------------
SCF SETTINGS
------------
Hamiltonian:
 Density Functional     Method          .... DFT(GTOs)
 Exchange Functional    Exchange        .... PBE
   PBE kappa parameter   XKappa         ....  0.804000
   PBE mue parameter    XMuePBE         ....  0.219520
 Correlation Functional Correlation     .... PBE
   PBE beta parameter  CBetaPBE         ....  0.066725
 LDA part of GGA corr.  LDAOpt          .... PW91-LDA
 Gradients option       PostSCFGGA      .... off
   NL short-range parameter             ....  6.400000
 RI-approximation to the Coulomb term is turned on
   Number of AuxJ basis functions       .... 720


General Settings:
 Integral files         IntName         .... sp
 Hartree-Fock type      HFTyp           .... RHF
 Total Charge           Charge          ....    0
 Multiplicity           Mult            ....    1
 Number of Electrons    NEL             ....   96
 Basis Dimension        Dim             ....  192
 Nuclear Repulsion      ENuc            ....    876.6557863400 Eh

Convergence Acceleration:
 AO-DIIS                CNVDIIS         .... on
   Start iteration      DIISMaxIt       ....    12
   Startup error        DIISStart       ....  0.200000
   # of expansion vecs  DIISMaxEq       ....     5
   Bias factor          DIISBfac        ....   1.050
   Max. coefficient     DIISMaxC        ....  10.000
 MO-DIIS                CNVKDIIS        .... off
 Trust-Rad. Augm. Hess. CNVTRAH         .... auto
   Auto Start mean grad. ratio tolernc. ....  1.125000
   Auto Start start iteration           ....    50
   Auto Start num. interpolation iter.  ....    10
   Max. Number of Micro iterations      ....    24
   Max. Number of Macro iterations      .... Maxiter - #DIIS iter
   Number of Davidson start vectors     ....     2
   Converg. threshold    (grad. norm)   ....   1.000e-04
   Grad. Scal. Fac. for Micro threshold ....   0.100
   Minimum threshold for Micro iter.    ....   1.000e-02
   NR start threshold (gradient norm)   ....   1.000e-04
   Initial trust radius                 ....   0.400
   Minimum AH scaling param. (alpha)    ....   1.000
   Maximum AH scaling param. (alpha)    .... 1000.000
   Quad. conv. algorithm                .... NR
   White noise on init. David. guess    .... on
   Maximum white noise                  ....   0.010
   Pseudo random numbers                .... off
   Inactive MOs                         .... canonical
   Orbital update algorithm             .... Taylor
   Preconditioner                       .... Diag
   Full preconditioner red. dimension   ....   250
 SOSCF                  CNVSOSCF        .... on
   Start iteration      SOSCFMaxIt      ....   150
   Startup grad/error   SOSCFStart      ....  0.003300
   Hessian update       SOSCFHessUp     .... L-BFGS
 Level Shifting         CNVShift        .... on
   Level shift para.    LevelShift      ....    0.2500
   Turn off err/grad.   ShiftErr        ....    0.0010
 Zerner damping         CNVZerner       .... off
 Static damping         CNVDamp         .... on
   Fraction old density DampFac         ....    0.7000
   Max. Damping (<1)    DampMax         ....    0.9800
   Min. Damping (>=0)   DampMin         ....    0.0000
   Turn off err/grad.   DampErr         ....    0.1000

SCF Procedure:
 Maximum # iterations   MaxIter         ....   125
 SCF integral mode      SCFMode         .... Direct
   Integral package                     .... SHARK and LIBINT hybrid scheme
 Reset frequency        DirectResetFreq ....    20
 Integral Threshold     Thresh          ....  1.000e-09 Eh
 Primitive CutOff       TCut            ....  1.000e-10 Eh

Convergence Tolerance:
 Convergence Check Mode ConvCheckMode   .... Total+1el-Energy
 Convergence forced     ConvForced      .... 0
 Energy Change          TolE            ....  1.000e-05 Eh
 1-El. energy change                    ....  1.000e-02 Eh
 Orbital Gradient       TolG            ....  1.000e-04
 Orbital Rotation angle TolX            ....  1.000e-04
 DIIS Error             TolErr          ....  5.000e-04

------------------------------
INITIAL GUESS: MODEL POTENTIAL
------------------------------
Loading Hartree-Fock densities                     ... done
Calculating cut-offs                               ... done
Initializing the effective Hamiltonian             ... done
Setting up the integral package (SHARK)            ... done
Starting the Coulomb interaction                   ... done (   0.2 sec)
Making the grid                                    ... done (   0.2 sec)
Mapping shells                                     ... done
Starting the XC term evaluation                    ... done (   0.2 sec)
  promolecular density results
     # of electrons  =     95.994347882
     EX              =    -83.247010739
     EC              =     -3.280647908
     EX+EC           =    -86.527658647
Transforming the Hamiltonian                       ... done (   0.0 sec)
Diagonalizing the Hamiltonian                      ... done (   0.0 sec)
Back transforming the eigenvectors                 ... done (   0.0 sec)
Now organizing SCF variables                       ... done
                      ------------------
                      INITIAL GUESS DONE (   0.7 sec)
                      ------------------
             **** ENERGY FILE WAS UPDATED (sp.en.tmp) ****
Finished Guess after   0.7 sec
Maximum memory used throughout the entire GUESS-calculation: 22.8 MB

-------------------------------------------------------------------------------------------
                                      ORCA LEAN-SCF
                              memory conserving SCF solver
-------------------------------------------------------------------------------------------

----------------------------------------D-I-I-S--------------------------------------------
Iteration    Energy (Eh)           Delta-E    RMSDP     MaxDP     DIISErr   Damp  Time(sec)
-------------------------------------------------------------------------------------------
               ***  Starting incremental Fock matrix formation  ***
    1    -685.5350222887716427     0.00e+00  4.70e-03  1.23e-01  2.23e-01  0.700   0.9
    2    -685.6797082035279800    -1.45e-01  3.09e-03  8.76e-02  8.19e-02  0.700   0.8
                               ***Turning on AO-DIIS***
    3    -685.7259651202377881    -4.63e-02  1.14e-03  2.94e-02  1.70e-02  0.700   0.8
    4    -685.7566468268148583    -3.07e-02  1.54e-03  2.84e-02  8.66e-03  0.000   0.8
    5    -685.8272916370260646    -7.06e-02  4.96e-04  1.72e-02  3.68e-03  0.000   0.8
                              *** Initializing SOSCF ***
---------------------------------------S-O-S-C-F--------------------------------------
Iteration    Energy (Eh)           Delta-E    RMSDP     MaxDP     MaxGrad    Time(sec)
--------------------------------------------------------------------------------------
    6    -685.8275885287132496    -2.97e-04  1.43e-04  4.18e-03  1.16e-03     0.8
               *** Restarting incremental Fock matrix formation ***
    7    -685.8276171068939675    -2.86e-05  9.69e-05  2.76e-03  1.87e-04     0.8
    8    -685.8276175947180491    -4.88e-07  3.50e-05  7.81e-04  1.58e-04     0.7
                 **** Energy Check signals convergence ****

               *****************************************************
               *                     SUCCESS                       *
               *           SCF CONVERGED AFTER   8 CYCLES          *
               *****************************************************

             **** ENERGY FILE WAS UPDATED (sp.en.tmp) ****

----------------
TOTAL SCF ENERGY
----------------

Total Energy       :       -685.82761759471805 Eh          -18662.31825 eV

Components:
Nuclear Repulsion  :        876.65578634002395 Eh           23855.01671 eV
Electronic Energy  :      -1562.48340393474200 Eh          -42517.33496 eV
One Electron Energy:      -2682.37045110650570 Eh          -72991.01077 eV
Two Electron Energy:       1119.88704717176370 Eh           30473.67581 eV

Virial components:
Potential Energy   :      -1366.94114501954618 Eh          -37196.35958 eV
Kinetic Energy     :        681.11352742482813 Eh           18534.04133 eV
Virial Ratio       :          2.00692115187862

DFT components:
N(Alpha)           :       48.000171994199 electrons
N(Beta)            :       48.000171994199 electrons
N(Total)           :       96.000343988398 electrons
E(X)               :      -84.604223857693 Eh       
E(C)               :       -3.290098054798 Eh       
E(XC)              :      -87.894321912490 Eh       

---------------
SCF CONVERGENCE
---------------

  Last Energy change         ...    4.8782e-07  Tolerance :   1.0000e-05
  Last MAX-Density change    ...    7.8097e-04  Tolerance :   1.0000e-03
  Last RMS-Density change    ...    3.4998e-05  Tolerance :   1.0000e-04
  Last DIIS Error            ...    1.1629e-03  Tolerance :   5.0000e-04
  Last Orbital Gradient      ...    1.5836e-04  Tolerance :   1.0000e-04
  Last Orbital Rotation      ...    1.8537e-04  Tolerance :   1.0000e-04


----------------
ORBITAL ENERGIES
----------------

  NO   OCC          E(Eh)            E(eV) 
   0   2.0000     -18.774675      -510.8849 
   1   2.0000     -18.772511      -510.8260 
   2   2.0000     -18.765406      -510.6327 
   3   2.0000     -18.759131      -510.4619 
   4   2.0000     -18.741329      -509.9775 
   5   2.0000     -18.741118      -509.9718 
   6   2.0000      -9.983373      -271.6614 
   7   2.0000      -9.949210      -270.7318 
   8   2.0000      -9.945891      -270.6414 
   9   2.0000      -9.944425      -270.6016 
  10   2.0000      -9.943506      -270.5766 
  11   2.0000      -9.942847      -270.5586 
  12   2.0000      -0.984390       -26.7866 
  13   2.0000      -0.948640       -25.8138 
  14   2.0000      -0.941090       -25.6084 
  15   2.0000      -0.934857       -25.4388 
  16   2.0000      -0.921831       -25.0843 
  17   2.0000      -0.903164       -24.5764 
  18   2.0000      -0.705486       -19.1972 
  19   2.0000      -0.687336       -18.7034 
  20   2.0000      -0.624835       -17.0026 
  21   2.0000      -0.593871       -16.1600 
  22   2.0000      -0.571547       -15.5526 
  23   2.0000      -0.522203       -14.2099 
  24   2.0000      -0.509499       -13.8642 
  25   2.0000      -0.482514       -13.1299 
  26   2.0000      -0.474772       -12.9192 
  27   2.0000      -0.464577       -12.6418 
  28   2.0000      -0.445965       -12.1353 
  29   2.0000      -0.430918       -11.7259 
  30   2.0000      -0.424636       -11.5549 
  31   2.0000      -0.411659       -11.2018 
  32   2.0000      -0.393470       -10.7069 
  33   2.0000      -0.377535       -10.2732 
  34   2.0000      -0.360848        -9.8192 
  35   2.0000      -0.350444        -9.5361 
  36   2.0000      -0.324509        -8.8303 
  37   2.0000      -0.315899        -8.5960 
  38   2.0000      -0.305610        -8.3161 
  39   2.0000      -0.299388        -8.1468 
  40   2.0000      -0.290583        -7.9072 
  41   2.0000      -0.281482        -7.6595 
  42   2.0000      -0.254032        -6.9126 
  43   2.0000      -0.247473        -6.7341 
  44   2.0000      -0.238252        -6.4832 
  45   2.0000      -0.229115        -6.2345 
  46   2.0000      -0.209140        -5.6910 
  47   2.0000      -0.200358        -5.4520 
  48   0.0000       0.008075         0.2197 
  49   0.0000       0.020210         0.5500 
  50   0.0000       0.032723         0.8904 
  51   0.0000       0.062659         1.7051 
  52   0.0000       0.065585         1.7847 
  53   0.0000       0.075152         2.0450 
  54   0.0000       0.086029         2.3410 
  55   0.0000       0.089937         2.4473 
  56   0.0000       0.098395         2.6775 
  57   0.0000       0.105592         2.8733 
  58   0.0000       0.117324         3.1926 
*Only the first 10 virtual orbitals were printed.

                    ********************************
                    * MULLIKEN POPULATION ANALYSIS *
                    ********************************

-----------------------
MULLIKEN ATOMIC CHARGES
-----------------------
   0 C :    0.016431
   1 C :    0.019507
   2 H :    0.083936
   3 C :    0.072736
   4 H :    0.088579
   5 C :    0.022307
   6 H :    0.078133
   7 C :    0.010258
   8 H :    0.070682
   9 C :    0.162013
  10 H :    0.074583
  11 O :   -0.319354
  12 O :   -0.411607
  13 O :   -0.422055
  14 O :   -0.395635
  15 O :   -0.425134
  16 O :   -0.425516
  17 H :    0.085875
  18 H :    0.091794
  19 H :    0.313644
  20 H :    0.304807
  21 H :    0.302136
  22 H :    0.286684
  23 H :    0.315195
Sum of atomic charges:   -0.0000000

--------------------------------
MULLIKEN REDUCED ORBITAL CHARGES
--------------------------------
  0 C s       :     3.019181  s :     3.019181
      pz      :     0.777054  p :     2.902569
      px      :     1.060197
      py      :     1.065319
      dz2     :     0.020828  d :     0.061818
      dxz     :     0.013486
      dyz     :     0.013279
      dx2y2   :     0.009655
      dxy     :     0.004570

  1 C s       :     3.052138  s :     3.052138
      pz      :     1.079475  p :     2.863535
      px      :     0.844167
      py      :     0.939892
      dz2     :     0.010240  d :     0.064820
      dxz     :     0.013920
      dyz     :     0.006686
      dx2y2   :     0.016055
      dxy     :     0.017919

  2 H s       :     0.916064  s :     0.916064

  3 C s       :     3.045800  s :     3.045800
      pz      :     0.828006  p :     2.814151
      px      :     1.064639
      py      :     0.921506
      dz2     :     0.014461  d :     0.067313
      dxz     :     0.014783
      dyz     :     0.017164
      dx2y2   :     0.012679
      dxy     :     0.008226

  4 H s       :     0.911421  s :     0.911421

  5 C s       :     3.068563  s :     3.068563
      pz      :     0.758383  p :     2.841135
      px      :     1.051603
      py      :     1.031148
      dz2     :     0.019364  d :     0.067996
      dxz     :     0.015804
      dyz     :     0.014156
      dx2y2   :     0.010200
      dxy     :     0.008471

  6 H s       :     0.921867  s :     0.921867

  7 C s       :     3.080781  s :     3.080781
      pz      :     0.807343  p :     2.843356
      px      :     1.018505
      py      :     1.017509
      dz2     :     0.015971  d :     0.065605
      dxz     :     0.019512
      dyz     :     0.012420
      dx2y2   :     0.010120
      dxy     :     0.007582

  8 H s       :     0.929318  s :     0.929318

  9 C s       :     3.024641  s :     3.024641
      pz      :     0.794246  p :     2.710157
      px      :     0.917851
      py      :     0.998059
      dz2     :     0.027707  d :     0.103189
      dxz     :     0.027575
      dyz     :     0.019600
      dx2y2   :     0.011737
      dxy     :     0.016569

 10 H s       :     0.925417  s :     0.925417

 11 O s       :     3.755184  s :     3.755184
      pz      :     1.589373  p :     4.549058
      px      :     1.300623
      py      :     1.659062
      dz2     :     0.002694  d :     0.015113
      dxz     :     0.004183
      dyz     :     0.002207
      dx2y2   :     0.002192
      dxy     :     0.003837

 12 O s       :     3.758448  s :     3.758448
      pz      :     1.377035  p :     4.637775
      px      :     1.540360
      py      :     1.720380
      dz2     :     0.003932  d :     0.015384
      dxz     :     0.001916
      dyz     :     0.003715
      dx2y2   :     0.001505
      dxy     :     0.004316

 13 O s       :     3.778679  s :     3.778679
      pz      :     1.228095  p :     4.627878
      px      :     1.775256
      py      :     1.624527
      dz2     :     0.001787  d :     0.015498
      dxz     :     0.003655
      dyz     :     0.005176
      dx2y2   :     0.001727
      dxy     :     0.003153

 14 O s       :     3.781598  s :     3.781598
      pz      :     1.237115  p :     4.598245
      px      :     1.485775
      py      :     1.875354
      dz2     :     0.002422  d :     0.015792
      dxz     :     0.006650
      dyz     :     0.001584
      dx2y2   :     0.003882
      dxy     :     0.001255

 15 O s       :     3.783004  s :     3.783004
      pz      :     1.453249  p :     4.626590
      px      :     1.459887
      py      :     1.713453
      dz2     :     0.002751  d :     0.015540
      dxz     :     0.002939
      dyz     :     0.003244
      dx2y2   :     0.004911
      dxy     :     0.001696

 16 O s       :     3.787318  s :     3.787318
      pz      :     1.239848  p :     4.622903
      px      :     1.608996
      py      :     1.774059
      dz2     :     0.002386  d :     0.015295
      dxz     :     0.004662
      dyz     :     0.003483
      dx2y2   :     0.001255
      dxy     :     0.003508

 17 H s       :     0.914125  s :     0.914125

 18 H s       :     0.908206  s :     0.908206

 19 H s       :     0.686356  s :     0.686356

 20 H s       :     0.695193  s :     0.695193

 21 H s       :     0.697864  s :     0.697864

 22 H s       :     0.713316  s :     0.713316

 23 H s       :     0.684805  s :     0.684805


------------------------
MULLIKEN OVERLAP CHARGES
------------------------
B(  0-C ,  1-C ) :   0.4569 B(  0-C , 11-O ) :  -0.1229 B(  0-C , 16-O ) :   0.6064 
B(  0-C , 17-H ) :   0.6621 B(  0-C , 18-H ) :   0.6697 B(  1-C ,  2-H ) :   0.5895 
B(  1-C ,  3-C ) :   0.3740 B(  1-C ,  4-H ) :  -0.0879 B(  1-C ,  7-C ) :  -0.1512 
B(  1-C ,  9-C ) :  -0.0714 B(  1-C , 11-O ) :   0.5913 B(  1-C , 15-O ) :  -0.1284 
B(  1-C , 16-O ) :  -0.1431 B(  2-H , 11-O ) :  -0.0536 B(  3-C ,  4-H ) :   0.6247 
B(  3-C ,  5-C ) :   0.1615 B(  3-C ,  6-H ) :  -0.1212 B(  3-C ,  7-C ) :   0.1138 
B(  3-C ,  9-C ) :  -0.1291 B(  3-C , 11-O ) :  -0.0725 B(  3-C , 14-O ) :  -0.1044 
B(  3-C , 15-O ) :   0.6004 B(  3-C , 22-H ) :  -0.1032 B(  5-C ,  6-H ) :   0.7172 
B(  5-C ,  7-C ) :   0.1596 B(  5-C ,  8-H ) :  -0.1311 B(  5-C ,  9-C ) :   0.0870 
B(  5-C , 11-O ) :  -0.0735 B(  5-C , 13-O ) :  -0.1431 B(  5-C , 14-O ) :   0.5211 
B(  5-C , 21-H ) :  -0.0747 B(  6-H ,  7-C ) :  -0.0981 B(  7-C ,  8-H ) :   0.6786 
B(  7-C ,  9-C ) :   0.5117 B(  7-C , 10-H ) :  -0.1315 B(  7-C , 12-O ) :  -0.1220 
B(  7-C , 13-O ) :   0.5588 B(  7-C , 20-H ) :  -0.1077 B(  8-H , 13-O ) :  -0.0539 
B(  9-C , 10-H ) :   0.7211 B(  9-C , 11-O ) :   0.5311 B(  9-C , 12-O ) :   0.7420 
B(  9-C , 19-H ) :  -0.0801 B( 10-H , 11-O ) :  -0.0752 B( 10-H , 12-O ) :  -0.0583 
B( 11-O , 12-O ) :  -0.1191 B( 11-O , 20-H ) :   0.0720 B( 12-O , 19-H ) :   0.5104 
B( 13-O , 20-H ) :   0.5146 B( 13-O , 22-H ) :   0.0960 B( 14-O , 19-H ) :   0.0707 
B( 14-O , 21-H ) :   0.5074 B( 15-O , 22-H ) :   0.5265 B( 16-O , 17-H ) :  -0.0610 
B( 16-O , 18-H ) :  -0.0595 B( 16-O , 19-H ) :   0.1343 B( 16-O , 23-H ) :   0.5072 
B( 17-H , 18-H ) :  -0.0785 


                     *******************************
                     * LOEWDIN POPULATION ANALYSIS *
                     *******************************

----------------------
LOEWDIN ATOMIC CHARGES
----------------------
   0 C :   -0.136461
   1 C :   -0.075418
   2 H :    0.127603
   3 C :   -0.059640
   4 H :    0.125767
   5 C :   -0.081615
   6 H :    0.105665
   7 C :   -0.097625
   8 H :    0.108828
   9 C :   -0.013840
  10 H :    0.106365
  11 O :   -0.152766
  12 O :   -0.310352
  13 O :   -0.314038
  14 O :   -0.302225
  15 O :   -0.318725
  16 O :   -0.318202
  17 H :    0.108516
  18 H :    0.108147
  19 H :    0.263898
  20 H :    0.277129
  21 H :    0.286250
  22 H :    0.267412
  23 H :    0.295325

-------------------------------
LOEWDIN REDUCED ORBITAL CHARGES
-------------------------------
  0 C s       :     2.928246  s :     2.928246
      pz      :     0.864550  p :     3.067366
      px      :     1.094542
      py      :     1.108274
      dz2     :     0.044682  d :     0.140849
      dxz     :     0.032340
      dyz     :     0.029508
      dx2y2   :     0.023451
      dxy     :     0.010869

  1 C s       :     2.903980  s :     2.903980
      pz      :     1.102560  p :     3.020935
      px      :     0.913384
      py      :     1.004992
      dz2     :     0.023741  d :     0.150503
      dxz     :     0.033560
      dyz     :     0.014651
      dx2y2   :     0.037010
      dxy     :     0.041541

  2 H s       :     0.872397  s :     0.872397

  3 C s       :     2.888780  s :     2.888780
      pz      :     0.936934  p :     3.016168
      px      :     1.082844
      py      :     0.996389
      dz2     :     0.031216  d :     0.154693
      dxz     :     0.035232
      dyz     :     0.037853
      dx2y2   :     0.033800
      dxy     :     0.016592

  4 H s       :     0.874233  s :     0.874233

  5 C s       :     2.897651  s :     2.897651
      pz      :     0.872958  p :     3.024322
      px      :     1.069658
      py      :     1.081705
      dz2     :     0.044137  d :     0.159642
      dxz     :     0.038534
      dyz     :     0.031268
      dx2y2   :     0.023605
      dxy     :     0.022099

  6 H s       :     0.894335  s :     0.894335

  7 C s       :     2.906351  s :     2.906351
      pz      :     0.899649  p :     3.036203
      px      :     1.058507
      py      :     1.078047
      dz2     :     0.038193  d :     0.155071
      dxz     :     0.045727
      dyz     :     0.026631
      dx2y2   :     0.023421
      dxy     :     0.021099

  8 H s       :     0.891172  s :     0.891172

  9 C s       :     2.876931  s :     2.876931
      pz      :     0.889772  p :     2.903499
      px      :     0.954729
      py      :     1.058998
      dz2     :     0.065120  d :     0.233410
      dxz     :     0.062458
      dyz     :     0.040263
      dx2y2   :     0.027851
      dxy     :     0.037717

 10 H s       :     0.893635  s :     0.893635

 11 O s       :     3.476298  s :     3.476298
      pz      :     1.619838  p :     4.646861
      px      :     1.352431
      py      :     1.674592
      dz2     :     0.004857  d :     0.029607
      dxz     :     0.009151
      dyz     :     0.002948
      dx2y2   :     0.004787
      dxy     :     0.007864

 12 O s       :     3.514722  s :     3.514722
      pz      :     1.457329  p :     4.768335
      px      :     1.571250
      py      :     1.739756
      dz2     :     0.007935  d :     0.027294
      dxz     :     0.003744
      dyz     :     0.006775
      dx2y2   :     0.002274
      dxy     :     0.006566

 13 O s       :     3.533476  s :     3.533476
      pz      :     1.299143  p :     4.753629
      px      :     1.794745
      py      :     1.659742
      dz2     :     0.004433  d :     0.026933
      dxz     :     0.006614
      dyz     :     0.009785
      dx2y2   :     0.002005
      dxy     :     0.004097

 14 O s       :     3.534910  s :     3.534910
      pz      :     1.309473  p :     4.739505
      px      :     1.552982
      py      :     1.877049
      dz2     :     0.005900  d :     0.027810
      dxz     :     0.012114
      dyz     :     0.002894
      dx2y2   :     0.005539
      dxy     :     0.001364

 15 O s       :     3.531008  s :     3.531008
      pz      :     1.503530  p :     4.760659
      px      :     1.518718
      py      :     1.738411
      dz2     :     0.005197  d :     0.027058
      dxz     :     0.005283
      dyz     :     0.006242
      dx2y2   :     0.008052
      dxy     :     0.002285

 16 O s       :     3.534399  s :     3.534399
      pz      :     1.313770  p :     4.757057
      px      :     1.648388
      py      :     1.794898
      dz2     :     0.005858  d :     0.026746
      dxz     :     0.008511
      dyz     :     0.005981
      dx2y2   :     0.001494
      dxy     :     0.004902

 17 H s       :     0.891484  s :     0.891484

 18 H s       :     0.891853  s :     0.891853

 19 H s       :     0.736102  s :     0.736102

 20 H s       :     0.722871  s :     0.722871

 21 H s       :     0.713750  s :     0.713750

 22 H s       :     0.732588  s :     0.732588

 23 H s       :     0.704675  s :     0.704675


---------------------------------
LOEWDIN BOND ORDERS (THRESH 0.050000)
---------------------------------
B(  0-C ,  1-C ) :   1.0724 B(  0-C ,  3-C ) :   0.0563 B(  0-C , 11-O ) :   0.0647 
B(  0-C , 16-O ) :   1.2059 B(  0-C , 17-H ) :   0.9053 B(  0-C , 18-H ) :   0.9056 
B(  1-C ,  2-H ) :   0.8669 B(  1-C ,  3-C ) :   1.0120 B(  1-C ,  9-C ) :   0.0601 
B(  1-C , 11-O ) :   1.1381 B(  1-C , 15-O ) :   0.0828 B(  1-C , 16-O ) :   0.0536 
B(  3-C ,  4-H ) :   0.8694 B(  3-C ,  5-C ) :   1.0152 B(  3-C ,  7-C ) :   0.0521 
B(  3-C , 11-O ) :   0.0526 B(  3-C , 14-O ) :   0.0579 B(  3-C , 15-O ) :   1.2251 
B(  5-C ,  6-H ) :   0.8667 B(  5-C ,  7-C ) :   1.0196 B(  5-C ,  9-C ) :   0.0537 
B(  5-C , 13-O ) :   0.0784 B(  5-C , 14-O ) :   1.2189 B(  5-C , 15-O ) :   0.0764 
B(  7-C ,  8-H ) :   0.8752 B(  7-C ,  9-C ) :   1.0127 B(  7-C , 11-O ) :   0.0671 
B(  7-C , 12-O ) :   0.0837 B(  7-C , 13-O ) :   1.2013 B(  7-C , 14-O ) :   0.0772 
B(  9-C , 10-H ) :   0.8832 B(  9-C , 11-O ) :   1.1556 B(  9-C , 12-O ) :   1.3343 
B(  9-C , 13-O ) :   0.0694 B( 11-O , 12-O ) :   0.0876 B( 12-O , 19-H ) :   0.8102 
B( 13-O , 20-H ) :   0.8587 B( 13-O , 22-H ) :   0.0691 B( 14-O , 21-H ) :   0.8761 
B( 15-O , 22-H ) :   0.8608 B( 16-O , 19-H ) :   0.1037 B( 16-O , 23-H ) :   0.8787 


------------------------------------------
LOEWDIN REDUCED ORBITAL POPULATIONS PER MO
-------------------------------------------
THRESHOLD FOR PRINTING IS 0.1%%
                      0         1         2         3         4         5   
                 -18.77468 -18.77251 -18.76541 -18.75913 -18.74133 -18.74112
                   2.00000   2.00000   2.00000   2.00000   2.00000   2.00000
                  --------  --------  --------  --------  --------  --------
11 O  s               0.0      99.9       0.0       0.0       0.0       0.0
12 O  s               0.0       0.0       0.0       0.0       0.5      99.4
13 O  s               0.0       0.0      99.9       0.0       0.0       0.0
14 O  s               0.0       0.0       0.0      99.9       0.0       0.0
15 O  s               0.0       0.0       0.0       0.0      99.4       0.5
16 O  s              99.9       0.0       0.0       0.0       0.0       0.0

                      6         7         8         9        10        11   
                  -9.98337  -9.94921  -9.94589  -9.94443  -9.94351  -9.94285
                   2.00000   2.00000   2.00000   2.00000   2.00000   2.00000
                  --------  --------  --------  --------  --------  --------
 0 C  s               0.0       0.0      99.6       0.0       0.0       0.0
 1 C  s               0.0      99.6       0.0       0.0       0.0       0.0
 3 C  s               0.0       0.0       0.0       0.1      99.3       0.2
 5 C  s               0.0       0.0       0.0      99.4       0.1       0.1
 7 C  s               0.0       0.0       0.0       0.0       0.2      99.4
 9 C  s              99.6       0.0       0.0       0.0       0.0       0.0
12 O  pz              0.1       0.0       0.0       0.0       0.0       0.0
14 O  pz              0.0       0.0       0.0       0.1       0.0       0.0
16 O  pz              0.0       0.0       0.1       0.0       0.0       0.0

                     12        13        14        15        16        17   
                  -0.98439  -0.94864  -0.94109  -0.93486  -0.92183  -0.90316
                   2.00000   2.00000   2.00000   2.00000   2.00000   2.00000
                  --------  --------  --------  --------  --------  --------
 0 C  s               1.2       8.1       0.2       0.6       0.0       0.2
 0 C  pz              0.1       7.3       0.6       0.6       0.1       0.2
 0 C  px              0.5       0.2       0.0       0.0       0.1       0.2
 0 C  py              0.1       0.1       0.0       0.0       0.0       0.0
 0 C  dz2             0.0       0.7       0.0       0.1       0.0       0.0
 1 C  s               5.1       0.2       0.4       0.0       1.5       3.0
 1 C  pz              0.0       0.6       0.1       0.0       0.0       0.0
 1 C  px              2.7       0.6       0.8       0.1       0.2       1.6
 1 C  py              0.8       0.1       1.1       0.0       0.7       1.4
 1 C  dxy             0.2       0.0       0.1       0.0       0.0       0.2
 2 H  s               0.6       0.0       0.0       0.0       0.4       0.4
 3 C  s               1.4       0.1       1.8       0.0       8.7       0.1
 3 C  pz              0.1       0.1       0.1       0.5       6.0       0.5
 3 C  px              0.2       0.1       0.5       0.0       0.1       0.0
 3 C  py              0.3       0.1       0.5       0.0       1.6       1.1
 3 C  dz2             0.0       0.0       0.0       0.0       0.2       0.0
 3 C  dyz             0.0       0.0       0.0       0.0       0.4       0.1
 4 H  s               0.2       0.0       0.4       0.0       1.0       0.0
 5 C  s               1.6       0.3       7.7       2.0       0.0       0.1
 5 C  pz              0.0       0.0       3.0       5.2       1.5       0.5
 5 C  px              0.0       0.1       0.1       0.5       0.9       0.0
 5 C  py              0.4       0.0       0.2       0.0       0.1       0.0
 5 C  dz2             0.0       0.0       0.4       0.3       0.0       0.0
 6 H  s               0.2       0.1       1.1       0.1       0.0       0.0
 7 C  s               4.1       1.7       1.9       2.3       1.3       0.2
 7 C  pz              0.7       1.1       0.4       6.4       0.6       0.0
 7 C  px              0.5       0.0       0.0       1.0       0.1       0.0
 7 C  py              0.5       0.0       1.5       0.2       0.0       0.1
 7 C  dz2             0.0       0.1       0.1       0.4       0.1       0.0
 8 H  s               0.5       0.2       0.3       0.2       0.2       0.0
 9 C  s              12.8       0.2       2.1       0.6       0.3       1.2
 9 C  pz              0.1       0.1       0.0       1.1       0.6      13.0
 9 C  px              2.9       0.0       1.4       0.6       0.1       0.4
 9 C  py              0.1       0.2       0.8       0.7       0.0       0.5
 9 C  dz2             0.1       0.0       0.1       0.1       0.0       0.3
 9 C  dxz             0.1       0.0       0.0       0.0       0.0       0.7
 9 C  dyz             0.0       0.0       0.0       0.0       0.0       0.2
10 H  s               1.6       0.0       0.2       0.0       0.1       0.1
11 O  s              26.6       0.2       8.0       0.5       1.1      18.9
11 O  pz              1.3       0.0       0.3       0.1       0.0       0.1
11 O  px              0.0       0.0       0.0       0.0       0.1       0.3
11 O  py              0.6       0.0       0.1       0.0       0.1       0.6
12 O  s              11.0       0.0       3.6       5.0       2.0      36.8
12 O  pz              0.9       0.0       0.3       0.1       0.0       0.5
12 O  px              0.1       0.0       0.0       0.0       0.0       0.2
12 O  py              0.4       0.0       0.1       0.2       0.1       1.0
13 O  s               6.2       7.9       8.1      28.8       6.9       0.6
13 O  pz              0.1       0.1       0.1       0.1       0.1       0.0
13 O  px              0.2       0.2       0.2       0.6       0.1       0.0
13 O  py              0.3       0.3       0.2       0.9       0.2       0.0
14 O  s               1.9       0.2      31.5      21.2       1.7       1.7
14 O  pz              0.1       0.0       0.4       0.2       0.0       0.0
14 O  px              0.1       0.0       1.4       1.0       0.1       0.1
15 O  s               1.0       0.4       4.2       0.6      46.4       4.5
15 O  pz              0.0       0.0       0.1       0.0       0.6       0.0
15 O  px              0.0       0.0       0.1       0.0       1.1       0.1
15 O  py              0.1       0.0       0.1       0.0       1.1       0.1
16 O  s               2.3      50.6       2.8       4.0       0.2       0.0
16 O  pz              0.1       0.5       0.0       0.0       0.0       0.0
16 O  px              0.0       1.3       0.1       0.2       0.0       0.0
16 O  py              0.0       0.9       0.0       0.1       0.0       0.0
17 H  s               0.1       0.9       0.0       0.1       0.0       0.0
18 H  s               0.2       0.9       0.0       0.1       0.0       0.0
19 H  s               3.0       0.5       0.3       1.0       0.5       6.5
20 H  s               2.0       1.7       1.4       5.7       1.2       0.1
21 H  s               0.4       0.0       6.4       4.3       0.4       0.3
22 H  s               0.4       0.2       1.2       0.4       8.7       1.0
23 H  s               0.4      10.3       0.6       0.9       0.0       0.0

                     18        19        20        21        22        23   
                  -0.70549  -0.68734  -0.62484  -0.59387  -0.57155  -0.52220
                   2.00000   2.00000   2.00000   2.00000   2.00000   2.00000
                  --------  --------  --------  --------  --------  --------
 0 C  s               9.0       1.5      15.0       0.3       5.5       0.1
 0 C  pz              3.3       0.5       0.9       0.1       0.3       2.3
 0 C  px              1.0       0.1       0.2       0.2       0.4       0.1
 0 C  py              0.7       0.0       0.0       0.5       1.0       0.1
 0 C  dxz             0.0       0.0       0.0       0.0       0.0       0.1
 1 C  s              18.3       1.8       0.1       0.4       5.1       2.5
 1 C  pz              0.8       0.2       0.7       1.6       2.2       3.0
 1 C  px              1.9       0.3       5.5       1.1       0.1       0.2
 1 C  py              0.6       1.7       1.6       4.8       3.8       0.7
 1 C  dxy             0.1       0.0       0.1       0.1       0.0       0.0
 2 H  s               3.8       0.7       0.0       0.3       3.0       2.9
 3 C  s               8.8       2.6       4.6       7.6       1.4       1.5
 3 C  pz              0.8       2.0       1.0       0.7       3.1       0.1
 3 C  px              0.1       2.1       0.4       2.0       3.8       1.3
 3 C  py              3.8       0.1       0.0       0.1       2.7       0.8
 3 C  dyz             0.1       0.0       0.0       0.0       0.0       0.1
 3 C  dx2y2           0.0       0.1       0.0       0.0       0.1       0.0
 4 H  s               2.2       0.4       1.1       4.2       0.3       1.4
 5 C  s               2.8      12.9       2.2       0.6       7.2       1.8
 5 C  pz              1.0       2.8       0.4       0.0       0.1       1.1
 5 C  px              0.7       0.5       3.2       7.9       0.2       0.1
 5 C  py              0.1       0.8       0.4       0.1       1.8       0.2
 5 C  dz2             0.0       0.1       0.0       0.0       0.0       0.0
 6 H  s               0.4       2.4       0.6       0.4       3.3       0.5
 7 C  s               0.1      14.6       4.6       5.6       2.3       0.8
 7 C  pz              0.1       1.8       0.4       0.9       0.1       1.0
 7 C  px              0.2       2.1       0.5       0.2       1.4       0.7
 7 C  py              1.1       0.0       2.5       4.3       2.9       0.7
 7 C  dz2             0.0       0.2       0.0       0.0       0.0       0.0
 8 H  s               0.0       3.0       1.8       2.7       1.5       0.3
 9 C  s               2.5       4.9       5.9       5.9       0.8       1.6
 9 C  pz              1.9       0.2       0.0       1.5       0.5       3.5
 9 C  px              0.1       0.9       2.2       0.2       2.9       2.7
 9 C  py              0.3       3.1       0.4       2.5       1.2       1.2
 9 C  dxz             0.1       0.0       0.0       0.0       0.0       0.1
10 H  s               0.8       1.0       2.2       3.5       0.4       1.7
11 O  s               2.6       0.5       1.0       0.5       1.0       0.6
11 O  pz              0.3       0.5       0.6       1.4       0.4       0.7
11 O  px              6.3       3.0       1.2      10.4       1.0       3.2
11 O  py              0.9       0.0       0.3       0.9       1.5       0.2
12 O  s               0.5       1.8       1.2       0.6       0.1       0.0
12 O  pz              0.4       0.7       1.9       3.1       0.2       6.9
12 O  px              0.1       0.6       1.5       1.3       1.0       8.8
12 O  py              0.0       0.0       0.0       0.2       0.1       0.2
13 O  s               0.0       4.6       0.8       0.2       0.2       0.0
13 O  pz              0.1       4.5       1.9       5.6       1.9       7.4
13 O  px              0.0       0.0       0.0       0.0       0.1       0.1
13 O  py              0.0       0.2       0.0       1.2       0.1       0.3
14 O  s               0.9       3.6       0.2       0.3       0.5       0.1
14 O  pz              0.9       3.8       1.7       0.0       8.0       6.6
14 O  px              0.2       0.3       0.6       0.5       0.8       0.4
14 O  py              0.0       0.0       0.0       0.0       0.3       0.4
15 O  s               3.4       1.0       1.5       0.6       0.1       0.0
15 O  pz              1.0       0.6       1.5       3.1       0.6       3.3
15 O  px              0.7       0.1       0.4       2.1       2.0       2.5
15 O  py              0.4       0.0       0.2       0.4       1.0       0.2
16 O  s               2.0       0.2       1.6       0.1       0.7       0.0
16 O  pz              2.9       0.4       7.7       0.7       6.8       5.8
16 O  px              0.4       0.1       0.1       0.0       0.3       2.7
16 O  py              0.2       0.0       0.1       0.2       0.0       0.4
17 H  s               2.0       0.3       4.5       0.3       1.6       0.0
18 H  s               1.6       0.4       4.0       0.0       2.5       0.0
19 H  s               0.2       0.8       1.4       1.4       0.2       4.8
20 H  s               0.0       2.4       0.7       2.1       0.4       2.0
21 H  s               0.6       2.1       0.8       0.0       2.7       1.9
22 H  s               1.4       0.5       0.8       1.7       1.1       1.8
23 H  s               1.7       0.2       2.2       0.2       2.1       2.8

                     24        25        26        27        28        29   
                  -0.50950  -0.48251  -0.47477  -0.46458  -0.44597  -0.43092
                   2.00000   2.00000   2.00000   2.00000   2.00000   2.00000
                  --------  --------  --------  --------  --------  --------
 0 C  s               0.5       1.8       0.0       0.1       0.4       0.0
 0 C  pz              1.4       5.0       0.9       3.0       0.2       1.0
 0 C  px              2.6       9.1       0.0       0.0       0.2       0.5
 0 C  py              1.6       2.7       0.0       3.3       7.0       0.7
 0 C  dz2             0.0       0.2       0.0       0.0       0.1       0.0
 1 C  s               0.3       0.2       0.0       1.5       0.7       0.0
 1 C  pz              1.8       0.9       0.3       0.5       4.0       3.5
 1 C  px              0.9       0.9       1.0       3.7       4.2       1.2
 1 C  py              1.3       0.3       0.5       3.5       1.2       0.1
 1 C  dz2             0.0       0.0       0.0       0.0       0.2       0.0
 1 C  dxy             0.0       0.1       0.0       0.2       0.0       0.0
 2 H  s               0.1       0.2       0.3       0.8       4.6       0.4
 3 C  s               0.5       0.0       0.2       0.1       0.6       0.2
 3 C  pz              0.2       0.6       0.4       0.9       2.0       0.8
 3 C  px              0.6       0.3       4.6       0.0       1.1       5.5
 3 C  py              6.9       0.0       0.8       7.1       0.0       0.1
 3 C  dz2             0.0       0.0       0.1       0.1       0.0       0.0
 3 C  dyz             0.0       0.0       0.0       0.2       0.0       0.1
 4 H  s               0.9       0.2       0.9       0.1       0.2       0.2
 5 C  s               0.3       0.0       0.6       0.0       1.5       0.0
 5 C  pz              0.1       0.6      11.4       0.2       0.6       2.7
 5 C  px              0.4       0.3       3.3       0.2       8.0       5.4
 5 C  py              7.1       0.8       0.5       0.0       4.2       2.1
 5 C  dz2             0.0       0.0       0.1       0.0       0.0       0.0
 5 C  dxz             0.0       0.0       0.3       0.0       0.0       0.0
 6 H  s               2.6       0.0       2.1       0.0       5.0       0.3
 7 C  s               0.0       0.1       0.6       0.4       0.1       0.1
 7 C  pz              0.4       0.2       0.0       5.3       3.1       6.4
 7 C  px              4.6       4.9       5.9       0.0       0.1       0.1
 7 C  py              4.8       0.8       2.8       3.0       0.6       3.5
 7 C  dyz             0.0       0.1       0.0       0.1       0.2       0.0
 8 H  s               0.5       0.4       1.6       1.3       0.9       1.1
 9 C  s               0.1       0.0       0.1       0.1       0.1       0.2
 9 C  pz              0.1       2.3       1.3       2.7       4.0       2.1
 9 C  px              0.1       0.4       1.0       1.7       1.4      14.2
 9 C  py              8.1       4.9       0.8       3.3       1.2       0.1
 9 C  dyz             0.0       0.0       0.1       0.0       0.1       0.0
10 H  s               0.4       0.6       0.1       0.2       1.9       5.1
11 O  s               1.8       0.1       0.3       0.3       0.4       0.1
11 O  pz              0.4       0.0       0.6       2.4       3.2      10.6
11 O  px              0.2       3.8       0.0       6.5       4.4       0.2
11 O  py              3.4       0.3       0.3       1.0       1.2       1.1
12 O  s               0.6       0.0       0.0       0.0       0.3       1.2
12 O  pz              1.0       5.7       3.9       0.0       3.9       6.3
12 O  px              1.4       4.2       2.0       1.1       1.0       0.2
12 O  py              1.6       0.7       0.2       0.7       0.3       0.8
13 O  s               0.5       0.7       0.0       0.1       0.3       1.4
13 O  pz              5.6       3.2       2.0       9.2       4.7       4.0
13 O  px              1.1       1.5       1.7       0.0       0.0       0.7
13 O  py              1.8       1.6       0.7       3.6       0.6       1.4
14 O  s               0.0       0.1       0.5       0.2       1.3       0.6
14 O  pz              0.5       0.8      20.4       0.0       0.4       2.1
14 O  px              0.4       0.8       8.0       0.5       2.9       1.5
14 O  py              1.3       0.3       0.0       0.0       0.7       0.3
14 O  dxz             0.0       0.0       0.1       0.0       0.0       0.0
15 O  s               0.0       0.1       1.3       0.2       0.0       0.9
15 O  pz              6.1       0.4       0.2       8.1       0.0       0.0
15 O  px              3.6       0.1       1.7       6.4       0.5       4.2
15 O  py              0.1       0.3       0.4       0.1       0.2       0.0
16 O  s               0.4       1.4       0.0       0.0       0.8       0.0
16 O  pz              2.5       9.1       1.4       5.1       1.1       1.9
16 O  px              3.6       4.7       0.1       0.2       1.3       0.0
16 O  py              1.1       2.7       0.0       0.2       2.0       0.0
17 H  s               1.3       5.4       0.1       0.4       0.0       0.0
18 H  s               1.6       3.8       0.1       0.8       4.0       0.2
19 H  s               1.2       2.1       1.9       0.2       1.1       0.5
20 H  s               2.0       1.5       0.2       3.4       2.1       0.2
21 H  s               0.3       0.4       8.1       0.0       0.1       0.1
22 H  s               2.8       0.2       0.2       3.8       0.1       0.4
23 H  s               1.8       4.3       0.2       1.1       1.0       0.5

                     30        31        32        33        34        35   
                  -0.42464  -0.41166  -0.39347  -0.37753  -0.36085  -0.35044
                   2.00000   2.00000   2.00000   2.00000   2.00000   2.00000
                  --------  --------  --------  --------  --------  --------
 0 C  s               0.1       0.0       0.0       0.0       0.1       0.2
 0 C  pz              5.1       0.6       1.4       1.3       0.8       1.3
 0 C  px             21.3       1.9       0.2       0.0       1.0       0.2
 0 C  py              5.1       4.9      11.5       0.7       2.0       3.7
 0 C  dz2             0.0       0.1       0.0       0.0       0.0       0.2
 0 C  dx2y2           0.0       0.0       0.1       0.0       0.1       0.1
 0 C  dxy             0.1       0.0       0.0       0.0       0.0       0.0
 1 C  s               0.7       0.2       0.0       0.7       0.0       0.3
 1 C  pz              2.7       3.4       0.1       1.0       0.0      17.2
 1 C  px              2.7       0.1       1.9       2.5       0.0       1.8
 1 C  py              4.9       0.5       5.0       2.8       0.0       0.7
 1 C  dz2             0.0       0.0       0.0       0.0       0.0       0.3
 1 C  dxz             0.0       0.1       0.0       0.0       0.0       0.2
 1 C  dyz             0.1       0.1       0.0       0.0       0.1       0.0
 1 C  dx2y2           0.0       0.0       0.3       0.0       0.0       0.0
 1 C  dxy             0.1       0.1       0.1       0.0       0.1       0.0
 2 H  s               0.0       2.6       0.4       0.4       0.0      11.2
 3 C  s               0.0       1.1       2.0       0.0       0.2       0.1
 3 C  pz              0.9      13.6       0.0       0.5       4.4       1.6
 3 C  px              0.1       1.5       0.1       0.8      15.1       0.6
 3 C  py              1.3       0.7       6.4       1.8       0.2       0.8
 3 C  dz2             0.0       0.1       0.0       0.0       0.1       0.0
 3 C  dxz             0.0       0.1       0.0       0.0       0.0       0.0
 3 C  dyz             0.0       0.1       0.1       0.1       0.1       0.3
 3 C  dx2y2           0.0       0.1       0.0       0.2       0.1       0.1
 3 C  dxy             0.0       0.0       0.0       0.0       0.2       0.0
 4 H  s               0.1       7.8       0.1       0.1       9.8       2.2
 5 C  s               0.2       0.2       0.0       0.0       0.0       0.1
 5 C  pz              0.9       1.1       0.1       2.9       0.6       0.5
 5 C  px              0.0       0.8       0.0       0.0       2.4       0.9
 5 C  py              2.2       0.8       3.5      17.5       0.7       0.9
 5 C  dz2             0.1       0.3       0.0       0.0       0.0       0.1
 5 C  dxz             0.0       0.2       0.1       0.0       0.1       0.0
 5 C  dx2y2           0.0       0.1       0.1       0.1       0.0       0.0
 5 C  dxy             0.0       0.0       0.0       0.1       0.0       0.0
 6 H  s               1.6       0.2       2.0       7.0       0.1       0.3
 7 C  s               0.0       0.4       0.1       0.2       0.2       0.0
 7 C  pz              0.0       4.5       5.7       0.5       1.8       0.4
 7 C  px              0.1       4.4       4.3       4.0       6.7       0.2
 7 C  py              0.8       0.5       2.1       2.7       0.4       0.3
 7 C  dxz             0.0       0.2       0.1       0.0       0.1       0.0
 7 C  dx2y2           0.0       0.0       0.2       0.0       0.0       0.0
 7 C  dxy             0.0       0.0       0.0       0.1       0.0       0.1
 8 H  s               0.0       5.8       6.2       0.2       4.0       0.3
 9 C  s               0.7       0.3       0.5       0.2       0.1       0.4
 9 C  pz              1.0       0.2       0.8       0.0       0.1       1.6
 9 C  px              0.7       0.5       0.6       0.6       0.1       4.3
 9 C  py              0.0       0.3       5.4       2.4       0.0       2.2
 9 C  dz2             0.1       0.0       0.0       0.0       0.0       0.2
 9 C  dx2y2           0.0       0.0       0.0       0.1       0.1       0.0
 9 C  dxy             0.0       0.0       0.0       0.0       0.0       0.1
10 H  s               1.6       0.1       1.6       0.7       0.0       4.0
11 O  s               1.2       1.2       0.2       1.4       0.2       0.1
11 O  pz              2.6       0.4       0.6       5.7       2.6       1.5
11 O  px              0.2       0.9       0.9       0.1       0.0       2.6
11 O  py              1.4       0.2       1.2       9.7       0.0       0.6
12 O  s               0.9       0.1       0.2       0.0       0.9       1.7
12 O  pz              0.2       0.9       1.0       0.0       0.3       5.7
12 O  px              1.9       0.2       0.0       0.7       1.3       1.0
12 O  py              0.1       0.1       2.3       0.2       1.2       8.3
13 O  s               0.1       0.0       0.2       0.0       0.6       0.2
13 O  pz              0.5       3.1       2.4       0.3       1.5       0.1
13 O  px              0.0       0.9       2.1       1.4       7.2       0.4
13 O  py              0.6       0.2       1.0       1.6       0.4       1.8
14 O  s               0.1       0.3       0.1       0.4       0.9       0.2
14 O  pz              1.9       4.7       0.2       0.4       0.2       1.7
14 O  px              0.1       0.1       0.5       1.1       4.3       2.7
14 O  py              0.1       0.0       0.8      13.4       0.1       0.0
15 O  s               0.0       0.0       0.6       0.0       1.1       0.7
15 O  pz              0.2       2.4       1.2       1.1       7.8       0.9
15 O  px              0.1       4.8       1.7       0.0       2.6       1.7
15 O  py              0.8       4.9       2.4       0.1       5.9       0.1
16 O  s               0.5       0.1       0.8       1.1       0.4       0.1
16 O  pz              6.3       1.2       0.5       0.8       0.7       1.5
16 O  px              9.7       1.6       0.0       2.7       0.7       1.4
16 O  py              1.5       1.9       7.0       3.8       2.8       0.8
16 O  dxz             0.1       0.0       0.0       0.0       0.0       0.0
17 H  s               8.3       2.5       1.6       0.2       2.1       0.6
18 H  s               2.6       1.3       5.3       0.1       0.7       1.0
19 H  s               1.5       0.0       0.0       0.3       0.5       0.1
20 H  s               0.1       0.7       0.4       0.0       0.0       0.1
21 H  s               0.5       1.5       0.0       0.0       0.3       0.0
22 H  s               0.0       2.7       0.7       0.0       0.3       1.0
23 H  s               0.3       0.3       0.0       0.3       0.1       0.6

                     36        37        38        39        40        41   
                  -0.32451  -0.31590  -0.30561  -0.29939  -0.29058  -0.28148
                   2.00000   2.00000   2.00000   2.00000   2.00000   2.00000
                  --------  --------  --------  --------  --------  --------
 0 C  s               0.0       0.3       0.1       0.3       0.0       0.1
 0 C  pz              0.1       1.4       0.8       0.9       0.4       0.1
 0 C  px              0.9       2.8       1.0       4.1       0.0       0.6
[...]
 3 C  dxz             0.0       0.2       0.0       0.0       0.1       0.3
 3 C  dyz             0.3       0.5       2.4       0.4       2.2       2.2
 3 C  dx2y2           0.1       0.0       0.4       0.0       0.1       0.5
 3 C  dxy             0.1       0.0       0.0       0.0       0.1       0.0
 5 C  s               0.0       1.3       0.2       0.1       0.7       0.2
 5 C  pz              0.0       1.3       0.2       0.3       1.1       0.8
 5 C  px              0.0       0.1       0.1       0.0       0.1       0.0
 5 C  py              0.0       0.0       0.0       0.0       0.2       0.0
 5 C  dz2             0.3       4.8       1.0       0.8       2.0       1.1
 5 C  dxz             0.0       1.7       0.1       0.0       0.6       1.0
 5 C  dyz             0.0       0.0       0.2       0.1       0.5       0.2
 7 C  s               0.0       0.8       0.5       0.3       0.2       0.1
 7 C  pz              0.0       0.9       0.5       0.6       0.5       0.1
 7 C  px              0.0       0.2       0.1       0.1       0.1       0.1
 7 C  py              0.0       0.2       0.0       0.2       0.0       0.1
 7 C  dz2             0.0       3.5       1.3       2.1       0.8       0.1
 7 C  dxz             0.0       2.2       0.5       0.1       0.2       0.0
 7 C  dyz             0.0       0.4       1.7       0.2       0.2       0.8
 7 C  dx2y2           0.0       0.1       0.0       0.0       0.1       0.0
 9 C  s               0.1       0.1       1.1       3.3       0.5       0.0
 9 C  pz              0.0       0.1       0.8       0.7       0.9       2.0
 9 C  px              0.0       0.0       0.1       0.8       0.6       0.3
 9 C  py              0.0       0.0       0.1       0.5       0.1       0.0
 9 C  dz2             0.1       0.3       0.5       6.3       0.2       0.4
 9 C  dxz             0.3       0.1       0.5       0.3       2.2       4.7
 9 C  dyz             0.1       0.5       2.5       1.2       0.0       0.8
 9 C  dx2y2           0.0       0.1       0.0       0.2       0.5       1.0
 9 C  dxy             0.0       0.1       0.1       0.0       0.0       0.0
10 H  s               0.0       0.0       0.0       0.2       0.0       0.0
11 O  s               0.6       0.1       0.3       0.0       0.0       0.0
11 O  pz              0.1       0.0       0.0       0.0       0.4       0.4
11 O  px              0.0       0.0       0.2       1.1       2.2       2.1
11 O  py              0.0       0.0       0.1       0.0       0.2       0.2
11 O  dz2             0.1       0.2       0.5       0.2       6.0       5.7
11 O  dxz             0.5       0.2       0.0       7.1      11.9      15.6
11 O  dx2y2           1.8       0.9       0.4       2.5       0.1       0.4
11 O  dxy             0.5       0.9       4.8       4.3      11.0       4.6
12 O  s               0.0       0.0       0.7       2.4       0.0       0.7
12 O  pz              0.0       0.1       1.1       1.8       0.2       0.8
12 O  px              0.0       0.0       0.2       0.7       0.0       0.1
12 O  py              0.0       0.0       0.0       0.2       0.0       0.0
12 O  dz2             0.2       1.2      13.7      12.1       1.2       9.3
12 O  dxz             0.1       0.0       1.6       5.3       0.2       0.3
12 O  dyz             0.0       0.1       3.2      14.0       0.7       3.5
12 O  dx2y2           0.0       0.0       0.0       0.3       0.2       0.1
12 O  dxy             0.0       0.2       0.3       3.0       0.0       0.2
13 O  s               0.0       1.3       1.0       0.8       0.7       0.1
13 O  pz              0.0       1.9       0.7       0.8       0.4       0.2
13 O  dz2             0.0      15.9       8.3       4.2       2.3       1.3
13 O  dxz             0.0       3.7       2.9       3.8       2.2       0.7
13 O  dyz             0.2       7.8       0.9       2.6       1.1       0.0
13 O  dx2y2           0.0       0.0       0.1       0.0       0.0       0.3
13 O  dxy             0.0       0.2       0.0       0.1       0.1       0.1
14 O  s               0.0       1.6       0.3       0.3       1.9       1.0
14 O  pz              0.0       2.1       0.3       0.4       1.4       0.8
14 O  dz2             0.2      22.3       2.1       2.5      13.5       7.9
14 O  dxz             0.5       5.4       2.6       1.7       2.9       1.0
14 O  dyz             0.1       3.5       0.0       0.0       0.1       0.2
14 O  dx2y2           0.0       0.1       0.0       0.0       0.0       0.0
14 O  dxy             0.0       0.2       0.0       0.0       0.0       0.0
15 O  s               0.2       0.1       1.7       0.3       1.2       1.8
15 O  pz              0.2       0.2       1.0       0.1       0.8       0.9
15 O  px              0.0       0.1       0.2       0.0       0.1       0.0
15 O  py              0.1       0.1       0.4       0.1       0.2       0.3
15 O  dz2             0.9       1.1       5.0       0.5       4.3       4.1
15 O  dxz             0.1       0.2       0.3       0.0       0.1       0.0
15 O  dyz             2.4       3.0      15.3       2.2       8.5      10.1
15 O  dx2y2           0.6       1.1       3.4       0.5       0.8       1.2
15 O  dxy             0.1       0.4       0.3       0.0       0.0       0.0
16 O  s               2.7       0.1       0.1       0.2       0.1       0.0
16 O  pz              4.3       0.1       0.3       0.1       0.1       0.0
16 O  dz2            47.1       0.8       2.5       0.5       0.5       0.1
16 O  dxz             8.4       0.2       0.5       0.0       0.0       0.1
16 O  dyz             7.4       0.1       0.2       0.0       0.0       0.0
19 H  s               0.1       0.0       0.2       0.5       0.1       0.2
20 H  s               0.0       0.4       0.1       0.2       0.1       0.0
21 H  s               0.0       0.3       0.1       0.1       0.2       0.1
22 H  s               0.1       0.1       0.2       0.0       0.2       0.1
23 H  s               0.9       0.0       0.1       0.0       0.0       0.0



                      *****************************
                      * MAYER POPULATION ANALYSIS *
                      *****************************

  NA   - Mulliken gross atomic population
  ZA   - Total nuclear charge
  QA   - Mulliken gross atomic charge
  VA   - Mayer's total valence
  BVA  - Mayer's bonded valence
  FA   - Mayer's free valence

  ATOM       NA         ZA         QA         VA         BVA        FA
  0 C      5.9836     6.0000     0.0164     3.9936     3.9936     0.0000
  1 C      5.9805     6.0000     0.0195     4.0099     4.0099    -0.0000
  2 H      0.9161     1.0000     0.0839     0.9845     0.9845    -0.0000
  3 C      5.9273     6.0000     0.0727     3.9870     3.9870    -0.0000
  4 H      0.9114     1.0000     0.0886     0.9771     0.9771     0.0000
  5 C      5.9777     6.0000     0.0223     4.0163     4.0163     0.0000
  6 H      0.9219     1.0000     0.0781     0.9715     0.9715     0.0000
  7 C      5.9897     6.0000     0.0103     3.9989     3.9989    -0.0000
  8 H      0.9293     1.0000     0.0707     0.9642     0.9642     0.0000
  9 C      5.8380     6.0000     0.1620     4.1836     4.1836    -0.0000
 10 H      0.9254     1.0000     0.0746     0.9637     0.9637     0.0000
 11 O      8.3194     8.0000    -0.3194     2.1548     2.1548    -0.0000
 12 O      8.4116     8.0000    -0.4116     2.0600     2.0600     0.0000
 13 O      8.4221     8.0000    -0.4221     2.0420     2.0420     0.0000
 14 O      8.3956     8.0000    -0.3956     2.0390     2.0390    -0.0000
 15 O      8.4251     8.0000    -0.4251     2.0098     2.0098    -0.0000
 16 O      8.4255     8.0000    -0.4255     2.0572     2.0572     0.0000
 17 H      0.9141     1.0000     0.0859     0.9470     0.9470     0.0000
 18 H      0.9082     1.0000     0.0918     0.9658     0.9658     0.0000
 19 H      0.6864     1.0000     0.3136     0.9715     0.9715    -0.0000
 20 H      0.6952     1.0000     0.3048     0.9156     0.9156     0.0000
 21 H      0.6979     1.0000     0.3021     0.8888     0.8888    -0.0000
 22 H      0.7133     1.0000     0.2867     0.9441     0.9441    -0.0000
 23 H      0.6848     1.0000     0.3152     0.8711     0.8711     0.0000

  Mayer bond orders larger than 0.100000
B(  0-C ,  1-C ) :   1.0715 B(  0-C , 16-O ) :   1.0381 B(  0-C , 17-H ) :   0.9108 
B(  0-C , 18-H ) :   0.9099 B(  1-C ,  2-H ) :   0.8907 B(  1-C ,  3-C ) :   0.9673 
B(  1-C , 11-O ) :   0.9982 B(  3-C ,  4-H ) :   0.8880 B(  3-C ,  5-C ) :   0.9952 
B(  3-C , 15-O ) :   1.0537 B(  5-C ,  6-H ) :   0.8997 B(  5-C ,  7-C ) :   0.9584 
B(  5-C , 14-O ) :   1.0676 B(  7-C ,  8-H ) :   0.8962 B(  7-C ,  9-C ) :   0.9899 
B(  7-C , 13-O ) :   1.0454 B(  9-C , 10-H ) :   0.9114 B(  9-C , 11-O ) :   0.9877 
B(  9-C , 12-O ) :   1.1921 B( 12-O , 19-H ) :   0.7542 B( 13-O , 20-H ) :   0.8134 
B( 14-O , 21-H ) :   0.8389 B( 15-O , 22-H ) :   0.8189 B( 16-O , 19-H ) :   0.1246 
B( 16-O , 23-H ) :   0.8402 

-------
TIMINGS
-------

Total SCF time: 0 days 0 hours 0 min 6 sec 

Total time                  ....       6.537 sec
Sum of individual times     ....       6.502 sec  ( 99.5%)

SCF preparation             ....       0.218 sec  (  3.3%)
Fock matrix formation       ....       6.035 sec  ( 92.3%)
  Startup                   ....       0.008 sec  (  0.1% of F)
  Split-RI-J                ....       3.171 sec  ( 52.5% of F)
  XC integration            ....       2.780 sec  ( 46.1% of F)
    Basis function eval.    ....       1.139 sec  ( 41.0% of XC)
    Density eval.           ....       0.647 sec  ( 23.3% of XC)
    XC-Functional eval.     ....       0.161 sec  (  5.8% of XC)
    XC-Potential eval.      ....       0.670 sec  ( 24.1% of XC)
Diagonalization             ....       0.000 sec  (  0.0%)
Density matrix formation    ....       0.028 sec  (  0.4%)
Total Energy calculation    ....       0.002 sec  (  0.0%)
Population analysis         ....       0.061 sec  (  0.9%)
Orbital Transformation      ....       0.016 sec  (  0.3%)
Orbital Orthonormalization  ....       0.000 sec  (  0.0%)
DIIS solution               ....       0.081 sec  (  1.2%)
  MO trafo                  ....       0.000 sec  (  0.0 % of DIIS)
  Orb grad                  ....       0.000 sec  (  0.0 % of DIIS)
  Energy W gradient         ....       0.000 sec  (  0.0 % of DIIS)
  DIIS error                ....       0.006 sec  (  7.2 % of DIIS)
  DIIS work                 ....       0.065 sec  ( 81.1 % of DIIS)
  Form Q                    ....       0.000 sec  (  0.0 % of DIIS)
  Form QpQm                 ....       0.000 sec  (  0.0 % of DIIS)
  Exp/Cayley                ....       0.000 sec  (  0.0 % of DIIS)
  Orb update                ....       0.000 sec  (  0.0 % of DIIS)
  Wake-sleep                ....       0.001 sec  (  1.4 % of DIIS)
SOSCF solution              ....       0.060 sec  (  0.9%)
  MO trafo                  ....       0.052 sec  ( 86.8 % of SOSCF)
  Orb grad                  ....       0.000 sec  (  0.3 % of SOSCF)
  Rot update                ....       0.002 sec  (  2.6 % of SOSCF)
  Step                      ....       0.006 sec  ( 10.2 % of SOSCF)
Finished LeanSCF after   6.6 sec

Maximum memory used throughout the entire LEANSCF-calculation: 19.5 MB


-------------------------------------------------------------------------------
                          DFT DISPERSION CORRECTION                            
                                                                               
                                DFTD4 V3.4.0                                   
-------------------------------------------------------------------------------
The PBE functional is recognized
Active option DFTDOPT                   ...         5   

-------------------------   ----------------
Dispersion correction           -0.026783236
-------------------------   ----------------

------------------   -----------------
gCP correction             0.162805159
------------------   -----------------

-------------------------   --------------------
FINAL SINGLE POINT ENERGY      -685.691595671036
-------------------------   --------------------


------------------------------------------------------------------------------
                              ORCA PROPERTY CALCULATIONS
------------------------------------------------------------------------------

GBWName                                 ... sp.gbw
Number of atoms                         ...     24
Number of basis functions               ...    192
Max core memory                         ...   1024 MB

Electric properties:
Dipole moment                           ... YES
Quadrupole moment                       ...  NO
Static polarizability (Dipole/Dipole)   ...  NO
Static polarizability (Dipole/Quad.)    ...  NO
Static polarizability (Quad./Quad.)     ...  NO
Static polarizability (Velocity)        ...  NO

Atomic electric properties:
Dipole moment                           ...  NO
Quadrupole moment                       ...  NO
Static polarizability                   ...  NO

Choice of electric origin               ... Center of mass
Position of electric origin             ...    -0.000005    -0.000000     0.000002

General magnetic properties:
Magnetizability                         ...  NO

EPR properties:
g-Tensor (aka g-matrix)                 ...  NO
Zero-Field splitting spin-orbit         ...  NO
Zero-field splitting spin-spin          ...  NO
Hyperfine couplings                     ...  NO (   0 nuclei)
Quadrupole couplings                    ...  NO (   0 nuclei)
Contact density                         ...  NO (   0 nuclei)

NMR properties:
Chemical shifts                         ...  NO (   0 nuclei)
Spin-rotation constants                 ...  NO (   0 nuclei)
Spin-spin couplings                     ...  NO (   0 nuclei,    0 pairs)

Choice of magnetic origin               ... GIAO
Position of magnetic origin             ...     0.000000     0.000000     0.000000

Properties with geometric perturbations:
SCF Hessian                             ...  NO
IR spectrum                             ...  NO
VCD spectrum                            ...  NO
X-ray spectroscopy properties:
SCF XES/XAS/RIXS spectra                ...  NO


-------------
DIPOLE MOMENT
-------------

Method             : SCF
Type of density    : Electron Density
Multiplicity       :   1
Irrep              :   0
Energy             :  -685.8276175947180491 Eh
Relativity type    : 
Basis              : AO
                                X                 Y                 Z
Electronic contribution:      1.951167916      -0.118409358       0.032957124
Nuclear contribution   :     -2.441711928      -0.248323701      -0.472249071
                        -----------------------------------------
Total Dipole Moment    :     -0.490544012      -0.366733059      -0.439291947
                        -----------------------------------------
Magnitude (a.u.)       :      0.753726727
Magnitude (Debye)      :      1.915821088



--------------------
Rotational spectrum 
--------------------
 
Rotational constants in cm-1:             0.039999             0.031928             0.028276 
Rotational constants in MHz :          1199.152609           957.190271           847.687514 

Dipole components along the rotational axes: 
x,y,z [a.u.] :     0.748700     0.048622     0.072033 
x,y,z [Debye]:     1.903043     0.123587     0.183094 

 

Dipole moment calculation done in   0.0 sec 

Maximum memory used throughout the entire PROP-calculation: 12.9 MB

--------------------------------
SUGGESTED CITATIONS FOR THIS RUN
--------------------------------

Below you find a list of papers that are relevant to this ORCA run
We neither can nor want to force you to cite these papers, but we appreciate if you do
You receive ORCA, which is the product of decades of hard work by many enthusiastic individuals, for free
The only thing we kindly ask in return is that you cite our papers,
We deeply appreciate it, if you show your appreciation for ORCA by not just citing the generic ORCA reference.

Please note that relegating all ORCA citations to the supporting information does *not* help us.
SI sections are not indexed - citations you put there will not count into any citation statistics
But we need these citations in order to attract the funding resources that allow us to do what we are doing

Therefore, if you are a happy ORCA user, please consider citing a few of the papers listed below in the main body of your paper

In addition to the list printed below, the program has created the file sp.bibtex that contains the list in bibtex format
You can import this file easily into all common literature databanks and citation aid programs


List of essential papers. We consider these as the minimum necessary citations

  1. Neese,F.
     Software update: the ORCA program system, version 5.0
     WIRES Comput. Molec. Sci., 2022 12(1)e1606
     doi.org/10.1002/wcms.1606

List of papers to cite with high priority. The work reported in these papers was absolutely
necessary for this run to complete.
Our perspective: the developers of density functionals and basis sets usually get cited in chemistry papers
Good! But without the algorithms to do something with them, the functionals or basis sets would not do anything.
Hence, in our opinion, the algorithm design and method developments papers are equally worthy of getting cited

  1. Neese,F.
     An improvement of the resolution of the identity approximation for the formation of the Coulomb matrix
     J. Comp. Chem., 2003 24(14)1740-1747
     doi.org/10.1002/jcc.10318
  2. Neese,F.
     The SHARK Integral Generation and Digestion System
     J. Comp. Chem., 2022  1-16
     doi.org/10.1002/jcc.26942
  3. Caldeweyher,E.; Bannwarth,C.; Grimme,S.
     Extension of the D3 dispersion coefficient model
     J. Chem. Phys., 2017 147 034112
     doi.org/10.1063/1.4993215
  4. Caldeweyher,E.; Ehlert,S.; Hansen,A.; Neugebauer,H.; Spicher,S.; Bannwarth,C.; Grimme,S.
     A generally applicable atomic-charge dependent London dispersion correction
     J. Chem. Phys., 2019 150 154122
     doi.org/10.1063/1.5090222
  5. Caldeweyher,E.; Mewes,J.; Ehlert,S.; Grimme,S.
     Extension and evaluation of the D4 London-dispersion model for periodic systems
     Phys. Chem. Chem. Phys., 2020 22(16)8499-8512
     doi.org/10.1039/D0CP00502A
  6. Wittmann,L.; Gordiy,I.; Friede,M.; Helmich-Paris,B.; Grimme,S.; Hansen,A.; Bursch,M.
     Extension of the D3 and D4 London Dispersion Corrections to the full Actinides Series
     Phys. Chem. Chem. Phys., 2024 26(32)21379-21394
     doi.org/https://doi.org/10.1039/D4CP01514B 

List of suggested additional citations. These are papers that are important in the 'surrounding' of 
of this run, or papers that preceded the highly important papers. If you like your results we are grateful for a citation.

  1. Neese,F.
     The ORCA program system
     WIRES Comput. Molec. Sci., 2012 2(1)73-78
     doi.org/10.1002/wcms.81
  2. Neese,F.
     Software update: the ORCA program system, version 4.0
     WIRES Comput. Molec. Sci., 2018 8(1)1-6
     doi.org/10.1002/wcms.1327
  3. Neese,F.; Wennmohs,F.; Becker,U.; Riplinger,C.
     The ORCA quantum chemistry program package
     J. Chem. Phys., 2020 152 Art. No. L224108
     doi.org/10.1063/5.0004608

List of optional additional citations

  1. Neese,F.
     Approximate second-order SCF convergence for spin unrestricted wavefunctions
     Chem. Phys. Lett., 2000 325(1-3)93-98
     doi.org/10.1016/s0009-2614(00)00662-x

Timings for individual modules:

Sum of individual times          ...        8.043 sec (=   0.134 min)
Startup calculation              ...        0.639 sec (=   0.011 min)   7.9 %
SCF iterations                   ...        7.333 sec (=   0.122 min)  91.2 %
Property calculations            ...        0.071 sec (=   0.001 min)   0.9 %
                             ****ORCA TERMINATED NORMALLY****
TOTAL RUN TIME: 0 days 0 hours 0 minutes 8 seconds 873 msec
