
                                 *****************
                                 * O   R   C   A *
                                 *****************

                                            #,                                       
                                            ###                                      
                                            ####                                     
                                            #####                                    
                                            ######                                   
                                           ########,                                 
                                     ,,################,,,,,                         
                               ,,#################################,,                 
                          ,,##########################################,,             
                       ,#########################################, ''#####,          
                    ,#############################################,,   '####,        
                  ,##################################################,,,,####,       
                ,###########''''           ''''###############################       
              ,#####''   ,,,,##########,,,,          '''####'''          '####       
            ,##' ,,,,###########################,,,                        '##       
           ' ,,###''''                  '''############,,,                           
         ,,##''                                '''############,,,,        ,,,,,,###''
      ,#''                                            '''#######################'''  
     '                                                          ''''####''''         
             ,#######,   #######,   ,#######,      ##                                
            ,#'     '#,  ##    ##  ,#'     '#,    #''#        ,####,   ,####,        
            ##       ##  ##   ,#'  ##            #'  '#       #'       #'  '#        
            ##       ##  #######   ##           ,######,      #####,   #    #        
            '#,     ,#'  ##    ##  '#,     ,#' ,#      #,     #,   #   #,  ,#        
             '#######'   ##     ##  '#######'  #'      '#     '####' # '####'        



                #########################################################
                #                        -***-                          #
                #          Department of theory and spectroscopy        #
                #                                                       #
                #                      Frank Neese                      #
                #                                                       #
                #     Directorship, Architecture, Infrastructure        #
                #                    SHARK, DRIVERS                     #
                #        Core code/Algorithms in most modules           #
                #                                                       #
                #        Max Planck Institute fuer Kohlenforschung      #
                #                Kaiser Wilhelm Platz 1                 #
                #                 D-45470 Muelheim/Ruhr                 #
                #                      Germany                          #
                #                                                       #
                #                  All rights reserved                  #
                #                        -***-                          #
                #########################################################


                         Program Version 6.0.1  -  RELEASE   -


 With contributions from (in alphabetic order):
[Max-Planck-Institut fuer Kohlenforschung]                               
  Daniel Aravena         : Magnetic Suceptibility                        
  Michael Atanasov       : Ab Initio Ligand Field Theory (pilot matlab implementation)
  Alexander A. Auer      : GIAO ZORA, VPT2 properties, NMR spectrum      
  Ute Becker             : All parallelization in ORCA, NUMFREQ, NUMCALC 
  Giovanni Bistoni       : ED, misc. LED, open-shell LED, HFLD           
  Martin Brehm           : Molecular dynamics                            
  Dmytro Bykov           : pre 5.0 version of the SCF Hessian            
  Marcos Casanova-Páez   : Triplet and SCS-CIS(D). UHF-(DLPNO)-IP/EA/STEOM-CCSD. UHF-CVS-IP/STEOM-CCSD   
  Vijay G. Chilkuri      : MRCI spin determinant printing, contributions to CSF-ICE 
  Pauline Colinet        : FMM embedding                                 
  Dipayan Datta          : RHF DLPNO-CCSD density                        
  Achintya Kumar Dutta   : EOM-CC, STEOM-CC                              
  Nicolas Foglia         : Exact transition moments, OPA infrastructure, MCD improvements    
  Dmitry Ganyushin       : Spin-Orbit,Spin-Spin,Magnetic field MRCI      
  Miquel Garcia-Rates    : C-PCM and meta-GGA Hessian, CCSD/C-PCM, Gaussian charge scheme 
  Tiago L. C. Gouveia    : GS-ROHF, GS-ROCIS                             
  Yang Guo               : DLPNO-NEVPT2, F12-NEVPT2, CIM, IAO-localization        
  Andreas Hansen         : Spin unrestricted coupled pair/coupled cluster methods 
  Ingolf Harden          : AUTO-CI MPn and infrastructure                
  Benjamin Helmich-Paris : MC-RPA, TRAH-(SCF,CASSCF), AVAS, COSX integrals, SCF dyn. polar. 
  Lee Huntington         : MR-EOM, pCC                                   
  Robert Izsak           : Overlap fitted RIJCOSX, COSX-SCS-MP3, EOM     
  Riya Kayal             : Wick's Theorem for AUTO-CI, AUTO-CI UHF-CCSDT 
  Emily Kempfer          : AUTO-CI, RHF CISDT and CCSDT                  
  Christian Kollmar      : KDIIS, OOCD, Brueckner-CCSD(T), CCSD density, CASPT2, CASPT2-K, improved NEVPT2 
  Axel Koslowski         : Symmetry handling                             
  Simone Kossmann        : meta-GGA functionals, TD-DFT gradient, OOMP2, (MP2 Hessian; deprecated post 5.0) 
  Lucas Lang             : DCDCAS                                        
  Marvin Lechner         : AUTO-CI (C++ implementation), FIC-MRCC        
  Spencer Leger          : CASSCF response                               
  Dagmar Lenk            : GEPOL surface, SMD, ORCA-2-JSON               
  Dimitrios Liakos       : Extrapolation schemes; Compound Job, initial MDCI parallelization 
  Dimitrios Manganas     : Further ROCIS development; embedding schemes. LFT, Crystal Embedding 
  Dimitrios Pantazis     : SARC Basis sets                               
  Anastasios Papadopoulos: AUTO-CI, single reference methods and gradients 
  Taras Petrenko         : pre 6.0 DFT Hessian and TD-DFT gradient, (ASA, deprecated), ECA, 1-Electron XAS/XES, NRVS 
  Peter Pinski           : DLPNO-MP2, DLPNO-MP2 Gradient                 
  Christoph Reimann      : Effective Core Potentials                     
  Marius Retegan         : Local ZFS, SOC                                
  Christoph Riplinger    : Optimizer, TS searches, QM/MM, DLPNO-CCSD(T), (RO)-DLPNO pert. Triples 
  Michael Roemelt        : Original ROCIS implementation                 
  Masaaki Saitow         : Open-shell DLPNO-CCSD energy and density      
  Barbara Sandhoefer     : DKH picture change effects                    
  Kantharuban Sivalingam : CASSCF convergence/infrastructure, NEVPT2 and variants, FIC-MRCI 
  Bernardo de Souza      : ESD, SOC TD-DFT                               
  Georgi L. Stoychev     : AutoAux, RI-MP2 NMR, DLPNO-MP2 response, X2C  
  Van Anh Tran           : RI-MP2 g-tensors                              
  Willem Van den Heuvel  : Paramagnetic NMR                              
  Zikuan Wang            : NOTCH, Electric field optimization            
  Frank Wennmohs         : Technical directorship and infrastructure     
  Hang Xu                : AUTO-CI-Response properties                   
                                                                         
[FACCTs GmbH]                                                            
  Markus Bursch, Miquel Garcia-Rates, Christoph Riplinger, Bernardo de Souza, Georgi L. Stoychev 
                                                                 
  APM, Basis sets (HGBS, AHGBS, def-TZVP (Ac-Lr), def2-XVPD (La-Lu)), CI-OPT, improved COSX, DLPNO-Multilevel,           
  DOCKER, DRACO, updates on ESD, GOAT, IRC, LR-CPCM, MBIS, meta-GGA TD-DFT gradient, ML-optimized integration grids, 
  MM, NACMEs, nearIR, NEB, NEB-TS, NL-DFT gradient (VV10), 2- and 3-layer-ONIOM, interface openCOSMO-RS, QMMM,   
  Crystal-QMMM, SF, symmetry and pop. for TD-DFT, r2SCAN hybrids, SOLVATOR                                   
                                                                         
[Other institutions]                                                     
  V. Asgeirsson          : NEB                                           
  Christoph Bannwarth    : sTDA-DFT, sTD-DFT, PBEh-3c, B97-3c, D3        
  Sebastian Ehlert       : rSCAN, r2SCAN, r2SCAN-3c, D4, dhf basis sets  
  Marvin Friede          : D4 for Fr, Ra, Ac-Lr                          
  Lars Goerigk           : TD-DFT with DH, B97 family of functionals     
  Stefan Grimme          : VdW corrections, initial TS optimization, DFT functionals, gCP, sTDA/sTD-DF 
  Waldemar Hujo          : DFT-NL                                        
  H. Jonsson             : NEB                                           
  Holger Kruse           : gCP                                           
  Marcel Mueller         : wB97X-3c, vDZP basis set                      
  Hagen Neugebauer       : wr2SCAN                                       
  Tobias Risthaus        : range-separated hybrid DFT                    
  Lukas Wittmann         : regularized MP2, r2SCAN double-hybrids, wr2SCAN        
                                                                         
We gratefully acknowledge several colleagues who have allowed us to      
interface, adapt or use parts of their codes:                            
  Ed Valeev, F. Pavosevic, A. Kumar             : LibInt (2-el integral package), F12 methods 
  Garnet Chan, S. Sharma, J. Yang, R. Olivares  : DMRG                   
  Ulf Ekstrom                                   : XCFun DFT Library      
  Mihaly Kallay                                 : mrcc  (arbitrary order and MRCC methods)
  Frank Weinhold                                : gennbo (NPA and NBO analysis)           
  Simon Mueller                                 : openCOSMO-RS                            
  Christopher J. Cramer and Donald G. Truhlar   : smd solvation model                     
  S Lehtola, MJT Oliveira, MAL Marques          : LibXC Library                           
  Liviu Ungur et al                             : ANISO software                          


 Your calculation uses the libint2 library for the computation of 2-el integrals
 For citations please refer to: http://libint.valeyev.net

 Your ORCA version has been built with support for libXC version: 6.2.2
 For citations please refer to: https://libxc.gitlab.io

 This ORCA versions uses:
   CBLAS   interface :  Fast vector & matrix operations
   LAPACKE interface :  Fast linear algebra routines
   SCALAPACK package :  Parallel linear algebra routines
   Shared memory     :  Shared parallel matrices
   BLAS/LAPACK       :  OpenBLAS 0.3.27  USE64BITINT DYNAMIC_ARCH NO_AFFINITY Zen SINGLE_THREADED
        Core in use  :  Zen
   Copyright (c) 2011-2014, The OpenBLAS Project


Your calculation utilizes the geometrical counterpoise correction gCP
Please cite in your paper:
H.Kruse, S. Grimme J.Chem.Phys., 136, (2012), 154101 
   

Your calculation utilizes the atom-pairwise dispersion correction
based on EEQ partial charges (D4)


================================================================================

----- Orbital basis set information -----
Your calculation utilizes the basis: def2-mTZVPP
   Stefan Grimme, Andreas Hansen, Sebastian Ehlert, and Jan-Michael Mewes 
   J. Chem. Phys. 154, 064103 (2021). DOI: 10.1063/5.0040021

----- AuxJ basis set information -----
Your calculation utilizes the auxiliary basis: def2/J
   F. Weigend, Phys. Chem. Chem. Phys. 8, 1057 (2006).

================================================================================
                                        WARNINGS
                       Please study these warnings very carefully!
================================================================================



WARNING: SCAN, rSCAN, or r2SCAN functional requested.
  ===> : libXC variant has now been activated.



================================================================================
                                       INPUT FILE
================================================================================
NAME = sp.inp
|  1> ! r2scan-3c def2/J RI DEFGRID2 scfconv6 printgap
|  2> %output
|  3>     printlevel normal
|  4> end
|  5> * xyz 0 1
|  6> C -1.8940428021 0.0881976171 0.329988966
|  7> C -0.7063240179 0.6715655269 -0.4202547001
|  8> N 0.5307571375 -0.0561722402 -0.0627445062
|  9> O 0.5098890308 -1.2583780198 -0.1521527834
| 10> O 1.4787238345 0.6044873827 0.2841007722
| 11> H -1.9580861 -0.9816677131 0.1465426292
| 12> H -1.7921643732 0.2549068242 1.3997676796
| 13> H -2.8123156673 0.5585902973 -0.009054972
| 14> H -0.5462210523 1.7250412474 -0.1864785887
| 15> H -0.8461317469 0.5496185326 -1.4976796593
| 16> *
| 17> 
| 18>                          ****END OF INPUT****
================================================================================

                       ****************************
                       * Single Point Calculation *
                       ****************************

---------------------------------
CARTESIAN COORDINATES (ANGSTROEM)
---------------------------------
  C     -1.894043    0.088198    0.329989
  C     -0.706324    0.671566   -0.420255
  N      0.530757   -0.056172   -0.062745
  O      0.509889   -1.258378   -0.152153
  O      1.478724    0.604487    0.284101
  H     -1.958086   -0.981668    0.146543
  H     -1.792164    0.254907    1.399768
  H     -2.812316    0.558590   -0.009055
  H     -0.546221    1.725041   -0.186479
  H     -0.846132    0.549619   -1.497680

----------------------------
CARTESIAN COORDINATES (A.U.)
----------------------------
  NO LB      ZA    FRAG     MASS         X           Y           Z
   0 C     6.0000    0    12.011   -3.579222    0.166669    0.623589
   1 C     6.0000    0    12.011   -1.334759    1.269075   -0.794166
   2 N     7.0000    0    14.007    1.002986   -0.106150   -0.118570
   3 O     8.0000    0    15.999    0.963551   -2.377990   -0.287527
   4 O     8.0000    0    15.999    2.794383    1.142316    0.536873
   5 H     1.0000    0     1.008   -3.700246   -1.855083    0.276925
   6 H     1.0000    0     1.008   -3.386700    0.481704    2.645178
   7 H     1.0000    0     1.008   -5.314506    1.055583   -0.017111
   8 H     1.0000    0     1.008   -1.032208    3.259856   -0.352393
   9 H     1.0000    0     1.008   -1.598957    1.038629   -2.830204

--------------------------------
INTERNAL COORDINATES (ANGSTROEM)
--------------------------------
 C      0   0   0     0.000000000000     0.00000000     0.00000000
 C      1   0   0     1.521137596356     0.00000000     0.00000000
 N      2   1   0     1.479116486776   110.19038879     0.00000000
 O      3   2   1     1.205706454496   117.26978100    51.66260214
 O      3   2   1     1.206405256578   117.20987787   231.11832079
 H      1   2   3     1.087366510085   109.88385398   305.41330910
 H      1   2   3     1.087473066369   110.68601361    65.60732195
 H      1   2   3     1.086022615070   109.88409634   185.62163686
 H      2   1   3     1.090914902061   112.28696203   240.20878616
 H      2   1   3     1.093280299472   110.08615932   117.63131477

---------------------------
INTERNAL COORDINATES (A.U.)
---------------------------
 C      0   0   0     0.000000000000     0.00000000     0.00000000
 C      1   0   0     2.874533469125     0.00000000     0.00000000
 N      2   1   0     2.795125080174   110.19038879     0.00000000
 O      3   2   1     2.278454996898   117.26978100    51.66260214
 O      3   2   1     2.279775541456   117.20987787   231.11832079
 H      1   2   3     2.054824911259   109.88385398   305.41330910
 H      1   2   3     2.055026273454   110.68601361    65.60732195
 H      1   2   3     2.052285317727   109.88409634   185.62163686
 H      2   1   3     2.061530400308   112.28696203   240.20878616
 H      2   1   3     2.066000353614   110.08615932   117.63131477

---------------------
BASIS SET INFORMATION
---------------------
There are 4 groups of distinct atoms

 Group   1 Type C   : 11s6p1d contracted to 5s3p1d pattern {62111/411/1}
 Group   2 Type N   : 11s6p2d contracted to 5s3p2d pattern {62111/411/11}
 Group   3 Type O   : 11s6p2d contracted to 5s3p2d pattern {62111/411/11}
 Group   4 Type H   : 4s1p contracted to 2s1p pattern {31/1}

Atom   0C    basis set group =>   1
Atom   1C    basis set group =>   1
Atom   2N    basis set group =>   2
Atom   3O    basis set group =>   3
Atom   4O    basis set group =>   3
Atom   5H    basis set group =>   4
Atom   6H    basis set group =>   4
Atom   7H    basis set group =>   4
Atom   8H    basis set group =>   4
Atom   9H    basis set group =>   4
---------------------------------
AUXILIARY/J BASIS SET INFORMATION
---------------------------------
There are 4 groups of distinct atoms

 Group   1 Type C   : 12s5p4d2f1g contracted to 6s4p3d1f1g pattern {711111/2111/211/2/1}
 Group   2 Type N   : 12s5p4d2f1g contracted to 6s4p3d1f1g pattern {711111/2111/211/2/1}
 Group   3 Type O   : 12s5p4d2f1g contracted to 6s4p3d1f1g pattern {711111/2111/211/2/1}
 Group   4 Type H   : 5s2p1d contracted to 3s1p1d pattern {311/2/1}

Atom   0C    basis set group =>   1
Atom   1C    basis set group =>   1
Atom   2N    basis set group =>   2
Atom   3O    basis set group =>   3
Atom   4O    basis set group =>   3
Atom   5H    basis set group =>   4
Atom   6H    basis set group =>   4
Atom   7H    basis set group =>   4
Atom   8H    basis set group =>   4
Atom   9H    basis set group =>   4

Checking for AutoStart:
The File: sp.gbw exists
Trying to determine its content:
     ... Fine, the file contains calculation information
     ... Fine, the calculation information was read
     ... Fine, the file contains a basis set
     ... Fine, the basis set was read
     ... Fine, the file contains a geometry
     ... Fine, the geometry was read
     ... Fine, the file contains a set of orbitals
     ... Fine, the orbitals can be read
     => possible old guess file was deleted
     => GBW file was renamed to GES file
     => GES file is set as startup file
     => Guess is set to MORead
     ... now leaving AutoStart

------------------------------------------------------------------------------
                             ORCA STARTUP CALCULATIONS
                           -- RI-GTO INTEGRALS CHOSEN --
------------------------------------------------------------------------------
------------------------------------------------------------------------------
                   ___                                                        
                  /   \      - P O W E R E D   B Y -                         
                 /     \                                                     
                 |  |  |   _    _      __       _____    __    __             
                 |  |  |  | |  | |    /  \     |  _  \  |  |  /  |          
                  \  \/   | |  | |   /    \    | | | |  |  | /  /          
                 / \  \   | |__| |  /  /\  \   | |_| |  |  |/  /          
                |  |  |   |  __  | /  /__\  \  |    /   |      \           
                |  |  |   | |  | | |   __   |  |    \   |  |\   \          
                \     /   | |  | | |  |  |  |  | |\  \  |  | \   \       
                 \___/    |_|  |_| |__|  |__|  |_| \__\ |__|  \__/        
                                                                              
                      - O R C A' S   B I G   F R I E N D -                    
                                      &                                       
                       - I N T E G R A L  F E E D E R -                       
                                                                              
 v1 FN, 2020, v2 2021, v3 2022-2024                                           
------------------------------------------------------------------------------


----------------------
SHARK INTEGRAL PACKAGE
----------------------

Number of atoms                             ...     10
Number of basis functions                   ...    135
Number of shells                            ...     63
Maximum angular momentum                    ...      2
Integral batch strategy                     ... SHARK/LIBINT Hybrid
RI-J (if used) integral strategy            ... SPLIT-RIJ (Revised 2003 algorithm where possible)
Printlevel                                  ...      1
Contraction scheme used                     ... SEGMENTED contraction
Prescreening option                         ... SCHWARTZ
   Thresh                                   ... 1.000e-10
   Tcut                                     ... 1.000e-11
   Tpresel                                  ... 1.000e-11 
Coulomb Range Separation                    ... NOT USED
Exchange Range Separation                   ... NOT USED
Multipole approximations                    ... NOT USED
Finite Nucleus Model                        ... NOT USED
CABS basis                                  ... NOT available
Auxiliary Coulomb fitting basis             ... AVAILABLE
   # of basis functions in Aux-J            ...    300
   # of shells in Aux-J                     ...    100
   Maximum angular momentum in Aux-J        ...      4
Auxiliary J/K fitting basis                 ... NOT available
Auxiliary Correlation fitting basis         ... NOT available
Auxiliary 'external' fitting basis          ... NOT available

Checking pre-screening integrals            ... done (  0.0 sec) Dimension = 63
Check shell pair data                       ... done (  0.0 sec)
Shell pair information
Shell pair cut-off parameter TPreSel        ...   1.0e-11
Total number of shell pairs                 ...      2016
Shell pairs after pre-screening             ...      1941
Total number of primitive shell pairs       ...      7146
Primitive shell pairs kept                  ...      5318
          la=0 lb=0:    589 shell pairs
          la=1 lb=0:    675 shell pairs
          la=1 lb=1:    207 shell pairs
          la=2 lb=0:    275 shell pairs
          la=2 lb=1:    159 shell pairs
          la=2 lb=2:     36 shell pairs

Calculating one electron integrals          ... done (  0.0 sec)
Calculating RI/J V-Matrix + Cholesky decomp.... done (  0.0 sec)
Calculating Nuclear repulsion               ... done (  0.0 sec) ENN=    185.505669322666 Eh

Diagonalization of the overlap matrix:
Smallest eigenvalue                        ... 3.147e-04
Time for diagonalization                   ...    0.002 sec
Threshold for overlap eigenvalues          ... 1.000e-07
Number of eigenvalues below threshold      ... 0
Time for construction of square roots      ...    0.004 sec
Total time needed                          ...    0.007 sec

-------------------
DFT GRID GENERATION
-------------------

General Integration Accuracy     IntAcc      ... 4.388
Radial Grid Type                 RadialGrid  ... OptM3 with GC (2021)
Angular Grid (max. ang.)         AngularGrid ... 4 (Lebedev-302)
Angular grid pruning method      GridPruning ... 4 (adaptive)
Weight generation scheme         WeightScheme... mBecke (2022)
Basis function cutoff            BFCut       ... 1.0000e-10
Integration weight cutoff        WCut        ... 1.0000e-14
Partially contracted basis set               ... off
Rotationally invariant grid construction     ... off
Angular grids for H and He will be reduced by one unit
Diffuse basis detected: some atoms will have their outermost
                        angular grid increased by 1.

Total number of grid points                  ...    47167
Total number of batches                      ...      740
Average number of points per batch           ...       63
Average number of grid points per atom       ...     4717
Initializing property integral containers    ... done (  0.0 sec)

SHARK setup successfully completed in   0.4 seconds

Maximum memory used throughout the entire STARTUP-calculation: 21.8 MB
-------------------------------------------------------------------------------
                                 ORCA GUESS
                   Start orbitals & Density for SCF / CASSCF
-------------------------------------------------------------------------------

------------
SCF SETTINGS
------------
Hamiltonian:
 Density Functional     Method          .... DFT(GTOs)
  Functional kind                       .... Exchange
  Functional name                       .... Re-regularized SCAN exchange by Furness et al
  Functional family                     .... MGGA
  Functional refs                              
    [ 0] J. W. Furness, A. D. Kaplan, J. Ning, J. P. Perdew, and J. Sun.,  J. Phys. Chem. Lett. 11, 8208-8215 (2020), doi: 10.1021/acs.jpclett.0c02405
    [ 1] J. W. Furness, A. D. Kaplan, J. Ning, J. P. Perdew, and J. Sun.,  J. Phys. Chem. Lett. 11, 9248-9248 (2020), doi: 10.1021/acs.jpclett.0c03077
  Functional external parameters        .... 6
    Parameter  0 _c1        =  6.670000e-01 : c1 parameter        
    Parameter  1 _c2        =  8.000000e-01 : c2 parameter        
    Parameter  2 _d         =  1.240000e+00 : d parameter         
    Parameter  3 _k1        =  6.500000e-02 : k1 parameter        
    Parameter  4 _eta       =  1.000000e-03 : eta parameter       
    Parameter  5 _dp2       =  3.610000e-01 : dp2 parameter       
  Functional kind                       .... Correlation
  Functional name                       .... Re-regularized SCAN correlation by Furness et al
  Functional family                     .... MGGA
  Functional refs                              
    [ 0] J. W. Furness, A. D. Kaplan, J. Ning, J. P. Perdew, and J. Sun.,  J. Phys. Chem. Lett. 11, 8208-8215 (2020), doi: 10.1021/acs.jpclett.0c02405
    [ 1] J. W. Furness, A. D. Kaplan, J. Ning, J. P. Perdew, and J. Sun.,  J. Phys. Chem. Lett. 11, 9248-9248 (2020), doi: 10.1021/acs.jpclett.0c03077
  Functional external parameters        .... 1
    Parameter  0 _eta       =  1.000000e-03 : Regularization parameter
 Gradients option       PostSCFGGA      .... off
 RI-approximation to the Coulomb term is turned on
   Number of AuxJ basis functions       .... 300


General Settings:
 Integral files         IntName         .... sp
 Hartree-Fock type      HFTyp           .... RHF
 Total Charge           Charge          ....    0
 Multiplicity           Mult            ....    1
 Number of Electrons    NEL             ....   40
 Basis Dimension        Dim             ....  135
 Nuclear Repulsion      ENuc            ....    185.5056693227 Eh

Convergence Acceleration:
 AO-DIIS                CNVDIIS         .... on
   Start iteration      DIISMaxIt       ....    12
   Startup error        DIISStart       ....  0.200000
   # of expansion vecs  DIISMaxEq       ....     5
   Bias factor          DIISBfac        ....   1.050
   Max. coefficient     DIISMaxC        ....  10.000
 MO-DIIS                CNVKDIIS        .... off
 Trust-Rad. Augm. Hess. CNVTRAH         .... auto
   Auto Start mean grad. ratio tolernc. ....  1.125000
   Auto Start start iteration           ....     1
   Auto Start num. interpolation iter.  ....    10
   Max. Number of Micro iterations      ....    24
   Max. Number of Macro iterations      .... Maxiter - #DIIS iter
   Number of Davidson start vectors     ....     2
   Converg. threshold    (grad. norm)   ....   3.330e-04
   Grad. Scal. Fac. for Micro threshold ....   0.100
   Minimum threshold for Micro iter.    ....   1.000e-02
   NR start threshold (gradient norm)   ....   1.000e-04
   Initial trust radius                 ....   0.400
   Minimum AH scaling param. (alpha)    ....   1.000
   Maximum AH scaling param. (alpha)    .... 1000.000
   Quad. conv. algorithm                .... NR
   White noise on init. David. guess    .... on
   Maximum white noise                  ....   0.010
   Pseudo random numbers                .... off
   Inactive MOs                         .... canonical
   Orbital update algorithm             .... Taylor
   Preconditioner                       .... Diag
   Full preconditioner red. dimension   ....   250
   COSX micro iterations for RIJONX calc.... off
 SOSCF                  CNVSOSCF        .... on
   Start iteration      SOSCFMaxIt      ....   150
   Startup grad/error   SOSCFStart      ....  0.003300
   Hessian update       SOSCFHessUp     .... L-BFGS
 Level Shifting         CNVShift        .... on
   Level shift para.    LevelShift      ....    0.2500
   Turn off err/grad.   ShiftErr        ....    0.0010
 Zerner damping         CNVZerner       .... off
 Static damping         CNVDamp         .... on
   Fraction old density DampFac         ....    0.7000
   Max. Damping (<1)    DampMax         ....    0.9800
   Min. Damping (>=0)   DampMin         ....    0.0000
   Turn off err/grad.   DampErr         ....    0.1000

SCF Procedure:
 Maximum # iterations   MaxIter         ....   125
 SCF integral mode      SCFMode         .... Direct
   Integral package                     .... SHARK and LIBINT hybrid scheme
 Reset frequency        DirectResetFreq ....    20
 Integral Threshold     Thresh          ....  1.000e-10 Eh
 Primitive CutOff       TCut            ....  1.000e-11 Eh

Convergence Tolerance:
 Convergence Check Mode ConvCheckMode   .... Total+1el-Energy
 Convergence forced     ConvForced      .... 0
 Energy Change          TolE            ....  1.000e-06 Eh
 1-El. energy change                    ....  1.000e-03 Eh
 Orbital Gradient       TolG            ....  3.330e-04
 Orbital Rotation angle TolX            ....  3.330e-04
 DIIS Error             TolErr          ....  1.000e-06

---------------------
INITIAL GUESS: MOREAD
---------------------
Guess MOs are being read from file: sp.ges
Input Geometry matches current geometry (good)
Atom 0: N(Shells)= 9 and 6 - projection required
Input basis set needs projection
NBasis(read)= 80
NBasis(calc)= 135
Basis set overlap was calculated
Using GuessMode=FMatrix for the initial guess
C*T matrix was formed
Effective Fockian was calculated
Effective Fockian was diagonalized
Initial density was built
                      ------------------
                      INITIAL GUESS DONE (   0.0 sec)
                      ------------------
             **** ENERGY FILE WAS UPDATED (sp.en.tmp) ****
Finished Guess after   0.1 sec
Maximum memory used throughout the entire GUESS-calculation: 9.7 MB

-------------------------------------------------------------------------------------------
                                      ORCA LEAN-SCF
                              memory conserving SCF solver
-------------------------------------------------------------------------------------------

----------------------------------------D-I-I-S--------------------------------------------
Iteration    Energy (Eh)           Delta-E    RMSDP     MaxDP     DIISErr   Damp  Time(sec)
-------------------------------------------------------------------------------------------
               ***  Starting incremental Fock matrix formation  ***
    1    -284.1467690932566370     0.00e+00  6.05e-03  1.89e-01  6.37e-01  0.700   0.8
    2    -284.1893802580182751    -4.26e-02  5.07e-03  1.28e-01  4.47e-01  0.700   0.7
    3    -284.2195197564091131    -3.01e-02  3.76e-03  8.84e-02  3.14e-01  0.700   0.6
    4    -284.2406862673467458    -2.12e-02  2.70e-03  6.26e-02  2.20e-01  0.700   0.6
                               ***Turning on AO-DIIS***
    5    -284.2555349609001496    -1.48e-02  1.95e-03  4.44e-02  1.54e-01  0.700   0.6
    6    -284.2659454784808304    -1.04e-02  1.39e-03  3.13e-02  1.08e-01  0.700   0.6
    7    -284.2732427745949053    -7.30e-03  9.77e-04  2.19e-02  7.53e-02  0.700   0.6
    8    -284.2783558155936703    -5.11e-03  2.29e-03  5.13e-02  5.27e-02  0.000   0.6
                              *** Initializing SOSCF ***
---------------------------------------S-O-S-C-F--------------------------------------
Iteration    Energy (Eh)           Delta-E    RMSDP     MaxDP     MaxGrad    Time(sec)
--------------------------------------------------------------------------------------
    9    -284.2903024427359355    -1.19e-02  1.14e-05  2.30e-04  9.81e-05     0.6
               *** Restarting incremental Fock matrix formation ***
   10    -284.2903024673379946    -2.46e-08  6.99e-06  1.48e-04  6.62e-05     0.7
                  *** Gradient check signals convergence ***

               *****************************************************
               *                     SUCCESS                       *
               *           SCF CONVERGED AFTER  10 CYCLES          *
               *****************************************************

             **** ENERGY FILE WAS UPDATED (sp.en.tmp) ****

----------------
TOTAL SCF ENERGY
----------------

Total Energy       :       -284.29030246733799 Eh           -7735.93242 eV

Components:
Nuclear Repulsion  :        185.50566932266628 Eh            5047.86589 eV
Electronic Energy  :       -469.79597179000427 Eh          -12783.79831 eV
One Electron Energy:       -754.25629976560310 Eh          -20524.35735 eV
Two Electron Energy:        284.46032797559883 Eh            7740.55905 eV

Virial components:
Potential Energy   :       -567.66053836178958 Eh          -15446.82855 eV
Kinetic Energy     :        283.37023589445158 Eh            7710.89613 eV
Virial Ratio       :          2.00324687090012

DFT components:
N(Alpha)           :       19.999996012551 electrons
N(Beta)            :       19.999996012551 electrons
N(Total)           :       39.999992025102 electrons
E(X)               :      -35.348742777968 Eh       
E(C)               :       -1.312585952763 Eh       
E(XC)              :      -36.661328730731 Eh       

---------------
SCF CONVERGENCE
---------------

  Last Energy change         ...    2.4602e-08  Tolerance :   1.0000e-06
  Last MAX-Density change    ...    1.4789e-04  Tolerance :   1.0000e-05
  Last RMS-Density change    ...    6.9949e-06  Tolerance :   1.0000e-06
  Last DIIS Error            ...    9.8051e-05  Tolerance :   1.0000e-06
  Last Orbital Gradient      ...    6.6187e-05  Tolerance :   3.3300e-04
  Last Orbital Rotation      ...    1.5482e-04  Tolerance :   3.3300e-04


----------------
ORBITAL ENERGIES
----------------

  NO   OCC          E(Eh)            E(eV) 
   0   2.0000     -18.986366      -516.6453 
   1   2.0000     -18.986316      -516.6439 
   2   2.0000     -14.392855      -391.6495 
   3   2.0000     -10.099678      -274.8262 
   4   2.0000     -10.051163      -273.5061 
   5   2.0000      -1.213069       -33.0093 
   6   2.0000      -1.036624       -28.2080 
   7   2.0000      -0.806880       -21.9563 
   8   2.0000      -0.680214       -18.5096 
   9   2.0000      -0.573025       -15.5928 
  10   2.0000      -0.526106       -14.3161 
  11   2.0000      -0.508303       -13.8316 
  12   2.0000      -0.489139       -13.3101 
  13   2.0000      -0.442384       -12.0379 
  14   2.0000      -0.395322       -10.7573 
  15   2.0000      -0.373543       -10.1646 
  16   2.0000      -0.352909        -9.6031 
  17   2.0000      -0.296544        -8.0694 
  18   2.0000      -0.275372        -7.4932 
  19   2.0000      -0.261159        -7.1065 
  20   0.0000      -0.098582        -2.6825 
  21   0.0000       0.079463         2.1623 
  22   0.0000       0.087951         2.3933 
  23   0.0000       0.107844         2.9346 
  24   0.0000       0.135193         3.6788 
  25   0.0000       0.148094         4.0298 
  26   0.0000       0.159834         4.3493 
  27   0.0000       0.169880         4.6227 
  28   0.0000       0.180320         4.9068 
  29   0.0000       0.204879         5.5751 
  30   0.0000       0.213707         5.8153 
*Only the first 10 virtual orbitals were printed.

                    ********************************
                    * MULLIKEN POPULATION ANALYSIS *
                    ********************************

-----------------------
MULLIKEN ATOMIC CHARGES
-----------------------
   0 C :   -0.438777
   1 C :   -0.260499
   2 N :    0.242743
   3 O :   -0.192424
   4 O :   -0.198906
   5 H :    0.177555
   6 H :    0.157520
   7 H :    0.155262
   8 H :    0.185748
   9 H :    0.171779
Sum of atomic charges:   -0.0000000

--------------------------------
MULLIKEN REDUCED ORBITAL CHARGES
--------------------------------
  0 C s       :     3.313501  s :     3.313501
      pz      :     1.047623  p :     3.099360
      px      :     0.967514
      py      :     1.084223
      dz2     :     0.007977  d :     0.025917
      dxz     :     0.004691
      dyz     :     0.002107
      dx2y2   :     0.006328
      dxy     :     0.004813

  1 C s       :     3.295581  s :     3.295581
      pz      :     1.055870  p :     2.923298
      px      :     0.849050
      py      :     1.018379
      dz2     :     0.010874  d :     0.041619
      dxz     :     0.006418
      dyz     :     0.003328
      dx2y2   :     0.009924
      dxy     :     0.011076

  2 N s       :     3.240454  s :     3.240454
      pz      :     1.081257  p :     2.984163
      px      :     1.009965
      py      :     0.892941
      dz2     :     0.036533  d :     0.532639
      dxz     :     0.047870
      dyz     :     0.103654
      dx2y2   :     0.157467
      dxy     :     0.187115

  3 O s       :     3.854813  s :     3.854813
      pz      :     1.417441  p :     4.300816
      px      :     1.741219
      py      :     1.142156
      dz2     :     0.003553  d :     0.036795
      dxz     :    -0.000986
      dyz     :     0.015051
      dx2y2   :     0.009502
      dxy     :     0.009675

  4 O s       :     3.852942  s :     3.852942
      pz      :     1.361537  p :     4.306874
      px      :     1.369208
      py      :     1.576129
      dz2     :     0.006009  d :     0.039091
      dxz     :     0.012584
      dyz     :     0.005516
      dx2y2   :     0.010195
      dxy     :     0.004787

  5 H s       :     0.804012  s :     0.804012
      pz      :     0.003662  p :     0.018433
      px      :     0.003529
      py      :     0.011243

  6 H s       :     0.824216  s :     0.824216
      pz      :     0.010955  p :     0.018264
      px      :     0.003530
      py      :     0.003779

  7 H s       :     0.826289  s :     0.826289
      pz      :     0.004272  p :     0.018450
      px      :     0.009189
      py      :     0.004989

  8 H s       :     0.796614  s :     0.796614
      pz      :     0.003602  p :     0.017638
      px      :     0.002780
      py      :     0.011256

  9 H s       :     0.810341  s :     0.810341
      pz      :     0.011444  p :     0.017881
      px      :     0.003162
      py      :     0.003275


------------------------
MULLIKEN OVERLAP CHARGES
------------------------
B(  0-C ,  1-C ) :   0.5075 B(  0-C ,  2-N ) :  -0.0955 B(  0-C ,  5-H ) :   0.8253 
B(  0-C ,  6-H ) :   0.8204 B(  0-C ,  7-H ) :   0.8183 B(  0-C ,  8-H ) :  -0.0573 
B(  0-C ,  9-H ) :  -0.0565 B(  1-C ,  2-N ) :   0.4917 B(  1-C ,  3-O ) :  -0.0646 
B(  1-C ,  4-O ) :  -0.0529 B(  1-C ,  5-H ) :  -0.0649 B(  1-C ,  6-H ) :  -0.0621 
B(  1-C ,  7-H ) :  -0.0840 B(  1-C ,  8-H ) :   0.8503 B(  1-C ,  9-H ) :   0.7929 
B(  2-N ,  3-O ) :   1.0726 B(  2-N ,  4-O ) :   1.0808 B(  2-N ,  8-H ) :  -0.0868 
B(  2-N ,  9-H ) :  -0.0524 B(  3-O ,  4-O ) :  -0.1277 


                     *******************************
                     * LOEWDIN POPULATION ANALYSIS *
                     *******************************

----------------------
LOEWDIN ATOMIC CHARGES
----------------------
   0 C :   -0.369380
   1 C :    0.015726
   2 N :   -0.536689
   3 O :   -0.004403
   4 O :    0.003866
   5 H :    0.174350
   6 H :    0.160961
   7 H :    0.160258
   8 H :    0.195879
   9 H :    0.199431

-------------------------------
LOEWDIN REDUCED ORBITAL CHARGES
-------------------------------
  0 C s       :     2.969057  s :     2.969057
      pz      :     1.131718  p :     3.339864
      px      :     1.058767
      py      :     1.149379
      dz2     :     0.019204  d :     0.060459
      dxz     :     0.010501
      dyz     :     0.004722
      dx2y2   :     0.014872
      dxy     :     0.011161

  1 C s       :     2.862823  s :     2.862823
      pz      :     1.068508  p :     3.030960
      px      :     0.923658
      py      :     1.038795
      dz2     :     0.024983  d :     0.090491
      dxz     :     0.014077
      dyz     :     0.005842
      dx2y2   :     0.023099
      dxy     :     0.022490

  2 N s       :     2.955122  s :     2.955122
      pz      :     1.024939  p :     3.307145
      px      :     1.139796
      py      :     1.142410
      dz2     :     0.124730  d :     1.274422
      dxz     :     0.139515
      dyz     :     0.239771
      dx2y2   :     0.372071
      dxy     :     0.398334

  3 O s       :     3.455430  s :     3.455430
      pz      :     1.345196  p :     4.291995
      px      :     1.654863
      py      :     1.291937
      dz2     :     0.029634  d :     0.256977
      dxz     :     0.004613
      dyz     :     0.064132
      dx2y2   :     0.079437
      dxy     :     0.079161

  4 O s       :     3.460070  s :     3.460070
      pz      :     1.302097  p :     4.287181
      px      :     1.415874
      py      :     1.569210
      dz2     :     0.031188  d :     0.248883
      dxz     :     0.047481
      dyz     :     0.027919
      dx2y2   :     0.074417
      dxy     :     0.067877

  5 H s       :     0.781069  s :     0.781069
      pz      :     0.008281  p :     0.044581
      px      :     0.007246
      py      :     0.029054

  6 H s       :     0.795518  s :     0.795518
      pz      :     0.027417  p :     0.043521
      px      :     0.007596
      py      :     0.008508

  7 H s       :     0.795665  s :     0.795665
      pz      :     0.009829  p :     0.044077
      px      :     0.022287
      py      :     0.011960

  8 H s       :     0.763033  s :     0.763033
      pz      :     0.008431  p :     0.041088
      px      :     0.006290
      py      :     0.026367

  9 H s       :     0.759449  s :     0.759449
      pz      :     0.026918  p :     0.041119
      px      :     0.006905
      py      :     0.007296


---------------------------------
LOEWDIN BOND ORDERS (THRESH 0.050000)
---------------------------------
B(  0-C ,  1-C ) :   1.0720 B(  0-C ,  2-N ) :   0.1373 B(  0-C ,  3-O ) :   0.0541 
B(  0-C ,  5-H ) :   0.9100 B(  0-C ,  6-H ) :   0.9238 B(  0-C ,  7-H ) :   0.9178 
B(  1-C ,  2-N ) :   1.0985 B(  1-C ,  3-O ) :   0.1827 B(  1-C ,  4-O ) :   0.1895 
B(  1-C ,  8-H ) :   0.8256 B(  1-C ,  9-H ) :   0.8128 B(  2-N ,  3-O ) :   2.6729 
B(  2-N ,  4-O ) :   2.6774 B(  2-N ,  8-H ) :   0.0763 B(  2-N ,  9-H ) :   0.0921 
B(  3-O ,  4-O ) :   0.5925 

------------------------------------------
LOEWDIN REDUCED ORBITAL POPULATIONS PER MO
-------------------------------------------
THRESHOLD FOR PRINTING IS 0.1%%
                      0         1         2         3         4         5   
                 -18.98637 -18.98632 -14.39285 -10.09968 -10.05116  -1.21307
                   2.00000   2.00000   2.00000   2.00000   2.00000   2.00000
                  --------  --------  --------  --------  --------  --------
 0 C  s               0.0       0.0       0.0       0.0      99.7       0.2
 0 C  px              0.0       0.0       0.0       0.1       0.0       0.5
 1 C  s               0.0       0.0       0.0      99.4       0.0       2.0
 1 C  pz              0.0       0.0       0.0       0.0       0.0       0.2
 1 C  px              0.0       0.0       0.0       0.0       0.1       2.6
 1 C  py              0.0       0.0       0.0       0.0       0.0       0.9
 2 N  s               0.0       0.0      99.4       0.0       0.0      32.9
 2 N  pz              0.0       0.0       0.0       0.0       0.0       0.1
 2 N  px              0.0       0.0       0.0       0.1       0.0       2.0
 2 N  py              0.1       0.0       0.0       0.0       0.0       0.7
 2 N  dz2             0.0       0.0       0.0       0.0       0.0       1.0
 2 N  dxz             0.0       0.0       0.0       0.0       0.0       0.2
 2 N  dyz             0.0       0.0       0.0       0.0       0.0       0.2
 2 N  dx2y2           0.1       0.0       0.0       0.0       0.0       0.3
 2 N  dxy             0.0       0.1       0.0       0.1       0.0       0.6
 3 O  s              99.6       0.2       0.0       0.0       0.0      17.7
 3 O  px              0.0       0.0       0.0       0.0       0.0       0.1
 3 O  py              0.0       0.0       0.1       0.0       0.0       7.3
 3 O  dz2             0.0       0.0       0.0       0.0       0.0       0.6
 3 O  dx2y2           0.0       0.0       0.1       0.0       0.0       1.7
 3 O  dxy             0.0       0.0       0.0       0.0       0.0       0.2
 4 O  s               0.2      99.6       0.0       0.0       0.0      17.5
 4 O  pz              0.0       0.0       0.0       0.0       0.0       0.6
 4 O  px              0.0       0.0       0.1       0.0       0.0       4.0
 4 O  py              0.0       0.0       0.0       0.0       0.0       2.9
 4 O  dz2             0.0       0.0       0.0       0.0       0.0       0.4
 4 O  dxz             0.0       0.0       0.0       0.0       0.0       0.3
 4 O  dyz             0.0       0.0       0.0       0.0       0.0       0.2
 4 O  dxy             0.0       0.0       0.1       0.0       0.0       1.6
 8 H  s               0.0       0.0       0.0       0.0       0.0       0.1
 9 H  s               0.0       0.0       0.0       0.0       0.0       0.1

                      6         7         8         9        10        11   
                  -1.03662  -0.80688  -0.68021  -0.57302  -0.52611  -0.50830
                   2.00000   2.00000   2.00000   2.00000   2.00000   2.00000
                  --------  --------  --------  --------  --------  --------
 0 C  s               0.0      13.1      30.5       2.8       0.4       0.6
 0 C  pz              0.0       0.7       0.1       2.8       0.8       0.6
 0 C  px              0.0       2.3       0.8       1.3       2.6       0.7
 0 C  py              0.0       0.4       0.0       1.6       0.1       5.2
 1 C  s               0.0      27.7       0.5       9.3       0.0       2.3
 1 C  pz              0.0       0.4       1.2       5.7       8.8       0.0
 1 C  px              0.2       0.3      14.2       1.1       1.0       4.5
 1 C  py              0.6       0.7       0.2       5.1       0.1      10.6
 1 C  dxz             0.0       0.0       0.2       0.0       0.1       0.0
 1 C  dxy             0.0       0.0       0.4       0.1       0.0       0.1
 2 N  s               0.0       2.4       4.1       6.9       0.7       0.3
 2 N  pz              1.5       1.0       1.7       2.2      23.0      15.5
 2 N  px              7.6      15.1       5.9       0.5      11.9       5.8
 2 N  py             27.7       5.2       2.5       0.0       0.9       1.5
 2 N  dz2             0.0       0.1       0.4       1.2       0.4       0.1
 2 N  dxz             0.3       0.1       0.0       1.0       0.0       0.0
 2 N  dyz             0.0       0.3       0.1       0.0       0.1       0.5
 2 N  dx2y2           2.6       1.2       0.1       0.6       0.7       0.0
 2 N  dxy             1.1       1.8       0.4       0.0       0.6       4.1
 3 O  s              24.7       3.0       2.6       9.7       3.3       0.7
 3 O  pz              0.0       0.1       0.2       1.1       6.9       7.1
 3 O  px              0.3       1.3       0.5       0.1       4.5       3.1
 3 O  py              2.8       0.6       1.3       9.4       6.3       1.1
 3 O  dz2             0.1       0.2       0.1       0.1       0.1       0.0
 3 O  dyz             0.1       0.1       0.1       0.2       1.3       0.8
 3 O  dx2y2           0.2       0.2       0.6       0.3       0.1       0.0
 3 O  dxy             0.5       1.3       0.2       0.0       0.5       0.2
 4 O  s              25.2       2.5       3.8       7.6       2.2       5.7
 4 O  pz              0.3       0.1       0.4       0.0      12.3       1.4
 4 O  px              2.4       1.2       2.0       5.9       0.1       5.5
 4 O  py              0.6       0.5       0.1       3.0       3.8      10.4
 4 O  dz2             0.1       0.0       0.0       0.1       0.3       0.3
 4 O  dxz             0.0       0.3       0.3       0.0       0.7       0.3
 4 O  dyz             0.1       0.0       0.0       0.0       0.6       0.1
 4 O  dx2y2           0.3       1.2       0.7       0.1       0.3       0.1
 4 O  dxy             0.4       0.0       0.0       0.5       0.0       0.2
 5 H  s               0.0       1.7       6.6       1.6       0.1       2.5
 5 H  py              0.0       0.2       0.6       0.1       0.0       0.1
 6 H  s               0.0       1.7       7.0       2.1       0.0       0.4
 6 H  pz              0.0       0.2       0.6       0.1       0.0       0.0
 7 H  s               0.0       1.7       8.1       0.7       1.2       0.0
 7 H  px              0.0       0.1       0.5       0.0       0.0       0.0
 7 H  py              0.0       0.0       0.1       0.0       0.0       0.0
 8 H  s               0.0       4.1       0.0       6.0       0.1       6.1
 8 H  py              0.0       0.4       0.0       0.3       0.0       0.2
 9 H  s               0.0       4.2       0.1       7.6       2.7       0.7
 9 H  pz              0.0       0.4       0.0       0.4       0.1       0.0

                     12        13        14        15        16        17   
                  -0.48914  -0.44238  -0.39532  -0.37354  -0.35291  -0.29654
                   2.00000   2.00000   2.00000   2.00000   2.00000   2.00000
                  --------  --------  --------  --------  --------  --------
 0 C  s               0.3       0.0       0.2       0.4       0.0       0.0
 0 C  pz              2.0      14.4       2.6      16.1      16.2       0.0
 0 C  px              1.0       0.0      40.3       1.4       0.0       0.0
 0 C  py              0.0       9.8       3.2      21.8      14.8       0.4
 0 C  dz2             0.0       0.0       0.1       0.1       0.7       0.0
 0 C  dxz             0.0       0.1       0.2       0.0       0.0       0.0
 0 C  dyz             0.0       0.0       0.0       0.1       0.0       0.0
 0 C  dx2y2           0.0       0.0       0.0       0.4       0.2       0.0
 0 C  dxy             0.0       0.0       0.3       0.0       0.1       0.0
 1 C  s               0.3       0.0       0.6       0.3       0.0       0.0
 1 C  pz              1.1      11.9       3.3      10.4       9.0       0.1
 1 C  px              2.0       1.6       3.5       7.4       0.1       0.0
 1 C  py              1.5      12.6       3.0       6.8       6.8       0.0
 1 C  dz2             0.0       0.1       0.0       0.2       0.7       0.0
 1 C  dxz             0.0       0.1       0.2       0.1       0.0       0.0
 1 C  dx2y2           0.0       0.1       0.0       0.4       0.2       0.0
 1 C  dxy             0.0       0.0       0.2       0.0       0.1       0.0
 2 N  s               0.0       0.0       0.3       0.1       0.0       0.0
 2 N  pz              1.0       3.6       0.6       0.5       0.2       0.0
 2 N  px              1.9       0.5       2.5       0.1       0.1       0.0
 2 N  py             13.8       2.0       0.2       0.6       0.4       0.0
 2 N  dz2             0.1       0.2       0.3       0.2       0.8       1.3
 2 N  dxz             1.0       0.9       0.4       0.3       0.7       1.6
 2 N  dyz             0.0       0.2       0.0       0.8       0.0       8.7
 2 N  dx2y2           4.9       0.1       2.1       0.4       0.3       0.1
 2 N  dxy             0.9       0.2       0.2       0.1       0.0       1.2
 3 O  s               9.7       0.6       0.0       0.1       0.2       0.0
 3 O  pz              1.3       1.6       0.7       2.3       0.1      39.2
 3 O  px              0.6       0.5       1.1       0.1       0.1       4.2
 3 O  py             24.0       4.2       0.3       0.5       1.1       0.2
 3 O  dyz             0.1       0.1       0.0       0.0       0.0       0.3
 3 O  dx2y2           0.3       0.1       0.1       0.1       0.1       0.0
 4 O  s               7.0       0.9       0.1       0.0       0.0       0.0
 4 O  pz              5.5       0.6       2.3       1.0       1.3      38.0
 4 O  px             15.0       3.9       0.5       0.1       0.1       3.5
 4 O  py              0.8       2.6       3.0       0.0       0.8       0.3
 4 O  dxz             0.2       0.1       0.0       0.0       0.0       0.1
 4 O  dyz             0.0       0.0       0.0       0.0       0.0       0.2
 4 O  dx2y2           0.1       0.0       0.1       0.0       0.0       0.0
 4 O  dxy             0.1       0.1       0.0       0.0       0.1       0.0
 5 H  s               0.1       4.4       0.5       8.3      13.0       0.2
 5 H  pz              0.0       0.0       0.0       0.2       0.0       0.0
 5 H  px              0.0       0.0       0.3       0.0       0.0       0.0
 5 H  py              0.0       0.1       0.0       0.1       0.2       0.0
 6 H  s               1.0       6.7       1.7       5.7      13.2       0.0
 6 H  pz              0.0       0.2       0.0       0.0       0.2       0.0
 6 H  px              0.0       0.0       0.3       0.0       0.0       0.0
 6 H  py              0.0       0.0       0.0       0.3       0.0       0.0
 7 H  s               0.3       0.0      23.2       3.2       0.0       0.1
 7 H  pz              0.0       0.1       0.1       0.1       0.1       0.0
 7 H  px              0.0       0.0       0.2       0.2       0.0       0.0
 7 H  py              0.0       0.0       0.1       0.1       0.1       0.0
 8 H  s               0.4       7.3       0.3       3.4       8.6       0.1
 8 H  pz              0.0       0.0       0.0       0.2       0.0       0.0
 8 H  py              0.0       0.2       0.0       0.0       0.1       0.0
 9 H  s               1.3       6.7       0.2       4.7       8.7       0.0
 9 H  pz              0.1       0.2       0.0       0.0       0.1       0.0
 9 H  px              0.0       0.0       0.0       0.1       0.0       0.0
 9 H  py              0.0       0.0       0.0       0.1       0.0       0.0

                     18        19        20        21        22        23   
                  -0.27537  -0.26116  -0.09858   0.07946   0.08795   0.10784
                   2.00000   2.00000   0.00000   0.00000   0.00000   0.00000
                  --------  --------  --------  --------  --------  --------
 0 C  s               0.0       0.2       0.4      15.8       1.4      23.0
 0 C  pz              0.1       0.1       0.2       1.5       0.7       3.3
 0 C  px              1.1       0.9       0.8       3.3       0.3      18.1
 0 C  py              0.1       0.0       0.3       1.2       0.3       0.8
 0 C  dz2             0.0       0.0       0.0       0.0       0.1       0.0
 0 C  dxz             0.0       0.0       0.0       0.6       0.1       0.5
 0 C  dyz             0.0       0.0       0.0       0.1       0.4       0.0
 0 C  dx2y2           0.1       0.0       0.0       0.1       1.0       0.2
 0 C  dxy             0.0       0.0       0.0       0.2       0.3       0.2
 1 C  s               0.6       0.0       0.1      23.5       1.1       3.6
 1 C  pz              0.9       0.3       0.4       1.9       2.3      10.4
 1 C  px              6.5       1.0       0.0       0.3      33.4       3.2
 1 C  py              2.0       1.1       0.0       2.2       9.6       7.3
 1 C  dz2             0.0       0.0       0.4       0.0       0.8       0.0
 1 C  dxz             0.0       0.0       0.6       0.1       0.7       0.4
 1 C  dyz             0.0       0.0       0.1       0.0       0.3       1.1
 1 C  dx2y2           0.0       0.1       0.1       0.0       0.8       0.7
 1 C  dxy             0.0       0.0       0.0       0.1       3.1       0.0
 2 N  s               0.6       0.0       0.0       3.5       7.9       1.1
 2 N  pz              0.2       0.0      30.6       0.8       1.6       0.4
 2 N  px              2.7       0.1       3.1       0.9       6.0       1.0
 2 N  py              0.6       0.9       0.1       0.8       3.0       0.3
 2 N  dz2             0.0       0.0       0.4       6.3       0.4       1.5
 2 N  dxz             0.1       0.4       2.1       2.8       0.3       1.5
 2 N  dyz             1.1       0.0       1.0       0.1       0.0       1.4
 2 N  dx2y2           1.6       3.6       0.3       0.1       0.0       0.2
 2 N  dxy             8.3       0.4       0.0       0.6       0.2       0.2
 3 O  s               0.3       0.3       0.0       2.1       0.2       0.0
 3 O  pz              3.8       2.8      21.2       0.1       0.5       0.3
 3 O  px             38.9      27.5       2.2       0.2       0.5       0.3
 3 O  py              3.4       1.8       0.1       1.3       1.0       0.1
 3 O  dz2             0.1       0.0       0.0       0.5       0.4       0.0
 3 O  dxz             0.0       0.0       0.0       0.0       0.6       0.6
 3 O  dyz             0.0       0.1       3.6       0.1       0.0       0.2
 3 O  dx2y2           0.0       0.0       0.0       0.4       1.1       0.1
 3 O  dxy             0.2       0.6       0.4       0.2       0.1       0.0
 4 O  s               0.5       0.1       0.0       1.4       0.1       0.6
 4 O  pz              1.1       0.2      22.3       0.2       0.1       0.6
 4 O  px             16.3      10.4       2.3       0.4       1.0       1.0
 4 O  py              6.1      43.5       0.1       0.1       1.3       0.0
 4 O  dz2             0.1       0.0       1.0       0.3       0.0       0.2
 4 O  dxz             0.1       0.0       2.2       0.4       0.3       0.2
 4 O  dyz             0.0       0.0       0.7       0.0       0.2       0.5
 4 O  dx2y2           0.1       0.8       0.2       0.2       0.9       0.0
 4 O  dxy             0.0       0.1       0.2       0.1       2.1       0.1
 5 H  s               0.0       0.0       0.0       2.3       1.5       1.1
 5 H  pz              0.0       0.0       0.0       0.3       0.1       0.1
 5 H  px              0.0       0.0       0.0       0.2       0.1       0.3
 5 H  py              0.0       0.0       0.0       0.7       0.4       0.9
 6 H  s               0.3       0.1       0.0       2.5       0.2       3.1
 6 H  pz              0.0       0.0       0.0       0.7       0.2       2.2
 6 H  px              0.0       0.0       0.0       0.6       0.1       0.1
 6 H  py              0.0       0.0       0.0       0.2       0.1       0.1
 7 H  s               0.8       0.3       0.1       2.4       2.2       0.8
 7 H  pz              0.0       0.0       0.0       0.6       0.0       0.0
 7 H  px              0.0       0.0       0.0       0.3       0.2       1.5
 7 H  py              0.0       0.0       0.0       0.6       0.1       0.0
 8 H  s               0.4       1.3       0.0       3.8       1.6       1.5
 8 H  pz              0.0       0.0       0.0       0.3       0.4       0.9
 8 H  px              0.1       0.0       0.0       0.0       2.0       0.1
 8 H  py              0.0       0.0       0.0       1.5       0.1       0.0
 9 H  s               0.4       0.5       2.0       5.5       1.4       0.1
 9 H  pz              0.0       0.0       0.0       2.3       0.4       0.6
 9 H  px              0.1       0.0       0.0       0.1       1.2       0.2
 9 H  py              0.0       0.0       0.0       0.1       0.9       1.0

                     24        25        26        27        28        29   
                   0.13519   0.14809   0.15983   0.16988   0.18032   0.20488
                   0.00000   0.00000   0.00000   0.00000   0.00000   0.00000
                  --------  --------  --------  --------  --------  --------
 0 C  s               1.0       0.1       2.0       0.7       1.7       3.5
 0 C  pz              1.0      12.2      13.1      17.5       0.2       5.1
 0 C  px              0.2      16.8       3.1       3.1       9.8      10.2
 0 C  py             11.7       1.5       8.2       4.1      16.8       5.5
 0 C  dz2             0.4       2.0       0.1       2.9       0.6       0.5
 0 C  dxz             0.1       0.0       0.1       1.7       0.7       0.2
 0 C  dyz             0.0       0.3       1.2       0.0       0.5       0.4
 0 C  dx2y2           0.2       0.4       0.9       0.4       2.1       0.5
 0 C  dxy             0.6       0.2       0.5       0.2       1.1       0.1
 1 C  s               0.7       0.0       4.6       1.3       2.6       0.3
 1 C  pz              7.9      14.2       2.4       0.3      12.4      16.9
 1 C  px              0.2       4.0       4.0       8.9       7.8       4.2
 1 C  py             26.5       5.1       0.8       1.8       1.2       2.0
 1 C  dz2             2.1       0.7       0.1       0.0       0.0       0.7
 1 C  dxz             0.0       0.0       0.2       0.2       0.4       0.6
 1 C  dyz             0.1       0.5       0.7       0.1       0.0       0.5
 1 C  dx2y2           1.3       0.1       0.0       0.1       0.1       0.5
 1 C  dxy             0.0       0.1       0.1       0.4       0.0       0.3
 2 N  s               0.2       0.8       5.1       1.5       0.7       1.2
 2 N  pz              0.0       0.4       1.5       4.1       0.4       4.9
 2 N  px              1.0       2.4       1.1       0.5       0.6       0.4
 2 N  py              1.0       0.1       0.4       2.3       0.2       0.9
 2 N  dz2             0.9       2.3       1.4       1.6       0.2       0.8
 2 N  dxz             1.1       0.0       1.7       0.2       0.8       0.6
 2 N  dyz             0.1       0.1       2.0       0.0       0.4       1.9
 2 N  dx2y2           0.7       0.5       0.2       0.8       0.1       0.7
 2 N  dxy             1.7       0.1       0.0       0.1       0.1       0.1
 3 O  s               0.0       0.5       1.0       2.0       0.0       0.8
 3 O  pz              0.1       0.2       2.8       0.4       0.4       0.4
 3 O  px              0.4       0.5       0.2       0.0       1.6       0.2
 3 O  py              0.5       0.3       0.3       2.2       0.9       0.7
 3 O  dz2             0.5       0.4       0.6       0.1       0.4       0.2
 3 O  dxz             0.0       0.2       3.2       0.0       0.1       0.3
 3 O  dyz             0.0       0.0       0.0       0.2       0.0       0.2
 3 O  dx2y2           0.0       0.0       0.1       0.1       1.5       0.1
 3 O  dxy             1.7       0.2       0.1       0.0       0.2       0.1
 4 O  s               0.3       1.6       0.8       0.3       0.4       0.1
 4 O  pz              0.2       0.3       0.0       0.0       0.3       2.8
 4 O  px              0.7       1.1       0.5       0.2       0.2       0.0
 4 O  py              0.5       0.4       0.3       0.4       0.3       0.5
 4 O  dz2             0.2       0.2       0.9       0.2       0.1       0.1
 4 O  dxz             0.0       0.6       0.1       0.2       0.0       1.2
 4 O  dyz             0.1       0.0       0.4       0.0       0.0       2.4
 4 O  dx2y2           0.7       0.0       0.1       0.5       0.1       0.0
 4 O  dxy             0.1       0.2       0.0       0.1       0.1       0.0
 5 H  s               2.8       0.0       2.5       8.5      14.3       4.0
 5 H  pz              0.0       0.8       0.7       0.4       0.2       0.9
 5 H  px              0.2       0.1       0.3       0.1       0.6       0.1
 5 H  py              1.4       0.1       0.0       1.4       2.6       0.8
 6 H  s               0.5       8.1       0.7      15.8       0.5       6.2
 6 H  pz              0.1       2.0       0.4       2.3       0.1       1.1
 6 H  px              0.0       0.0       0.3       1.0       0.5       0.2
 6 H  py              0.0       0.4       1.0       0.2       1.0       0.6
 7 H  s               0.1       9.4      13.4       2.4       2.2       3.5
 7 H  pz              0.0       0.0       0.3       3.1       0.0       0.0
 7 H  px              0.0       3.0       1.6       0.3       0.0       0.5
 7 H  py              0.0       1.0       0.2       0.0       2.6       0.0
 8 H  s              13.1       0.6       2.2       1.5       2.2       0.8
 8 H  pz              0.1       0.1       1.0       0.1       0.0       1.3
 8 H  px              0.0       0.1       0.0       0.2       0.0       0.3
 8 H  py              5.9       0.0       0.6       0.3       0.4       0.0
 9 H  s               7.4       1.5       4.6       0.2       3.2       5.1
 9 H  pz              1.8       1.0       1.7       0.0       0.9       0.2
 9 H  px              0.0       0.0       0.3       0.4       0.6       0.4
 9 H  py              0.0       0.2       0.8       0.0       0.0       0.3

                     30        31        32        33        34        35   
                   0.21371   0.23323   0.23578   0.27443   0.31771   0.33052
                   0.00000   0.00000   0.00000   0.00000   0.00000   0.00000
                  --------  --------  --------  --------  --------  --------
 0 C  s               0.0       0.1       0.2       0.0       0.5       1.4
 0 C  pz             31.8       1.3      11.6       2.9       0.9       2.4
 0 C  px              0.2       2.5      19.6       0.4       1.9       7.4
 0 C  py             33.5      13.6       5.5       0.3       0.2       3.6
 0 C  dz2             0.1       0.3       0.0       0.0       0.0       0.0
 0 C  dxz             0.1       0.2       0.0       0.1       0.5       0.0
 0 C  dyz             0.0       0.0       0.2       0.0       0.0       0.1
 0 C  dx2y2           0.0       0.0       0.0       0.1       0.0       0.1
 0 C  dxy             0.0       0.3       0.5       0.1       0.1       0.8
 1 C  s               0.1       0.4       0.1       1.6       1.6       6.5
 1 C  pz              2.0       6.2      13.1       0.1       4.6       4.3
 1 C  px              0.0       0.4       6.4       0.2      11.3       1.4
 1 C  py              0.6      28.2       2.3       0.8       5.1       8.5
 1 C  dz2             0.4       1.3       0.3       0.1       0.1       0.5
 1 C  dxz             0.1       0.0       0.1       0.2       0.2       0.0
 1 C  dyz             0.0       0.0       0.1       0.0       0.1       0.0
 1 C  dx2y2           0.3       0.4       0.3       0.1       0.0       0.1
 1 C  dxy             0.0       0.0       0.0       0.1       0.3       0.3
 2 N  s               0.5       3.1       2.0      11.1       2.1       1.1
 2 N  pz              0.1       4.7       0.3       1.1       2.4       0.1
 2 N  px              0.1       1.4       1.6      12.9      13.7       1.1
 2 N  py              2.3       4.1       3.2       3.3       1.4      10.9
 2 N  dz2             0.1       0.6       1.1       1.1       3.1       0.1
 2 N  dxz             0.3       0.1       0.9       0.2       0.6       0.2
 2 N  dyz             0.1       0.1       0.2       0.2       0.1       0.1
 2 N  dx2y2           0.4       0.4       0.1       0.8       0.0       2.3
 2 N  dxy             0.1       0.2       0.6       1.0       2.1       0.8
 3 O  s               2.2       3.5       0.4       0.9       0.1       2.5
 3 O  pz              0.1       2.9       0.2       0.4       0.3       0.1
 3 O  px              0.4       0.1       3.0       5.7       2.4       1.9
 3 O  py              3.2       2.3       2.5       9.3       0.9      10.3
 3 O  dz2             0.1       1.1       1.0       0.9       1.2       1.1
 3 O  dxz             0.1       0.7       0.1       0.2       0.8       0.0
 3 O  dyz             0.0       0.1       0.4       0.4       0.3       0.0
 3 O  dx2y2           0.1       0.3       2.0       9.8       0.7       1.9
 3 O  dxy             0.1       0.2       0.1       0.9       3.6       0.0
 4 O  s               0.0       0.3       4.1       0.5       8.8       0.8
 4 O  pz              0.2       0.7       0.5       1.3       1.6       0.2
 4 O  px              0.2       0.7       3.4      11.2      10.5       2.5
 4 O  py              0.2       2.5       2.7       3.0       7.9       1.0
 4 O  dz2             0.3       0.0       0.3       1.6       1.1       0.3
 4 O  dxz             0.0       0.2       0.1       1.2       0.7       0.9
 4 O  dyz             0.1       0.1       0.1       1.1       0.2       0.1
 4 O  dx2y2           1.0       0.0       0.0       0.1       0.0       2.3
 4 O  dxy             0.0       0.2       0.6       9.7       1.7       0.1
 5 H  s               2.6       1.8       0.1       0.1       0.2       0.5
 5 H  pz              0.1       0.1       0.1       0.0       0.1       0.1
 5 H  px              0.0       0.6       0.5       0.1       0.1       0.7
 5 H  py              1.6       0.9       0.2       0.0       0.2       0.0
 6 H  s               2.4       0.7       0.3       0.4       0.2       3.6
 6 H  pz              1.2       0.0       0.4       0.2       0.0       1.1
 6 H  px              0.1       0.5       0.0       0.1       0.6       0.0
 6 H  py              0.1       0.0       0.3       0.0       0.1       0.2
 7 H  s               0.2       0.9       1.8       0.7       0.2       0.4
 7 H  pz              0.1       0.0       0.1       0.0       0.1       0.1
 7 H  px              0.0       0.5       0.7       0.1       0.3       0.1
 7 H  py              0.0       0.3       0.0       0.0       0.3       0.3
 8 H  s               3.6       2.7       2.0       0.9       0.3       8.9
 8 H  pz              0.1       0.3       0.0       0.0       0.0       0.1
 8 H  px              0.1       0.1       0.0       0.0       0.2       0.2
 8 H  py              0.9       0.1       0.2       0.1       0.1       2.3
 9 H  s               4.4       3.8       0.7       0.3       0.8       0.5
 9 H  pz              1.3       0.4       0.5       0.2       0.1       0.0
 9 H  px              0.0       0.0       0.0       0.2       0.4       0.1
 9 H  py              0.1       0.5       0.3       0.0       0.1       0.5

                     36        37        38        39        40        41   
                   0.35845   0.38446   0.38847   0.41188   0.43051   0.46284
                   0.00000   0.00000   0.00000   0.00000   0.00000   0.00000
                  --------  --------  --------  --------  --------  --------
 0 C  s               6.5       0.9       2.5      17.2       3.0       9.3
 0 C  pz              3.8       1.1       1.5       0.9       2.9       0.7
 0 C  px              9.5       0.5       1.0       0.9       4.4       0.9
 0 C  py              0.5       2.4       0.3       0.3       2.4       1.4
 0 C  dxz             0.2       0.3       0.1       0.0       0.4       0.1
 0 C  dyz             0.3       0.0       0.0       0.0       0.0       0.2
 0 C  dx2y2           0.0       0.0       0.0       0.1       0.3       0.0
 0 C  dxy             0.0       0.0       0.1       0.0       0.5       0.0
 1 C  s               1.5       1.1       9.5       7.2       5.2       3.6
 1 C  pz              1.0       2.8       0.5       0.3       1.5       0.5
 1 C  px             11.8       6.5       4.7       4.6      11.3       0.7
 1 C  py              0.3       3.0       0.1       0.8       3.0       1.0
 1 C  dz2             0.0       0.1       0.1       0.0       0.3       0.1
 1 C  dxz             0.6       0.0       0.1       0.0       0.7       0.5
 1 C  dyz             0.1       0.0       0.0       0.4       0.3       0.0
 1 C  dx2y2           0.4       0.5       0.1       0.2       0.0       0.6
 1 C  dxy             1.0       0.1       0.0       0.0       0.0       0.0
 2 N  s               1.2       0.7       2.1       0.6       0.5       0.9
 2 N  pz              4.9      25.0       1.0       2.9       0.1       0.2
 2 N  px              0.8       1.1       4.9       2.3       3.7       0.9
 2 N  py              5.4       3.2       0.3       4.9      15.4       0.6
 2 N  dz2             0.1       0.0       7.5       0.4       0.0       7.0
 2 N  dxz             1.2       1.7       0.0       1.5       0.2       0.1
 2 N  dyz             1.0       1.4       0.4       1.9       0.7       0.3
 2 N  dx2y2           0.3       0.7       0.2       0.6       1.0       2.0
 2 N  dxy             0.3       1.0       0.3       0.2       0.4       0.2
 3 O  s               1.6       0.1       0.5       0.2       0.5       0.5
 3 O  pz              3.7      11.1       0.5       5.3       4.4       0.9
 3 O  px              3.6       1.7       3.6       0.4       0.2       4.3
 3 O  py             10.5       2.0       3.9       5.5       5.6      23.9
 3 O  dz2             0.3       0.5      13.2       0.1       4.8       0.7
 3 O  dxz             0.2       4.9       1.3       9.7       0.4       0.6
 3 O  dyz             0.0       0.2       0.2       1.3       1.3       0.1
 3 O  dx2y2           0.8       1.1       0.2       0.9       1.1       1.8
 3 O  dxy             0.3       0.4       0.4       0.1       0.6       0.2
 4 O  s               0.1       0.2       0.4       0.1       0.3       0.1
 4 O  pz              2.8       6.0       0.7      11.0       2.0       0.6
 4 O  px              0.2       0.6       9.8       2.7       2.7       0.1
 4 O  py              4.3       1.4       0.3       0.1       2.9      20.1
 4 O  dz2             2.2       1.9       5.0       1.0       3.2       0.9
 4 O  dxz             1.8       0.5       0.3       1.8       4.1       0.2
 4 O  dyz             0.2       7.8       0.6       0.6       1.5       0.4
 4 O  dx2y2           0.1       1.6       0.0       0.1       0.7       0.1
 4 O  dxy             0.1       0.1       1.5       0.2       2.3       0.1
 5 H  s               1.6       0.8       1.5       1.3       0.1       2.8
 5 H  pz              0.0       0.1       0.0       0.2       0.0       0.2
 5 H  px              0.0       0.0       0.0       0.1       0.2       0.4
 5 H  py              1.0       0.1       0.5       0.4       0.0       1.2
 6 H  s               1.1       0.1       2.4       1.7       0.4       2.4
 6 H  pz              0.3       0.1       1.0       0.6       0.0       1.0
 6 H  px              0.0       0.2       0.0       0.1       0.0       0.0
 6 H  py              0.1       0.1       0.1       0.1       0.0       0.2
 7 H  s               4.9       0.1       3.4       3.2       0.1       0.6
 7 H  pz              0.0       0.4       0.1       0.0       0.0       0.1
 7 H  px              1.1       0.0       0.6       1.2       0.1       0.1
 7 H  py              0.3       0.1       0.1       0.1       0.4       0.0
 8 H  s               0.3       0.7       1.5       1.1       0.3       2.1
 8 H  pz              0.0       0.2       0.1       0.2       0.1       0.0
 8 H  px              0.2       0.1       0.2       0.0       0.1       0.1
 8 H  py              0.1       0.0       0.3       0.1       0.2       0.7
 9 H  s               2.3       0.1       6.3       0.3       0.7       0.3
 9 H  pz              0.8       0.1       2.0       0.1       0.0       0.3
 9 H  px              0.1       0.2       0.0       0.0       0.0       0.3
 9 H  py              0.1       0.0       0.1       0.2       0.0       0.0

                     42        43        44        45        46        47   
                   0.48737   0.51538   0.53097   0.54081   0.55142   0.58890
                   0.00000   0.00000   0.00000   0.00000   0.00000   0.00000
                  --------  --------  --------  --------  --------  --------
 0 C  s               0.7       0.4       5.9       0.5       6.9       0.5
 0 C  pz              0.4       0.8       0.1       0.0       0.7       0.1
 0 C  px              1.5       0.4       1.2       0.1       3.5       0.1
 0 C  py              1.4       0.4       0.3       0.1       0.4       0.2
 0 C  dz2             0.0       0.1       0.2       0.0       0.0       0.3
 0 C  dxz             0.4       0.0       0.3       0.0       0.0       0.0
 0 C  dyz             0.2       0.2       0.0       0.0       0.6       0.1
 0 C  dx2y2           0.1       0.0       0.1       0.2       0.0       0.0
 0 C  dxy             0.3       0.0       0.0       0.0       0.0       0.0
 1 C  s               0.0       1.8       7.9       0.2       0.8       0.2
 1 C  pz              3.5       0.3       0.7       0.1       0.5       0.2
 1 C  px              1.8       1.4       1.1       0.3       0.8       0.1
 1 C  py              1.3       0.1       3.0       0.5       0.5       0.1
 1 C  dz2             0.0       0.0       0.0       0.0       0.0       0.1
 1 C  dxz             0.7       0.2       0.4       0.0       0.0       0.0
 1 C  dyz             0.7       0.3       0.0       0.0       0.1       0.0
 1 C  dx2y2           0.0       0.9       0.7       0.2       0.1       0.0
 1 C  dxy             0.5       0.1       0.5       0.2       0.0       0.0
 2 N  s               0.2       0.8       3.5       0.6       1.2       0.0
 2 N  pz              8.4       0.2       0.1       0.0       1.9      13.4
 2 N  px              0.6       0.8       1.9       0.2       1.2       0.8
 2 N  py              0.4       2.1       0.9       0.3       1.1       0.4
 2 N  dz2             2.7       0.7       0.3       0.2       0.1       0.3
 2 N  dxz            11.1       0.1       0.3       0.2       0.5       0.8
 2 N  dyz             0.9       0.2       0.1       0.0       2.2       0.2
 2 N  dx2y2           0.6       2.1       3.0       1.1       0.6       0.1
 2 N  dxy             0.3       1.8       0.5       0.1       0.2       0.1
 3 O  s               0.3       0.2       0.2       1.0       0.2       0.0
 3 O  pz              0.0       3.3       0.1       0.6       8.7      10.1
 3 O  px              0.3       0.8       0.7       3.5       5.1       0.4
 3 O  py              0.8       0.1       6.0       3.5       0.7       0.0
 3 O  dz2             5.4       4.0       2.6       6.5       0.3       0.7
 3 O  dxz            10.1      11.4       4.6       0.7       0.1       0.3
 3 O  dyz             0.8       0.8       0.3       1.4      18.8      24.8
 3 O  dx2y2           7.4       0.1      10.2       4.3       0.2       0.1
 3 O  dxy             0.8       3.0       3.0       5.1       0.3       1.8
 4 O  s               0.1       0.5       0.6       0.3       0.1       0.0
 4 O  pz              0.5      14.9       0.2       0.4       4.3      13.1
 4 O  px              8.7       7.6      10.6       7.7       1.5       1.2
 4 O  py              3.2       5.8       2.8      13.5       1.9       0.3
 4 O  dz2             0.0       2.4      10.6      10.3       1.1       1.6
 4 O  dxz             1.3       2.9       0.2       0.1      20.7       5.6
 4 O  dyz             8.6       9.7       0.5       0.4       0.5      14.9
 4 O  dx2y2           0.0       0.5       0.1      32.7       3.0       0.2
 4 O  dxy             5.4      11.2       0.9       0.5       5.4       3.6
 5 H  s               0.2       0.2       2.3       0.5       0.2       0.3
 5 H  pz              0.3       0.2       0.0       0.0       0.6       0.0
 5 H  px              0.2       0.1       0.1       0.0       0.0       0.1
 5 H  py              0.0       0.0       0.6       0.1       0.0       0.1
 6 H  s               0.1       0.4       1.6       0.1       0.9       0.3
[...]
 4 O  py              0.2       0.1       0.0       0.3       0.0       0.5
 4 O  dz2             3.0       0.3       0.9       0.5       1.7       0.5
 4 O  dxz             4.8       2.8       0.2       1.6       2.6       2.1
 4 O  dyz             0.9       0.9       0.1       1.8       1.7       0.1
 4 O  dx2y2           0.0       0.3       0.0       3.6       1.5       1.8
 4 O  dxy             0.7       0.1       0.4       0.2       0.0       1.0
 5 H  s               1.3       1.6       4.5       2.5       0.9       1.2
 5 H  pz              0.3       0.5       0.0       0.5       0.0       0.3
 5 H  px              0.2       0.4       0.0       0.1       0.2       0.1
 5 H  py              4.8       2.7      10.8       5.9       1.8       3.1
 6 H  s               0.2       1.3       6.3       0.1       2.7       0.1
 6 H  pz              1.0       3.2      13.8       0.1       6.9       0.2
 6 H  px              0.3       0.2       0.3       0.0       0.1       0.2
 6 H  py              0.2       0.6       0.1       0.4       0.2       0.0
 7 H  s               0.7       7.5       0.4       2.7       0.0       0.2
 7 H  pz              0.7       2.3       0.1       0.5       0.0       0.1
 7 H  px              1.0      12.6       0.7       4.1       0.0       0.4
 7 H  py              1.7       3.0       1.3       0.9       0.1       0.1
 8 H  s               0.3       1.4       1.9       0.6       1.7       4.6
 8 H  pz              1.0       0.5       0.1       0.0       0.0       0.7
 8 H  px              0.1       0.1       0.0       0.0       0.3       0.4
 8 H  py              0.6       2.5       4.1       1.3       3.4      11.8
 9 H  s               2.0       0.3       1.0       0.5       3.7       0.4
 9 H  pz              5.4       0.7       1.5       1.0       8.7       0.9
 9 H  px              0.9       0.0       0.1       0.0       0.3       0.3
 9 H  py              0.6       0.4       0.1       0.1       0.0       0.0

                    126       127       128       129       130       131   
                   3.72008   3.84167   4.80960   4.84763  21.90237  22.01502
                   0.00000   0.00000   0.00000   0.00000   0.00000   0.00000
                  --------  --------  --------  --------  --------  --------
 0 C  s               0.0       0.1       0.0       0.0      89.6      10.0
 0 C  px              0.1       0.2       0.0       0.0       0.0       0.0
 0 C  py              0.2       0.0       0.0       0.0       0.0       0.0
 0 C  dz2             0.1       0.1       0.0       0.0       0.0       0.0
 0 C  dxz             0.0       0.2       0.0       0.0       0.0       0.0
 0 C  dx2y2           0.6       0.0       0.0       0.0       0.0       0.0
 0 C  dxy             0.4       0.2       0.0       0.0       0.0       0.0
 1 C  s               1.5       1.0       0.0       0.1       9.9      89.5
 1 C  pz              2.5       0.3       0.0       0.0       0.0       0.0
 1 C  px              4.3       3.3       0.0       0.0       0.0       0.0
 1 C  py              0.4       1.7       0.0       0.1       0.0       0.0
 1 C  dz2             7.7       1.2       0.0       0.1       0.0       0.0
 1 C  dxz             0.3       0.8       0.0       0.0       0.0       0.0
 1 C  dyz             0.3       0.7       0.0       0.0       0.0       0.0
 1 C  dx2y2           0.3       2.6       0.0       0.1       0.0       0.0
 1 C  dxy             2.7       4.9       0.0       0.1       0.0       0.0
 2 N  s               1.1       1.3       0.1      10.6       0.0       0.1
 2 N  pz              1.2       0.1       0.8       0.1       0.0       0.0
 2 N  px             17.2       1.4       4.3       2.1       0.0       0.0
 2 N  py              5.3       0.4      12.9       1.5       0.0       0.0
 2 N  dz2             1.6       1.2       0.0       5.7       0.0       0.0
 2 N  dxz             0.4       1.5       1.8       1.0       0.0       0.0
 2 N  dyz             0.4       2.7       0.3       1.2       0.0       0.0
 2 N  dx2y2           1.8       8.2      12.2       3.8       0.0       0.0
 2 N  dxy             1.3      21.6       6.1       4.4       0.0       0.0
 3 O  s               2.6       3.0       5.9      11.9       0.0       0.0
 3 O  pz              0.3       0.4       0.0       0.0       0.0       0.0
 3 O  px              5.3       3.0       0.0       0.0       0.0       0.0
 3 O  py              0.3       1.5       7.0      11.7       0.0       0.0
 3 O  dz2             0.1       0.1       2.0       4.5       0.0       0.0
 3 O  dxz             0.1       0.5       0.0       0.0       0.0       0.0
 3 O  dyz             0.7       1.2       0.3       0.2       0.0       0.0
 3 O  dx2y2           0.3       0.3      10.1      11.2       0.0       0.0
 3 O  dxy            14.4      10.1       0.2       0.1       0.0       0.0
 4 O  s               0.0       3.3       8.5       8.8       0.0       0.0
 4 O  pz              0.1       0.1       0.8       0.7       0.0       0.0
 4 O  px              0.9       0.2       6.0       5.8       0.0       0.0
 4 O  py              3.6       4.5       3.1       2.2       0.0       0.0
 4 O  dz2             0.1       0.6       1.6       2.2       0.0       0.0
 4 O  dxz             1.0       0.2       1.9       2.3       0.0       0.0
 4 O  dyz             0.3       0.4       1.4       0.7       0.0       0.0
 4 O  dx2y2           6.8      10.2       0.9       1.4       0.0       0.0
 4 O  dxy             2.6       0.7      11.3       5.1       0.0       0.0
 5 H  s               0.1       0.0       0.0       0.0       0.0       0.0
 5 H  py              0.4       0.0       0.0       0.0       0.0       0.0
 6 H  pz              0.1       0.1       0.0       0.0       0.0       0.0
 7 H  s               0.2       0.2       0.0       0.0       0.0       0.0
 7 H  pz              0.1       0.0       0.0       0.0       0.0       0.0
 7 H  px              0.6       0.4       0.0       0.0       0.0       0.0
 8 H  s               0.1       0.6       0.0       0.1       0.0       0.0
 8 H  pz              0.0       0.1       0.0       0.0       0.0       0.0
 8 H  px              0.0       0.2       0.0       0.0       0.0       0.0
 8 H  py              0.0       0.9       0.0       0.0       0.0       0.0
 9 H  s               1.7       0.3       0.0       0.0       0.0       0.0
 9 H  pz              4.1       0.6       0.0       0.0       0.0       0.0
 9 H  px              0.4       0.0       0.0       0.0       0.0       0.0
 9 H  py              0.4       0.1       0.0       0.0       0.0       0.0

                    132       133       134   
                  31.85274  43.78270  43.88842
                   0.00000   0.00000   0.00000
                  --------  --------  --------
 2 N  s              99.6       0.1       0.0
 3 O  s               0.1      54.3      45.6
 4 O  s               0.1      45.5      54.3


                      *****************************
                      * MAYER POPULATION ANALYSIS *
                      *****************************

  NA   - Mulliken gross atomic population
  ZA   - Total nuclear charge
  QA   - Mulliken gross atomic charge
  VA   - Mayer's total valence
  BVA  - Mayer's bonded valence
  FA   - Mayer's free valence

  ATOM       NA         ZA         QA         VA         BVA        FA
  0 C      6.4388     6.0000    -0.4388     3.7966     3.7966    -0.0000
  1 C      6.2605     6.0000    -0.2605     3.7986     3.7986    -0.0000
  2 N      6.7573     7.0000     0.2427     4.5318     4.5318    -0.0000
  3 O      8.1924     8.0000    -0.1924     2.2527     2.2527    -0.0000
  4 O      8.1989     8.0000    -0.1989     2.2432     2.2432     0.0000
  5 H      0.8224     1.0000     0.1776     0.9575     0.9575     0.0000
  6 H      0.8425     1.0000     0.1575     0.9608     0.9608     0.0000
  7 H      0.8447     1.0000     0.1553     0.9611     0.9611    -0.0000
  8 H      0.8143     1.0000     0.1857     0.9466     0.9466     0.0000
  9 H      0.8282     1.0000     0.1718     0.9515     0.9515    -0.0000

  Mayer bond orders larger than 0.100000
B(  0-C ,  1-C ) :   0.9221 B(  0-C ,  5-H ) :   0.9613 B(  0-C ,  6-H ) :   0.9673 
B(  0-C ,  7-H ) :   0.9654 B(  1-C ,  2-N ) :   0.8526 B(  1-C ,  8-H ) :   0.9630 
B(  1-C ,  9-H ) :   0.9383 B(  2-N ,  3-O ) :   1.8589 B(  2-N ,  4-O ) :   1.8561 
B(  3-O ,  4-O ) :   0.2845 

-------
TIMINGS
-------

Total SCF time: 0 days 0 hours 0 min 8 sec 

Total time                  ....       8.667 sec
Sum of individual times     ....       8.618 sec  ( 99.4%)

SCF preparation             ....       0.744 sec  (  8.6%)
Fock matrix formation       ....       6.464 sec  ( 74.6%)
  Startup                   ....       0.010 sec  (  0.2% of F)
  Split-RI-J                ....       0.877 sec  ( 13.6% of F)
  XC integration            ....       5.448 sec  ( 84.3% of F)
    Basis function eval.    ....       0.943 sec  ( 17.3% of XC)
    Density eval.           ....       1.607 sec  ( 29.5% of XC)
    XC-Functional eval.     ....       0.795 sec  ( 14.6% of XC)
    XC-Potential eval.      ....       1.765 sec  ( 32.4% of XC)
Diagonalization             ....       0.000 sec  (  0.0%)
Density matrix formation    ....       0.053 sec  (  0.6%)
Total Energy calculation    ....       0.005 sec  (  0.1%)
Population analysis         ....       1.211 sec  ( 14.0%)
Orbital Transformation      ....       0.014 sec  (  0.2%)
Orbital Orthonormalization  ....       0.000 sec  (  0.0%)
DIIS solution               ....       0.117 sec  (  1.4%)
  MO trafo                  ....       0.000 sec  (  0.0 % of DIIS)
  Orb grad                  ....       0.000 sec  (  0.0 % of DIIS)
  Energy W gradient         ....       0.000 sec  (  0.0 % of DIIS)
  DIIS error                ....       0.004 sec  (  3.7 % of DIIS)
  DIIS work                 ....       0.104 sec  ( 88.6 % of DIIS)
  Form Q                    ....       0.000 sec  (  0.0 % of DIIS)
  Form QpQm                 ....       0.000 sec  (  0.0 % of DIIS)
  Exp/Cayley                ....       0.000 sec  (  0.0 % of DIIS)
  Orb update                ....       0.000 sec  (  0.0 % of DIIS)
  Wake-sleep                ....       0.002 sec  (  1.9 % of DIIS)
SOSCF solution              ....       0.010 sec  (  0.1%)
  MO trafo                  ....       0.008 sec  ( 75.8 % of SOSCF)
  Orb grad                  ....       0.000 sec  (  0.7 % of SOSCF)
  Rot update                ....       0.000 sec  (  0.2 % of SOSCF)
  Step                      ....       0.002 sec  ( 22.7 % of SOSCF)
Finished LeanSCF after  11.0 sec

Maximum memory used throughout the entire LEANSCF-calculation: 13.6 MB


-------------------------------------------------------------------------------
                          DFT DISPERSION CORRECTION                            
                                                                               
                                DFTD4 V3.4.0                                   
-------------------------------------------------------------------------------
The R2SCAN3C composite method is recognized
Using three-body term ABC
Active option DFTDOPT                   ...         5   

-------------------------   ----------------
Dispersion correction           -0.001889434
-------------------------   ----------------

------------------   -----------------
gCP correction             0.011136712
------------------   -----------------

-------------------------   --------------------
FINAL SINGLE POINT ENERGY      -284.281055189472
-------------------------   --------------------


------------------------------------------------------------------------------
                              ORCA PROPERTY CALCULATIONS
------------------------------------------------------------------------------

GBWName                                 ... sp.gbw
Number of atoms                         ...     10
Number of basis functions               ...    135
Max core memory                         ...   1024 MB

Electric properties:
Dipole moment                           ... YES
Quadrupole moment                       ...  NO
Static polarizability (Dipole/Dipole)   ...  NO
Static polarizability (Dipole/Quad.)    ...  NO
Static polarizability (Quad./Quad.)     ...  NO
Static polarizability (Velocity)        ...  NO

Atomic electric properties:
Dipole moment                           ...  NO
Quadrupole moment                       ...  NO
Static polarizability                   ...  NO

Choice of electric origin               ... Center of mass
Position of electric origin             ...    -0.000036     0.000011    -0.000002

General magnetic properties:
Magnetizability                         ...  NO

EPR properties:
g-Tensor (aka g-matrix)                 ...  NO
Zero-Field splitting spin-orbit         ...  NO
Zero-field splitting spin-spin          ...  NO
Hyperfine couplings                     ...  NO (   0 nuclei)
Quadrupole couplings                    ...  NO (   0 nuclei)
Contact density                         ...  NO (   0 nuclei)

NMR properties:
Chemical shifts                         ...  NO (   0 nuclei)
Spin-rotation constants                 ...  NO (   0 nuclei)
Spin-spin couplings                     ...  NO (   0 nuclei,    0 pairs)

Choice of magnetic origin               ... GIAO
Position of magnetic origin             ...     0.000000     0.000000     0.000000

Properties with geometric perturbations:
SCF Hessian                             ...  NO
IR spectrum                             ...  NO
VCD spectrum                            ...  NO
X-ray spectroscopy properties:
SCF XES/XAS/RIXS spectra                ...  NO


-------------
DIPOLE MOMENT
-------------

Method             : SCF
Type of density    : Electron Density
Multiplicity       :   1
Irrep              :   0
Energy             :  -284.2903024673379946 Eh
Relativity type    : 
Basis              : AO
                                X                 Y                 Z
Electronic contribution:      6.179896840      -1.369308008      -0.144884540
Nuclear contribution   :     -7.430694324       1.966249906      -0.136209508
                        -----------------------------------------
Total Dipole Moment    :     -1.250797484       0.596941898      -0.281094048
                        -----------------------------------------
Magnitude (a.u.)       :      1.414159765
Magnitude (Debye)      :      3.594508462



--------------------
Rotational spectrum 
--------------------
 
Rotational constants in cm-1:             0.334744             0.142782             0.112559 
Rotational constants in MHz :         10035.381361          4280.489115          3374.432104 

Dipole components along the rotational axes: 
x,y,z [a.u.] :    -1.294691     0.473297    -0.315616 
x,y,z [Debye]:    -3.290843     1.203025    -0.802232 

 

Dipole moment calculation done in   1.3 sec 

Maximum memory used throughout the entire PROP-calculation: 8.0 MB

--------------------------------
SUGGESTED CITATIONS FOR THIS RUN
--------------------------------

Below you find a list of papers that are relevant to this ORCA run
We neither can nor want to force you to cite these papers, but we appreciate if you do
You receive ORCA, which is the product of decades of hard work by many enthusiastic individuals, for free
The only thing we kindly ask in return is that you cite our papers,
We deeply appreciate it, if you show your appreciation for ORCA by not just citing the generic ORCA reference.

Please note that relegating all ORCA citations to the supporting information does *not* help us.
SI sections are not indexed - citations you put there will not count into any citation statistics
But we need these citations in order to attract the funding resources that allow us to do what we are doing

Therefore, if you are a happy ORCA user, please consider citing a few of the papers listed below in the main body of your paper

In addition to the list printed below, the program has created the file sp.bibtex that contains the list in bibtex format
You can import this file easily into all common literature databanks and citation aid programs


List of essential papers. We consider these as the minimum necessary citations

  1. Neese,F.
     Software update: the ORCA program system, version 5.0
     WIRES Comput. Molec. Sci., 2022 12(1)e1606
     doi.org/10.1002/wcms.1606
  2. Grimme,S.; Hansen,A.; Ehlert,S.; Mewes,J.
     r2SCAN-3c: A 'Swiss army knife' composite electronic-structure method
     J. Chem. Phys., 2021 154 064103
     doi.org/10.1063/5.0040021

List of papers to cite with high priority. The work reported in these papers was absolutely
necessary for this run to complete.
Our perspective: the developers of density functionals and basis sets usually get cited in chemistry papers
Good! But without the algorithms to do something with them, the functionals or basis sets would not do anything.
Hence, in our opinion, the algorithm design and method developments papers are equally worthy of getting cited

  1. Neese,F.
     An improvement of the resolution of the identity approximation for the formation of the Coulomb matrix
     J. Comp. Chem., 2003 24(14)1740-1747
     doi.org/10.1002/jcc.10318
  2. Neese,F.
     The SHARK Integral Generation and Digestion System
     J. Comp. Chem., 2022  1-16
     doi.org/10.1002/jcc.26942
  3. Lehtola,S.; Steigemann,C.; Oliveira,M.; Marques,M.
     Recent developments in Libxc - A comprehensive library of functionals for density functional theory
     Software X, 2018 7 
     doi.org/10.1016/j.softx.2017.11.002
  4. Caldeweyher,E.; Bannwarth,C.; Grimme,S.
     Extension of the D3 dispersion coefficient model
     J. Chem. Phys., 2017 147 034112
     doi.org/10.1063/1.4993215
  5. Caldeweyher,E.; Ehlert,S.; Hansen,A.; Neugebauer,H.; Spicher,S.; Bannwarth,C.; Grimme,S.
     A generally applicable atomic-charge dependent London dispersion correction
     J. Chem. Phys., 2019 150 154122
     doi.org/10.1063/1.5090222
  6. Caldeweyher,E.; Mewes,J.; Ehlert,S.; Grimme,S.
     Extension and evaluation of the D4 London-dispersion model for periodic systems
     Phys. Chem. Chem. Phys., 2020 22(16)8499-8512
     doi.org/10.1039/D0CP00502A
  7. Wittmann,L.; Gordiy,I.; Friede,M.; Helmich-Paris,B.; Grimme,S.; Hansen,A.; Bursch,M.
     Extension of the D3 and D4 London Dispersion Corrections to the full Actinides Series
     Phys. Chem. Chem. Phys., 2024 26(32)21379-21394
     doi.org/https://doi.org/10.1039/D4CP01514B 

List of suggested additional citations. These are papers that are important in the 'surrounding' of 
of this run, or papers that preceded the highly important papers. If you like your results we are grateful for a citation.

  1. Neese,F.
     The ORCA program system
     WIRES Comput. Molec. Sci., 2012 2(1)73-78
     doi.org/10.1002/wcms.81
  2. Neese,F.
     Software update: the ORCA program system, version 4.0
     WIRES Comput. Molec. Sci., 2018 8(1)1-6
     doi.org/10.1002/wcms.1327
  3. Neese,F.; Wennmohs,F.; Becker,U.; Riplinger,C.
     The ORCA quantum chemistry program package
     J. Chem. Phys., 2020 152 Art. No. L224108
     doi.org/10.1063/5.0004608

List of optional additional citations

  1. Neese,F.
     Approximate second-order SCF convergence for spin unrestricted wavefunctions
     Chem. Phys. Lett., 2000 325(1-3)93-98
     doi.org/10.1016/s0009-2614(00)00662-x

Timings for individual modules:

Sum of individual times          ...       13.021 sec (=   0.217 min)
Startup calculation              ...        0.426 sec (=   0.007 min)   3.3 %
SCF iterations                   ...       11.065 sec (=   0.184 min)  85.0 %
Property calculations            ...        1.530 sec (=   0.026 min)  11.8 %
                             ****ORCA TERMINATED NORMALLY****
TOTAL RUN TIME: 0 days 0 hours 0 minutes 15 seconds 495 msec
