 Entering Gaussian System
 *********************************************
 Gaussian 98:
 frequency output generated by the xtb code
 *********************************************
                         Standard orientation:
 --------------------------------------------------------------------
  Center     Atomic     Atomic              Coordinates (Angstroms)
  Number     Number      Type              X           Y           Z
 --------------------------------------------------------------------
    1          6             0        1.722694    1.476515    0.442430
    2          6             0        0.443799    0.778302    0.920559
    3          1             0        0.249240    1.140938    1.933286
    4          6             0        0.443297   -0.777806    0.921206
    5          1             0        0.248502   -1.139476    1.934234
    6          6             0        1.721749   -1.477236    0.443671
    7          8             0        2.769608   -1.282989    1.348085
    8         16             0        3.805690   -0.000790    1.041085
    9          8             0        4.731891   -0.000629    2.112628
   10          8             0        2.770450    1.282353    1.346982
   11          6             0       -0.777842   -1.116833    0.026018
   12          6             0       -0.442521   -0.670840   -1.384452
   13          6             0       -0.442095    0.669995   -1.385004
   14          6             0       -0.777129    1.117366    0.025094
   15          6             0       -1.769611    0.000749    0.424967
   16         17             0       -3.245112    0.000818   -0.547522
   17         17             0       -2.218206    0.001595    2.124733
   18         17             0       -1.357028    2.762517    0.172628
   19         17             0       -0.076707    1.738372   -2.643163
   20         17             0       -0.077802   -1.740493   -2.641729
   21         17             0       -1.358793   -2.761493    0.174908
   22          1             0        1.528930    2.553325    0.393530
   23          1             0        2.009249    1.132935   -0.559865
   24          1             0        1.527297   -2.553962    0.395657
   25          1             0        2.008541   -1.134667   -0.558901
 --------------------------------------------------------------------
     1 basis functions        1 primitive gaussians
     1 alpha electrons        1 beta electrons
 
 Harmonic frequencies (cm**-1), IR intensities (km*mol⁻¹),
 Raman scattering activities (A**4/amu), Raman depolarization ratios,
 reduced masses (AMU), force constants (mDyne/A) and normal coordinates:
                      1                      2                      3
                        a                      a                      a 
 Frequencies --    53.3116                64.9546                83.4428
 Red. masses --    26.3597                22.9221                25.6631
 Frc consts  --     0.0000                 0.0000                 0.0000
 IR Inten    --     3.2455                 1.4461                 2.9270
 Raman Activ --     0.0000                 0.0000                 0.0000
 Depolar     --     0.0000                 0.0000                 0.0000
 Atom AN      X      Y      Z        X      Y      Z        X      Y      Z
   1   6     0.07  -0.02  -0.09    -0.04   0.13   0.27    -0.01  -0.09  -0.20
   2   6     0.06  -0.00  -0.10    -0.04  -0.00   0.06     0.04  -0.05  -0.02
   3   1     0.02  -0.00  -0.03    -0.05  -0.03   0.02     0.04   0.00  -0.01
   4   6     0.06   0.00  -0.10     0.04  -0.00  -0.06    -0.04  -0.05   0.02
   5   1     0.02  -0.00  -0.03     0.05  -0.03  -0.02    -0.04   0.00   0.01
   6   6     0.07   0.02  -0.09     0.05   0.13  -0.27     0.01  -0.09   0.20
   7   8     0.01  -0.02  -0.00     0.11  -0.00  -0.35    -0.06   0.17   0.26
   8  16     0.11   0.00   0.38     0.00   0.25  -0.00    -0.00   0.10  -0.00
   9   8    -0.22   0.00   0.52    -0.00  -0.06   0.00    -0.00   0.27  -0.00
  10   8     0.01   0.02  -0.00    -0.11  -0.00   0.35     0.06   0.17  -0.26
  11   6     0.04  -0.00  -0.06    -0.01  -0.02   0.00    -0.02  -0.04  -0.02
  12   6    -0.04  -0.00  -0.08    -0.05  -0.04  -0.01    -0.03  -0.02  -0.02
  13   6    -0.04  -0.00  -0.08     0.05  -0.04   0.01     0.03  -0.02   0.02
  14   6     0.04   0.00  -0.06     0.01  -0.02  -0.00     0.02  -0.04   0.02
  15   6     0.06  -0.00   0.00     0.00  -0.01  -0.00    -0.00  -0.04   0.00
  16  17    -0.01   0.00   0.18     0.00   0.01  -0.00    -0.00   0.04   0.00
  17  17     0.29  -0.00   0.05    -0.00  -0.04  -0.00     0.00  -0.13   0.00
  18  17     0.09   0.01  -0.06     0.01  -0.02  -0.14     0.05  -0.07   0.11
  19  17    -0.32  -0.00  -0.20     0.40  -0.11   0.07     0.46   0.01   0.19
  20  17    -0.32   0.00  -0.20    -0.40  -0.11  -0.07    -0.46   0.01  -0.19
  21  17     0.09  -0.01  -0.06    -0.01  -0.02   0.14    -0.05  -0.07  -0.11
  22   1     0.02  -0.01  -0.04    -0.02   0.04   0.13    -0.02  -0.03  -0.11
  23   1     0.04  -0.02  -0.02     0.01   0.09   0.06    -0.01  -0.07  -0.04
  24   1     0.02   0.01  -0.04     0.02   0.04  -0.13     0.02  -0.03   0.11
  25   1     0.04   0.02  -0.02    -0.01   0.09  -0.06     0.01  -0.07   0.04
                      4                      5                      6
                        a                      a                      a 
 Frequencies --    85.2355               102.7272               115.3050
 Red. masses --    31.8016                32.3398                24.7199
 Frc consts  --     0.0000                 0.0000                 0.0000
 IR Inten    --     0.2433                 0.3000                 2.6993
 Raman Activ --     0.0000                 0.0000                 0.0000
 Depolar     --     0.0000                 0.0000                 0.0000
 Atom AN      X      Y      Z        X      Y      Z        X      Y      Z
   1   6     0.04   0.01   0.12     0.04   0.02  -0.04    -0.02   0.04   0.22
   2   6     0.03  -0.00   0.09    -0.01   0.11  -0.02    -0.05   0.00   0.07
   3   1    -0.00  -0.00   0.02     0.00   0.04  -0.01    -0.04  -0.00   0.02
   4   6     0.03   0.00   0.09     0.01   0.11   0.02    -0.05  -0.00   0.07
   5   1    -0.00   0.00   0.02    -0.00   0.04   0.01    -0.04   0.00   0.02
   6   6     0.04  -0.01   0.12    -0.04   0.02   0.04    -0.02  -0.04   0.22
   7   8     0.06   0.01   0.12    -0.04  -0.13   0.06    -0.08   0.02   0.31
   8  16     0.06   0.00   0.01    -0.00  -0.27   0.00    -0.21   0.00   0.03
   9   8     0.18   0.00  -0.11    -0.00  -0.16   0.00     0.22  -0.00  -0.29
  10   8     0.06  -0.01   0.12     0.04  -0.13  -0.06    -0.08  -0.02   0.31
  11   6     0.07   0.00   0.05     0.04   0.05   0.02     0.02  -0.00  -0.03
  12   6     0.05  -0.00   0.04     0.00   0.06   0.00     0.05   0.00  -0.02
  13   6     0.05   0.00   0.04    -0.00   0.06  -0.00     0.05  -0.00  -0.02
  14   6     0.07  -0.00   0.05    -0.04   0.05  -0.02     0.02   0.00  -0.03
  15   6     0.03  -0.00  -0.03     0.00   0.01   0.00     0.02  -0.00   0.00
  16  17     0.27  -0.00  -0.41    -0.00  -0.43   0.00    -0.10  -0.00   0.26
  17  17    -0.33  -0.00  -0.17     0.00   0.35  -0.00     0.26   0.00   0.09
  18  17     0.19   0.02   0.12    -0.39  -0.00  -0.12     0.08   0.05  -0.35
  19  17    -0.42   0.02  -0.06     0.20   0.16   0.09    -0.08  -0.05  -0.12
  20  17    -0.42  -0.02  -0.06    -0.20   0.16  -0.09    -0.08   0.05  -0.12
  21  17     0.19  -0.02   0.12     0.39  -0.00   0.12     0.08  -0.05  -0.35
  22   1     0.01   0.00   0.05     0.04   0.01   0.00    -0.01   0.01   0.08
  23   1     0.01   0.01   0.03    -0.00   0.01  -0.01     0.02   0.03   0.06
  24   1     0.01  -0.00   0.05    -0.04   0.01  -0.00    -0.01  -0.01   0.08
  25   1     0.01  -0.01   0.03     0.00   0.01   0.01     0.02  -0.03   0.06
                      7                      8                      9
                        a                      a                      a 
 Frequencies --   116.1393               132.2906               133.8446
 Red. masses --    34.3778                35.1759                35.1043
 Frc consts  --     0.0000                 0.0000                 0.0000
 IR Inten    --     0.0116                 0.1987                 0.0230
 Raman Activ --     0.0000                 0.0000                 0.0000
 Depolar     --     0.0000                 0.0000                 0.0000
 Atom AN      X      Y      Z        X      Y      Z        X      Y      Z
   1   6     0.02   0.04  -0.03    -0.00  -0.01   0.02     0.00   0.01   0.04
   2   6     0.00   0.08  -0.01     0.00  -0.03   0.00    -0.00  -0.00   0.01
   3   1     0.00   0.03  -0.00    -0.00  -0.01   0.00    -0.00  -0.00   0.00
   4   6    -0.00   0.08   0.01    -0.00  -0.03  -0.00    -0.00   0.00   0.01
   5   1    -0.00   0.03   0.00     0.00  -0.01  -0.00    -0.00   0.00   0.00
   6   6    -0.02   0.04   0.03     0.00  -0.01  -0.02     0.00  -0.01   0.04
   7   8    -0.05  -0.04   0.07     0.02   0.01  -0.05    -0.01   0.00   0.06
   8  16    -0.00  -0.14   0.00     0.00   0.06  -0.00    -0.03   0.00   0.02
   9   8     0.00  -0.07  -0.00     0.00  -0.00   0.00     0.04  -0.00  -0.04
  10   8     0.05  -0.04  -0.07    -0.02   0.01   0.05    -0.01  -0.00   0.06
  11   6     0.01   0.02  -0.00    -0.01  -0.03  -0.00    -0.00  -0.02   0.01
  12   6     0.00  -0.00  -0.00    -0.01  -0.01   0.01    -0.01  -0.00   0.01
  13   6    -0.00  -0.00   0.00     0.01  -0.01  -0.01    -0.01   0.00   0.01
  14   6    -0.01   0.02   0.00     0.01  -0.03   0.00    -0.00   0.02   0.01
  15   6     0.00   0.01  -0.00     0.00  -0.00   0.00     0.01  -0.00  -0.00
  16  17     0.00   0.62  -0.00     0.00   0.36  -0.00     0.01   0.00   0.01
  17  17    -0.00  -0.46   0.00     0.00   0.43  -0.00     0.02   0.00  -0.00
  18  17    -0.33  -0.04  -0.24    -0.27  -0.19   0.40    -0.10  -0.03   0.29
  19  17     0.02  -0.01   0.01     0.05  -0.20  -0.17     0.10  -0.50  -0.37
  20  17    -0.02  -0.01  -0.01    -0.05  -0.20   0.17     0.10   0.50  -0.37
  21  17     0.33  -0.04   0.24     0.27  -0.19  -0.40    -0.10   0.03   0.29
  22   1     0.02   0.01   0.00    -0.01  -0.00   0.01    -0.00   0.00   0.01
  23   1    -0.01   0.01  -0.01     0.01  -0.00   0.01     0.01   0.01   0.01
  24   1    -0.02   0.01  -0.00     0.01  -0.00  -0.01    -0.00  -0.00   0.01
  25   1     0.01   0.01   0.01    -0.01  -0.00  -0.01     0.01  -0.01   0.01
                     10                     11                     12
                        a                      a                      a 
 Frequencies --   140.2585               155.2659               167.4078
 Red. masses --    32.7103                31.3989                30.0470
 Frc consts  --     0.0000                 0.0000                 0.0000
 IR Inten    --     1.2722                 1.1160                 3.2253
 Raman Activ --     0.0000                 0.0000                 0.0000
 Depolar     --     0.0000                 0.0000                 0.0000
 Atom AN      X      Y      Z        X      Y      Z        X      Y      Z
   1   6     0.08   0.00   0.06     0.02   0.11   0.00     0.01  -0.04   0.00
   2   6     0.06   0.01   0.02    -0.01   0.14  -0.01     0.01   0.01   0.12
   3   1     0.01   0.00   0.01    -0.01   0.04  -0.00     0.01   0.01   0.03
   4   6     0.06  -0.01   0.02     0.01   0.14   0.01     0.01  -0.01   0.12
   5   1     0.01  -0.00   0.01     0.01   0.04   0.00     0.01  -0.01   0.03
   6   6     0.08  -0.00   0.06    -0.02   0.11  -0.00     0.01   0.04   0.00
   7   8     0.10   0.02   0.07    -0.05  -0.01   0.05     0.15   0.02  -0.15
   8  16     0.18  -0.00   0.05    -0.00  -0.12   0.00     0.33  -0.00  -0.02
   9   8     0.17  -0.00  -0.00    -0.00  -0.06   0.00     0.04   0.00   0.15
  10   8     0.10  -0.02   0.07     0.05  -0.01  -0.05     0.15  -0.02  -0.15
  11   6     0.06   0.00   0.00     0.03   0.13   0.01    -0.01  -0.01   0.12
  12   6     0.08  -0.00  -0.00     0.02   0.12   0.03     0.00   0.01   0.14
  13   6     0.08   0.00  -0.00    -0.02   0.12  -0.03     0.00  -0.01   0.14
  14   6     0.06  -0.00   0.00    -0.03   0.13  -0.01    -0.01   0.01   0.12
  15   6     0.09  -0.00  -0.01     0.00   0.07  -0.00    -0.03   0.00   0.12
  16  17     0.23  -0.00  -0.11    -0.00  -0.25   0.00     0.00   0.00   0.12
  17  17     0.20  -0.00  -0.01    -0.00  -0.42   0.00    -0.41   0.00   0.15
  18  17    -0.55  -0.23  -0.06    -0.02   0.25   0.24    -0.04   0.07  -0.37
  19  17    -0.08   0.08   0.00     0.16  -0.16  -0.35    -0.02  -0.29   0.04
  20  17    -0.08  -0.08   0.00    -0.16  -0.16   0.35    -0.02   0.29   0.04
  21  17    -0.55   0.23  -0.06     0.02   0.25  -0.24    -0.04  -0.07  -0.37
  22   1     0.03   0.00   0.02     0.02   0.04   0.03     0.01  -0.01   0.00
  23   1     0.03   0.00   0.02    -0.01   0.05  -0.01    -0.03  -0.02  -0.01
  24   1     0.03  -0.00   0.02    -0.02   0.04  -0.03     0.01   0.01   0.00
  25   1     0.03  -0.00   0.02     0.01   0.05   0.01    -0.03   0.02  -0.01
                     13                     14                     15
                        a                      a                      a 
 Frequencies --   205.8470               212.4365               231.3369
 Red. masses --    29.1133                12.8593                16.3465
 Frc consts  --     0.0000                 0.0000                 0.0000
 IR Inten    --     2.0317                 2.2375                 0.0304
 Raman Activ --     0.0000                 0.0000                 0.0000
 Depolar     --     0.0000                 0.0000                 0.0000
 Atom AN      X      Y      Z        X      Y      Z        X      Y      Z
   1   6     0.11  -0.05   0.04     0.14  -0.29  -0.19    -0.11  -0.05  -0.03
   2   6     0.02  -0.01  -0.08     0.04   0.01  -0.09    -0.08   0.00  -0.02
   3   1    -0.01  -0.00  -0.03     0.05   0.05  -0.03    -0.02   0.00  -0.01
   4   6     0.02   0.01  -0.08    -0.04   0.01   0.09     0.08   0.00   0.02
   5   1    -0.01   0.00  -0.03    -0.05   0.05   0.03     0.02   0.00   0.01
   6   6     0.11   0.05   0.04    -0.14  -0.29   0.19     0.11  -0.05   0.03
   7   8     0.10   0.08   0.11     0.21  -0.03  -0.28     0.25  -0.42  -0.00
   8  16     0.32  -0.00   0.11     0.00   0.29  -0.00    -0.00  -0.13   0.00
   9   8     0.33  -0.00  -0.00     0.00  -0.14   0.00     0.00   0.64  -0.00
  10   8     0.10  -0.08   0.11    -0.21  -0.03   0.28    -0.25  -0.42   0.00
  11   6    -0.01   0.01  -0.10     0.01   0.05   0.02     0.05   0.01   0.02
  12   6    -0.04  -0.01  -0.12     0.02   0.05   0.03     0.03   0.02   0.01
  13   6    -0.04   0.01  -0.12    -0.02   0.05  -0.03    -0.03   0.02  -0.01
  14   6    -0.01  -0.01  -0.10    -0.01   0.05  -0.02    -0.05   0.01  -0.02
  15   6    -0.04  -0.00  -0.09     0.00   0.04   0.00     0.00   0.00   0.00
  16  17    -0.47   0.00   0.32     0.00  -0.02   0.00     0.00   0.08  -0.00
  17  17    -0.36   0.00  -0.25    -0.00  -0.10   0.00     0.00   0.02   0.00
  18  17    -0.01  -0.05   0.11    -0.08   0.08  -0.02     0.01   0.07   0.01
  19  17     0.05   0.16  -0.09     0.03   0.05  -0.08     0.04   0.02  -0.03
  20  17     0.05  -0.16  -0.09    -0.03   0.05   0.08    -0.04   0.02   0.03
  21  17    -0.01   0.05   0.11     0.09   0.08   0.02    -0.01   0.07  -0.01
  22   1     0.04  -0.01   0.01     0.08  -0.08  -0.23     0.01  -0.00   0.04
  23   1     0.05  -0.01   0.01     0.11  -0.25   0.02    -0.04   0.01  -0.02
  24   1     0.04   0.01   0.01    -0.08  -0.08   0.23    -0.01  -0.00  -0.04
  25   1     0.05   0.01   0.01    -0.11  -0.25  -0.02     0.04   0.01   0.02
                     16                     17                     18
                        a                      a                      a 
 Frequencies --   259.3575               264.1042               306.7123
 Red. masses --    26.8269                18.3147                27.7982
 Frc consts  --     0.0000                 0.0000                 0.0000
 IR Inten    --     0.8918                 4.2955                 1.7028
 Raman Activ --     0.0000                 0.0000                 0.0000
 Depolar     --     0.0000                 0.0000                 0.0000
 Atom AN      X      Y      Z        X      Y      Z        X      Y      Z
   1   6     0.13   0.05  -0.14    -0.13   0.18   0.16     0.04   0.12  -0.09
   2   6     0.17   0.01  -0.15    -0.01   0.00   0.18    -0.02   0.21  -0.08
   3   1     0.07  -0.01  -0.04    -0.03  -0.00   0.05     0.00   0.09  -0.03
   4   6     0.17  -0.01  -0.15    -0.01  -0.00   0.18     0.02   0.21   0.08
   5   1     0.07   0.01  -0.04    -0.03   0.00   0.05    -0.00   0.09   0.03
   6   6     0.13  -0.05  -0.14    -0.13  -0.18   0.16    -0.04   0.12   0.09
   7   8    -0.06  -0.11   0.09     0.09  -0.09  -0.16     0.09  -0.04  -0.03
   8  16    -0.36   0.00   0.04    -0.06  -0.00  -0.18     0.00   0.00  -0.00
   9   8    -0.09  -0.00  -0.11    -0.31   0.00   0.10    -0.00  -0.10   0.00
  10   8    -0.06   0.11   0.09     0.09   0.09  -0.16    -0.09  -0.04   0.03
  11   6     0.09   0.01  -0.00     0.12   0.03   0.01     0.07   0.03   0.03
  12   6     0.00   0.00  -0.05     0.28  -0.00   0.02     0.09  -0.19  -0.03
  13   6     0.00  -0.00  -0.05     0.28   0.00   0.02    -0.09  -0.19   0.03
  14   6     0.09  -0.01  -0.00     0.12  -0.03   0.01    -0.07   0.03  -0.03
  15   6     0.14   0.00   0.12     0.07  -0.00  -0.08    -0.00   0.02   0.00
  16  17     0.35   0.00   0.32    -0.08   0.00   0.27     0.00   0.02  -0.00
  17  17    -0.48   0.00   0.15    -0.07  -0.00  -0.21    -0.00   0.01   0.00
  18  17    -0.02  -0.13  -0.04     0.03  -0.19   0.03    -0.01   0.20   0.15
  19  17     0.03   0.05  -0.06    -0.02   0.09  -0.12    -0.10  -0.29   0.43
  20  17     0.03  -0.05  -0.06    -0.02  -0.09  -0.12     0.10  -0.29  -0.43
  21  17    -0.02   0.13  -0.04     0.03   0.19   0.03     0.01   0.20  -0.15
  22   1     0.03   0.01  -0.07    -0.06   0.05   0.13     0.05   0.04  -0.03
  23   1     0.09  -0.01  -0.02    -0.09   0.12   0.00     0.02   0.02  -0.02
  24   1     0.03  -0.01  -0.07    -0.06  -0.05   0.13    -0.05   0.04   0.03
  25   1     0.09   0.01  -0.02    -0.09  -0.12   0.00    -0.02   0.02   0.02
                     19                     20                     21
                        a                      a                      a 
 Frequencies --   315.9736               331.9388               342.8871
 Red. masses --    18.4994                22.8571                31.4352
 Frc consts  --     0.0000                 0.0000                 0.0000
 IR Inten    --     1.4598                 1.9112                 1.7171
 Raman Activ --     0.0000                 0.0000                 0.0000
 Depolar     --     0.0000                 0.0000                 0.0000
 Atom AN      X      Y      Z        X      Y      Z        X      Y      Z
   1   6     0.05  -0.26  -0.17     0.13   0.27   0.01    -0.05  -0.13  -0.00
   2   6     0.04  -0.01   0.10     0.17   0.03  -0.14    -0.08   0.01   0.07
   3   1     0.06   0.03   0.02     0.06  -0.03  -0.03    -0.02   0.01   0.02
   4   6     0.04   0.01   0.10     0.17  -0.03  -0.14    -0.08  -0.01   0.07
   5   1     0.06  -0.03   0.02     0.06   0.03  -0.03    -0.02  -0.01   0.02
   6   6     0.06   0.26  -0.17     0.13  -0.27   0.01    -0.05   0.13  -0.00
   7   8    -0.08  -0.03   0.02     0.12  -0.18   0.03    -0.05   0.08  -0.02
   8  16    -0.19   0.00   0.06    -0.11   0.00   0.03     0.02  -0.00  -0.03
   9   8     0.01  -0.00  -0.08    -0.04   0.00  -0.02    -0.02   0.00   0.01
  10   8    -0.08   0.03   0.02     0.12   0.18   0.03    -0.05  -0.08  -0.02
  11   6     0.08   0.02   0.07     0.02  -0.05   0.01     0.02  -0.10  -0.01
  12   6     0.24   0.01   0.15    -0.10   0.00   0.07     0.12  -0.01   0.01
  13   6     0.24  -0.01   0.15    -0.10  -0.00   0.07     0.12   0.01   0.01
  14   6     0.08  -0.02   0.07     0.02   0.05   0.01     0.02   0.10  -0.01
  15   6     0.02  -0.00  -0.09     0.05   0.00  -0.05     0.11  -0.00  -0.04
  16  17    -0.22   0.00   0.06    -0.16   0.00   0.01     0.34   0.00   0.31
  17  17     0.09  -0.00  -0.36     0.08  -0.00  -0.41    -0.03  -0.00  -0.26
  18  17     0.02  -0.15  -0.03    -0.09   0.22  -0.02    -0.15   0.48   0.07
  19  17    -0.09  -0.14   0.14    -0.05  -0.17   0.23     0.00   0.10  -0.09
  20  17    -0.09   0.14   0.14    -0.05   0.17   0.23     0.00  -0.10  -0.09
  21  17     0.02   0.15  -0.03    -0.09  -0.22  -0.02    -0.15  -0.48   0.07
  22   1     0.04  -0.08  -0.20     0.01   0.08   0.08     0.00  -0.04  -0.04
  23   1     0.03  -0.21   0.00     0.07   0.15  -0.02    -0.03  -0.07   0.01
  24   1     0.04   0.08  -0.20     0.01  -0.08   0.08     0.00   0.04  -0.04
  25   1     0.03   0.21   0.00     0.07  -0.15  -0.02    -0.03   0.07   0.01
                     22                     23                     24
                        a                      a                      a 
 Frequencies --   357.1372               384.7829               389.0717
 Red. masses --    20.9407                14.5079                25.7770
 Frc consts  --     0.0000                 0.0000                 0.0000
 IR Inten    --     0.2133                 4.5196                20.5916
 Raman Activ --     0.0000                 0.0000                 0.0000
 Depolar     --     0.0000                 0.0000                 0.0000
 Atom AN      X      Y      Z        X      Y      Z        X      Y      Z
   1   6    -0.01  -0.22   0.15     0.35   0.03   0.07    -0.05  -0.03   0.04
   2   6     0.03  -0.24   0.18     0.16   0.15  -0.05    -0.05  -0.02  -0.06
   3   1     0.02  -0.13   0.07     0.04   0.07  -0.02    -0.03  -0.01  -0.02
   4   6    -0.03  -0.24  -0.18    -0.16   0.15   0.05    -0.05   0.02  -0.06
   5   1    -0.02  -0.13  -0.07    -0.04   0.07   0.02    -0.03   0.01  -0.02
   6   6     0.01  -0.22  -0.15    -0.35   0.03  -0.07    -0.05   0.03   0.04
   7   8    -0.17   0.05  -0.01    -0.29  -0.03  -0.20    -0.13   0.33   0.05
   8  16     0.00  -0.02  -0.00     0.00  -0.10  -0.00     0.13  -0.00  -0.17
   9   8     0.00   0.19  -0.00     0.00   0.43  -0.00    -0.12  -0.00   0.06
  10   8     0.17   0.05   0.01     0.29  -0.03   0.20    -0.13  -0.33   0.05
  11   6    -0.05   0.07  -0.14    -0.12   0.03   0.03    -0.01   0.03  -0.04
  12   6    -0.09   0.04  -0.12    -0.08  -0.04   0.00    -0.24   0.01  -0.04
  13   6     0.09   0.04   0.12     0.08  -0.04  -0.00    -0.24  -0.01  -0.04
  14   6     0.05   0.07   0.14     0.12   0.03  -0.03    -0.01  -0.03  -0.04
  15   6    -0.00   0.09   0.00     0.00   0.06  -0.00     0.08  -0.00  -0.01
  16  17     0.00  -0.05   0.00     0.00  -0.07   0.00     0.32   0.00   0.23
  17  17    -0.00   0.02   0.00    -0.00  -0.05  -0.00     0.05  -0.00  -0.38
  18  17    -0.20   0.33  -0.03     0.03  -0.16   0.02     0.08  -0.22  -0.03
  19  17    -0.06  -0.18   0.11    -0.03   0.00   0.03    -0.02  -0.14   0.17
  20  17     0.06  -0.18  -0.11     0.03   0.00  -0.03    -0.02   0.14   0.17
  21  17     0.20   0.33   0.03    -0.03  -0.16  -0.02     0.08   0.22  -0.03
  22   1    -0.04  -0.07   0.01     0.13   0.01   0.00     0.01   0.00   0.07
  23   1    -0.02  -0.09   0.05     0.13  -0.01   0.03    -0.02   0.04  -0.01
  24   1     0.04  -0.07  -0.01    -0.13   0.01  -0.00     0.01  -0.00   0.07
  25   1     0.02  -0.09  -0.05    -0.13  -0.01  -0.03    -0.02  -0.04  -0.01
                     25                     26                     27
                        a                      a                      a 
 Frequencies --   418.6553               465.6937               491.8825
 Red. masses --    18.8809                15.2973                12.9385
 Frc consts  --     0.0000                 0.0000                 0.0000
 IR Inten    --     7.7855                15.4391                 1.5799
 Raman Activ --     0.0000                 0.0000                 0.0000
 Depolar     --     0.0000                 0.0000                 0.0000
 Atom AN      X      Y      Z        X      Y      Z        X      Y      Z
   1   6    -0.16  -0.03   0.01    -0.16   0.19  -0.16    -0.05   0.08  -0.11
   2   6    -0.13  -0.01   0.12    -0.05   0.01  -0.18     0.04   0.12   0.10
   3   1    -0.07   0.02   0.02     0.01  -0.03  -0.04     0.06   0.02   0.04
   4   6    -0.13   0.01   0.12    -0.05  -0.01  -0.18    -0.04   0.12  -0.10
   5   1    -0.07  -0.02   0.02     0.01   0.03  -0.04    -0.06   0.02  -0.04
   6   6    -0.16   0.03   0.01    -0.16  -0.19  -0.16     0.05   0.08   0.11
   7   8     0.06  -0.39  -0.15    -0.28   0.07  -0.11     0.16  -0.08   0.06
   8  16    -0.02   0.00   0.30     0.14   0.00   0.27    -0.00   0.07  -0.00
   9   8     0.32  -0.00  -0.06     0.38  -0.00  -0.02    -0.00  -0.09   0.00
  10   8     0.06   0.39  -0.15    -0.28  -0.07  -0.11    -0.16  -0.07  -0.06
  11   6    -0.05   0.02  -0.02    -0.04  -0.00  -0.04    -0.15   0.06  -0.11
  12   6    -0.24  -0.00  -0.07     0.30   0.01   0.07    -0.55   0.05  -0.20
  13   6    -0.24   0.00  -0.07     0.30  -0.01   0.07     0.55   0.05   0.20
  14   6    -0.05  -0.02  -0.02    -0.04   0.00  -0.04     0.15   0.06   0.11
  15   6     0.01   0.00  -0.01    -0.02   0.00  -0.05     0.00   0.11  -0.00
  16  17     0.24  -0.00   0.14     0.07  -0.00   0.06    -0.00  -0.05  -0.00
  17  17     0.05  -0.00  -0.21    -0.03   0.00   0.06    -0.00  -0.02   0.00
  18  17     0.05  -0.10  -0.01     0.02  -0.01   0.02     0.01  -0.09   0.00
  19  17     0.03  -0.00   0.01    -0.05  -0.07   0.08    -0.06  -0.05   0.01
  20  17     0.03   0.00   0.01    -0.05   0.07   0.08     0.06  -0.05  -0.01
  21  17     0.05   0.10  -0.01     0.02   0.01   0.02    -0.01  -0.09  -0.00
  22   1    -0.08  -0.02  -0.06    -0.06   0.06   0.06     0.01   0.03  -0.04
  23   1    -0.07  -0.06   0.01    -0.03   0.15  -0.07    -0.03   0.00  -0.03
  24   1    -0.08   0.02  -0.06    -0.06  -0.06   0.06    -0.01   0.03   0.04
  25   1    -0.07   0.06   0.01    -0.03  -0.15  -0.07     0.03   0.00   0.03
                     28                     29                     30
                        a                      a                      a 
 Frequencies --   558.3788               576.0274               577.6754
 Red. masses --    13.0050                11.6541                17.2411
 Frc consts  --     0.0000                 0.0000                 0.0000
 IR Inten    --    47.0303                16.5604                 5.7882
 Raman Activ --     0.0000                 0.0000                 0.0000
 Depolar     --     0.0000                 0.0000                 0.0000
 Atom AN      X      Y      Z        X      Y      Z        X      Y      Z
   1   6    -0.05  -0.04   0.08     0.13   0.12  -0.16    -0.03   0.11  -0.12
   2   6    -0.14   0.28   0.24     0.23  -0.15  -0.06     0.19   0.02   0.20
   3   1    -0.04   0.04   0.08     0.18  -0.04   0.01     0.13   0.01   0.07
   4   6     0.14   0.28  -0.24    -0.23  -0.15   0.06     0.19  -0.02   0.20
   5   1     0.04   0.04  -0.08    -0.18  -0.04  -0.00     0.13  -0.01   0.07
   6   6     0.05  -0.04  -0.08    -0.13   0.12   0.16    -0.03  -0.11  -0.12
   7   8    -0.02   0.06  -0.03     0.04  -0.12   0.01    -0.18   0.15  -0.06
   8  16    -0.00  -0.14   0.00    -0.00   0.18   0.00    -0.03  -0.00   0.12
   9   8     0.00   0.04  -0.00     0.00  -0.05  -0.00     0.12   0.00  -0.02
  10   8     0.02   0.06   0.03    -0.04  -0.13  -0.01    -0.18  -0.15  -0.06
  11   6     0.15   0.04  -0.22    -0.01   0.01  -0.27     0.07   0.01   0.31
  12   6     0.16   0.25  -0.14     0.21   0.28  -0.13    -0.20  -0.02   0.12
  13   6    -0.16   0.25   0.14    -0.21   0.28   0.13    -0.20   0.02   0.12
  14   6    -0.15   0.04   0.22     0.01   0.01   0.28     0.07  -0.01   0.31
  15   6    -0.00  -0.16   0.00     0.00  -0.07   0.00     0.06   0.00   0.24
  16  17    -0.00   0.02  -0.00    -0.00  -0.01  -0.00    -0.11   0.00  -0.07
  17  17     0.00   0.05  -0.00     0.00   0.03  -0.00     0.06  -0.00  -0.19
  18  17     0.10  -0.16  -0.04     0.01  -0.04  -0.07    -0.01   0.01  -0.04
  19  17     0.00  -0.10   0.02    -0.00  -0.11   0.03     0.08   0.16  -0.21
  20  17    -0.00  -0.10  -0.02     0.00  -0.11  -0.03     0.08  -0.16  -0.21
  21  17    -0.10  -0.16   0.04    -0.01  -0.04   0.07    -0.01  -0.01  -0.04
  22   1     0.08  -0.00  -0.14    -0.02   0.03   0.11    -0.00   0.03   0.01
  23   1    -0.07  -0.19   0.07     0.08   0.18  -0.08    -0.03   0.05  -0.05
  24   1    -0.08  -0.00   0.14     0.02   0.03  -0.11    -0.00  -0.04   0.01
  25   1     0.07  -0.19  -0.07    -0.08   0.18   0.08    -0.03  -0.05  -0.05
                     31                     32                     33
                        a                      a                      a 
 Frequencies --   619.3335               636.9896               670.2110
 Red. masses --    20.6088                15.7184                17.0710
 Frc consts  --     0.0000                 0.0000                 0.0000
 IR Inten    --   180.5860                84.8326                69.5779
 Raman Activ --     0.0000                 0.0000                 0.0000
 Depolar     --     0.0000                 0.0000                 0.0000
 Atom AN      X      Y      Z        X      Y      Z        X      Y      Z
   1   6     0.02   0.10  -0.07    -0.09  -0.01   0.01     0.06   0.05  -0.02
   2   6     0.04  -0.10  -0.11     0.04  -0.06   0.03    -0.10   0.01  -0.14
   3   1     0.06  -0.01  -0.03    -0.00  -0.03   0.01     0.03  -0.02  -0.02
   4   6    -0.04  -0.10   0.11    -0.04  -0.06  -0.03    -0.10  -0.01  -0.14
   5   1    -0.06  -0.01   0.03     0.00  -0.03  -0.01     0.03   0.02  -0.02
   6   6    -0.02   0.10   0.07     0.09  -0.01  -0.01     0.06  -0.05  -0.02
   7   8     0.22   0.32  -0.20     0.16   0.12  -0.02     0.01  -0.16   0.17
   8  16    -0.00  -0.59   0.00    -0.00  -0.21   0.00     0.21  -0.00  -0.19
   9   8     0.00   0.14  -0.00    -0.00   0.03  -0.00    -0.10   0.00   0.03
  10   8    -0.22   0.32   0.20    -0.16   0.12   0.02     0.01   0.16   0.17
  11   6     0.07  -0.10  -0.06    -0.21   0.27   0.07    -0.35   0.04   0.17
  12   6    -0.09   0.03  -0.06     0.17   0.08   0.09     0.09  -0.01   0.22
  13   6     0.09   0.03   0.06    -0.17   0.08  -0.09     0.09   0.01   0.22
  14   6    -0.07  -0.10   0.06     0.21   0.27  -0.07    -0.35  -0.03   0.17
  15   6     0.00  -0.21   0.00     0.00   0.62  -0.00    -0.36   0.00   0.16
  16  17    -0.00   0.02  -0.00     0.00  -0.06   0.00     0.16  -0.00   0.08
  17  17     0.00   0.02  -0.00    -0.00  -0.06   0.00     0.08  -0.00  -0.18
  18  17    -0.01   0.09  -0.01     0.01  -0.19  -0.01     0.05  -0.06  -0.02
  19  17     0.00   0.01  -0.03    -0.02  -0.07   0.09     0.02   0.09  -0.13
  20  17    -0.00   0.01   0.03     0.02  -0.07  -0.09     0.02  -0.09  -0.13
  21  17     0.01   0.09   0.01    -0.01  -0.19   0.01     0.05   0.06  -0.02
  22   1    -0.08   0.01  -0.06    -0.06  -0.01  -0.02     0.01   0.01  -0.05
  23   1     0.09   0.04  -0.00    -0.02  -0.01   0.00     0.08  -0.01   0.02
  24   1     0.08   0.01   0.06     0.06  -0.01   0.02     0.01  -0.01  -0.05
  25   1    -0.09   0.04   0.00     0.02  -0.01  -0.00     0.08   0.01   0.02
                     34                     35                     36
                        a                      a                      a 
 Frequencies --   705.1870               758.8106               790.6754
 Red. masses --    19.6794                13.0469                12.1760
 Frc consts  --     0.0000                 0.0000                 0.0000
 IR Inten    --   256.0561                 0.5231                 9.7710
 Raman Activ --     0.0000                 0.0000                 0.0000
 Depolar     --     0.0000                 0.0000                 0.0000
 Atom AN      X      Y      Z        X      Y      Z        X      Y      Z
   1   6     0.11  -0.09   0.04    -0.02  -0.11   0.05     0.12   0.21  -0.11
   2   6    -0.05  -0.02  -0.06    -0.16  -0.09  -0.30     0.04   0.13   0.25
   3   1    -0.01  -0.01  -0.01    -0.11   0.03  -0.12     0.04   0.07   0.06
   4   6    -0.05   0.02  -0.06     0.16  -0.09   0.30     0.04  -0.13   0.25
   5   1    -0.01   0.01  -0.01     0.11   0.03   0.12     0.04  -0.07   0.06
   6   6     0.11   0.09   0.04     0.02  -0.11  -0.05     0.12  -0.21  -0.11
   7   8     0.30   0.26  -0.21    -0.10   0.01  -0.00    -0.03   0.06   0.02
   8  16    -0.47   0.00   0.30     0.00   0.04  -0.00     0.01   0.00   0.00
   9   8     0.10  -0.00  -0.07    -0.00   0.00   0.00     0.01  -0.00   0.00
  10   8     0.30  -0.26  -0.21     0.10   0.01   0.00    -0.03  -0.06   0.02
  11   6    -0.18   0.02   0.03     0.24   0.12   0.20    -0.05   0.06   0.00
  12   6     0.05  -0.00   0.07    -0.18   0.36  -0.04    -0.05  -0.00  -0.06
  13   6     0.05   0.00   0.07     0.18   0.36   0.04    -0.05   0.00  -0.06
  14   6    -0.18  -0.02   0.03    -0.24   0.12  -0.20    -0.05  -0.06   0.00
  15   6    -0.22   0.00   0.02     0.00  -0.00   0.00    -0.37  -0.00  -0.64
  16  17     0.09  -0.00   0.04    -0.00   0.02  -0.00     0.14   0.00   0.10
  17  17     0.03  -0.00  -0.06     0.00  -0.01  -0.00    -0.01   0.00   0.12
  18  17     0.02  -0.03  -0.00     0.04  -0.08  -0.01    -0.00   0.01   0.00
  19  17     0.00   0.02  -0.04    -0.03  -0.12   0.11    -0.00  -0.01   0.02
  20  17     0.00  -0.02  -0.04     0.03  -0.12  -0.11    -0.00   0.01   0.02
  21  17     0.02   0.03  -0.00    -0.04  -0.08   0.01    -0.00  -0.01   0.00
  22   1     0.07  -0.01   0.14    -0.03  -0.03   0.08     0.11   0.07  -0.11
  23   1    -0.01   0.07  -0.03     0.04   0.05  -0.00     0.01  -0.04  -0.00
  24   1     0.07   0.01   0.14     0.03  -0.03  -0.08     0.11  -0.07  -0.11
  25   1    -0.01  -0.07  -0.03    -0.04   0.05   0.00     0.01   0.04  -0.00
                     37                     38                     39
                        a                      a                      a 
 Frequencies --   834.5332               883.1057               896.3704
 Red. masses --     9.5882                13.1667                12.5522
 Frc consts  --     0.0000                 0.0000                 0.0000
 IR Inten    --     0.6888                 0.9912                 3.1657
 Raman Activ --     0.0000                 0.0000                 0.0000
 Depolar     --     0.0000                 0.0000                 0.0000
 Atom AN      X      Y      Z        X      Y      Z        X      Y      Z
   1   6     0.09   0.25  -0.03     0.00  -0.01  -0.03     0.02  -0.03  -0.06
   2   6    -0.19   0.32   0.08     0.15  -0.11   0.14    -0.06  -0.03  -0.02
   3   1    -0.13   0.10   0.00     0.04   0.04   0.02     0.10  -0.04   0.03
   4   6    -0.19  -0.32   0.08     0.15   0.11   0.14     0.06  -0.03   0.02
   5   1    -0.13  -0.10   0.00     0.04  -0.04   0.02    -0.10  -0.04  -0.03
   6   6     0.09  -0.25  -0.03     0.00   0.01  -0.03    -0.02  -0.03   0.06
   7   8     0.04   0.08  -0.03    -0.03  -0.00   0.01    -0.07   0.01  -0.05
   8  16    -0.04   0.00   0.03     0.01  -0.00  -0.01    -0.00  -0.00   0.00
   9   8     0.02  -0.00  -0.00    -0.00   0.00   0.00    -0.00   0.01  -0.00
  10   8     0.04  -0.08  -0.03    -0.03   0.00   0.01     0.07   0.01   0.05
  11   6    -0.07  -0.04  -0.11    -0.05   0.41  -0.08     0.45   0.11  -0.18
  12   6     0.06   0.01  -0.07     0.11   0.04  -0.31    -0.03  -0.28  -0.16
  13   6     0.06  -0.01  -0.07     0.11  -0.04  -0.31     0.03  -0.28   0.16
  14   6    -0.07   0.04  -0.11    -0.05  -0.41  -0.08    -0.45   0.11   0.18
  15   6     0.20   0.00   0.42    -0.30   0.00   0.38     0.00   0.42  -0.00
  16  17    -0.05   0.00  -0.05     0.04  -0.00   0.01    -0.00  -0.00   0.00
  17  17     0.01  -0.00  -0.07     0.03  -0.00  -0.09    -0.00  -0.00   0.00
  18  17     0.02  -0.02   0.01    -0.04   0.10   0.02     0.03  -0.07  -0.00
  19  17    -0.01  -0.02   0.02    -0.02  -0.07   0.07     0.03   0.08  -0.09
  20  17    -0.01   0.02   0.02    -0.02   0.07   0.07    -0.03   0.08   0.09
  21  17     0.02   0.02   0.01    -0.04  -0.10   0.02    -0.03  -0.07   0.00
  22   1     0.20   0.09  -0.18    -0.05  -0.01   0.03    -0.02  -0.01   0.04
  23   1    -0.03  -0.13   0.04     0.01   0.03  -0.02     0.04   0.06  -0.03
  24   1     0.20  -0.09  -0.18    -0.05   0.01   0.03     0.01  -0.01  -0.04
  25   1    -0.03   0.13   0.04     0.01  -0.03  -0.02    -0.04   0.06   0.03
                     40                     41                     42
                        a                      a                      a 
 Frequencies --   982.9403               991.9590              1003.3641
 Red. masses --     8.0260                 8.0672                10.5672
 Frc consts  --     0.0000                 0.0000                 0.0000
 IR Inten    --     9.1765                 2.9629                 5.8175
 Raman Activ --     0.0000                 0.0000                 0.0000
 Depolar     --     0.0000                 0.0000                 0.0000
 Atom AN      X      Y      Z        X      Y      Z        X      Y      Z
   1   6     0.10   0.38  -0.06    -0.12   0.12   0.24    -0.05   0.02   0.06
   2   6    -0.06  -0.25   0.08     0.09  -0.04  -0.24    -0.13   0.02  -0.27
   3   1    -0.10  -0.20   0.05    -0.12  -0.19  -0.03    -0.21   0.10  -0.14
   4   6     0.06  -0.25  -0.08     0.09   0.04  -0.24     0.13   0.02   0.27
   5   1     0.10  -0.20  -0.05    -0.12   0.19  -0.03     0.21   0.10   0.14
   6   6    -0.10   0.38   0.06    -0.12  -0.12   0.24     0.05   0.02  -0.06
   7   8    -0.04  -0.10   0.00    -0.01   0.06  -0.11    -0.05  -0.01   0.01
   8  16     0.00   0.02  -0.00    -0.02   0.00   0.03     0.00   0.01  -0.00
   9   8    -0.00  -0.00  -0.00     0.02  -0.00  -0.00    -0.00  -0.00   0.00
  10   8     0.04  -0.10  -0.00    -0.01  -0.06  -0.11     0.05  -0.01  -0.01
  11   6     0.12  -0.12   0.08     0.24   0.15   0.09    -0.20  -0.32  -0.20
  12   6    -0.04   0.09   0.09    -0.02   0.00   0.07     0.08   0.00  -0.27
  13   6     0.04   0.09  -0.09    -0.02  -0.00   0.07    -0.08   0.00   0.27
  14   6    -0.12  -0.12  -0.08     0.24  -0.15   0.10     0.20  -0.31   0.20
  15   6     0.00   0.18  -0.00    -0.28   0.00  -0.01     0.00   0.33  -0.00
  16  17    -0.00   0.00  -0.00     0.02  -0.00   0.01    -0.00  -0.02  -0.00
  17  17    -0.00  -0.01   0.00     0.02  -0.00  -0.02    -0.00  -0.01   0.00
  18  17    -0.01   0.01  -0.00    -0.02   0.03  -0.00    -0.02   0.04  -0.00
  19  17    -0.01  -0.02   0.03     0.01   0.01  -0.02     0.01   0.02  -0.05
  20  17     0.01  -0.02  -0.03     0.01  -0.01  -0.02    -0.01   0.02   0.05
  21  17     0.01   0.01   0.00    -0.02  -0.03  -0.00     0.02   0.04   0.00
  22   1     0.15   0.10  -0.26     0.09   0.04  -0.22     0.03   0.01  -0.04
  23   1     0.01  -0.17   0.07    -0.09  -0.24   0.13    -0.00  -0.05   0.04
  24   1    -0.15   0.11   0.26     0.09  -0.04  -0.22    -0.03   0.01   0.04
  25   1    -0.01  -0.17  -0.07    -0.09   0.24   0.13     0.00  -0.05  -0.04
                     43                     44                     45
                        a                      a                      a 
 Frequencies --  1036.3981              1050.1875              1059.9716
 Red. masses --    10.3804                12.1220                11.3608
 Frc consts  --     0.0000                 0.0000                 0.0000
 IR Inten    --     0.7922                16.7196                 1.0099
 Raman Activ --     0.0000                 0.0000                 0.0000
 Depolar     --     0.0000                 0.0000                 0.0000
 Atom AN      X      Y      Z        X      Y      Z        X      Y      Z
   1   6    -0.11   0.09   0.10    -0.02  -0.02  -0.08    -0.07  -0.10  -0.15
   2   6     0.23  -0.15   0.03    -0.25   0.10  -0.13     0.01   0.12   0.18
   3   1     0.10  -0.15   0.05    -0.03   0.03  -0.03     0.10   0.09   0.05
   4   6     0.23   0.14   0.03    -0.25  -0.10  -0.13    -0.00   0.12  -0.18
   5   1     0.10   0.15   0.05    -0.03  -0.03  -0.03    -0.10   0.09  -0.05
   6   6    -0.11  -0.09   0.10    -0.02   0.02  -0.08     0.07  -0.10   0.15
   7   8     0.04   0.06  -0.02     0.09  -0.00   0.06    -0.08   0.02  -0.11
   8  16    -0.02   0.00   0.01    -0.01  -0.00  -0.01     0.00  -0.01   0.00
   9   8     0.01  -0.00   0.01    -0.01   0.00   0.00     0.00   0.01  -0.00
  10   8     0.04  -0.06  -0.02     0.09   0.00   0.06     0.08   0.02   0.11
  11   6    -0.42   0.04   0.01     0.05   0.39   0.35     0.09  -0.41   0.02
  12   6     0.05  -0.00  -0.07     0.00   0.03  -0.09    -0.07   0.18   0.26
  13   6     0.05   0.00  -0.07     0.00  -0.03  -0.09     0.07   0.18  -0.26
  14   6    -0.42  -0.04   0.01     0.05  -0.39   0.35    -0.09  -0.41  -0.02
  15   6     0.47  -0.00  -0.16     0.35  -0.00  -0.23     0.00   0.34  -0.00
  16  17    -0.02   0.00  -0.01    -0.04   0.00  -0.01     0.00  -0.01  -0.00
  17  17    -0.02   0.00   0.03    -0.01   0.00   0.03    -0.00  -0.01   0.00
  18  17     0.02  -0.00  -0.01    -0.01   0.05  -0.00    -0.01   0.04   0.00
  19  17    -0.01  -0.01   0.01     0.00  -0.01  -0.00    -0.01  -0.04   0.05
  20  17    -0.01   0.01   0.01     0.00   0.01  -0.00     0.01  -0.04  -0.05
  21  17     0.02   0.00  -0.01    -0.01  -0.05  -0.00     0.01   0.04  -0.00
  22   1     0.01   0.02  -0.13     0.02   0.00   0.04    -0.05  -0.03   0.11
  23   1    -0.05  -0.14   0.07     0.03   0.05  -0.03    -0.01   0.10  -0.07
  24   1     0.01  -0.02  -0.13     0.02  -0.00   0.04     0.05  -0.03  -0.11
  25   1    -0.05   0.14   0.07     0.03  -0.05  -0.03     0.01   0.10   0.07
                     46                     47                     48
                        a                      a                      a 
 Frequencies --  1075.7218              1081.2563              1099.3898
 Red. masses --    13.1329                10.4827                13.1970
 Frc consts  --     0.0000                 0.0000                 0.0000
 IR Inten    --     3.7330                20.1254               324.9939
 Raman Activ --     0.0000                 0.0000                 0.0000
 Depolar     --     0.0000                 0.0000                 0.0000
 Atom AN      X      Y      Z        X      Y      Z        X      Y      Z
   1   6     0.37  -0.10   0.29    -0.15  -0.02  -0.01    -0.34   0.12  -0.30
   2   6     0.06   0.04   0.04    -0.06   0.13  -0.07    -0.00  -0.10   0.03
   3   1    -0.03  -0.01   0.01     0.26  -0.13   0.09    -0.02   0.01  -0.01
   4   6    -0.06   0.04  -0.04    -0.06  -0.13  -0.07    -0.00   0.10   0.03
   5   1     0.03  -0.01  -0.01     0.26   0.13   0.09    -0.02  -0.01  -0.01
   6   6    -0.37  -0.10  -0.29    -0.15   0.02  -0.01    -0.34  -0.12  -0.30
   7   8     0.32   0.08   0.29     0.09   0.01   0.06     0.34   0.12   0.27
   8  16     0.00   0.02  -0.00    -0.02   0.00  -0.01    -0.06   0.00  -0.03
   9   8    -0.00  -0.02   0.00     0.01   0.00   0.01     0.03   0.00   0.05
  10   8    -0.32   0.08  -0.29     0.09  -0.01   0.06     0.34  -0.12   0.27
  11   6     0.12  -0.14   0.01     0.04  -0.31   0.26     0.09   0.02  -0.13
  12   6    -0.02   0.04   0.03     0.08   0.02  -0.39    -0.03  -0.01   0.12
  13   6     0.02   0.04  -0.03     0.08  -0.02  -0.39    -0.03   0.01   0.12
  14   6    -0.12  -0.14  -0.01     0.04   0.31   0.26     0.09  -0.02  -0.13
  15   6     0.00   0.14  -0.00    -0.19   0.00   0.06    -0.05   0.00   0.04
  16  17    -0.00  -0.00   0.00     0.01  -0.00   0.01     0.00  -0.00  -0.00
  17  17    -0.00  -0.00   0.00     0.01  -0.00  -0.02    -0.00  -0.00  -0.00
  18  17    -0.00   0.01   0.00     0.01  -0.04  -0.00    -0.01   0.01   0.00
  19  17    -0.00  -0.01   0.00    -0.01  -0.05   0.06     0.00   0.01  -0.01
  20  17     0.00  -0.01  -0.00    -0.01   0.05   0.06     0.00  -0.01  -0.01
  21  17     0.00   0.01  -0.00     0.01   0.04  -0.00    -0.01  -0.01   0.00
  22   1     0.09  -0.02   0.09     0.00   0.00  -0.01    -0.10   0.02  -0.10
  23   1     0.05   0.01   0.04    -0.03  -0.02   0.01    -0.05  -0.02  -0.04
  24   1    -0.09  -0.02  -0.09     0.00  -0.00  -0.01    -0.10  -0.02  -0.10
  25   1    -0.05   0.01  -0.04    -0.03   0.02   0.01    -0.05   0.02  -0.04
                     49                     50                     51
                        a                      a                      a 
 Frequencies --  1118.6947              1139.5312              1159.5591
 Red. masses --     9.1219                11.5835                10.0520
 Frc consts  --     0.0000                 0.0000                 0.0000
 IR Inten    --    12.0119                12.9546                 7.9509
 Raman Activ --     0.0000                 0.0000                 0.0000
 Depolar     --     0.0000                 0.0000                 0.0000
 Atom AN      X      Y      Z        X      Y      Z        X      Y      Z
   1   6     0.23  -0.06  -0.26    -0.10   0.02   0.04     0.23   0.18  -0.10
   2   6    -0.28  -0.05   0.23     0.32   0.02   0.11    -0.26  -0.45   0.11
   3   1    -0.23  -0.06   0.04     0.06   0.07  -0.00    -0.13  -0.22   0.05
   4   6     0.28  -0.05  -0.23    -0.32   0.02  -0.11    -0.26   0.45   0.11
   5   1     0.23  -0.06  -0.04    -0.06   0.07   0.00    -0.13   0.22   0.05
   6   6    -0.23  -0.06   0.26     0.10   0.02  -0.04     0.23  -0.18  -0.10
   7   8     0.03   0.06  -0.07    -0.01  -0.03  -0.01    -0.02   0.04  -0.03
   8  16    -0.00  -0.02   0.00    -0.00  -0.00  -0.00    -0.00   0.00   0.01
   9   8     0.00   0.01  -0.00     0.00  -0.00   0.00    -0.00  -0.00  -0.01
  10   8    -0.03   0.06   0.07     0.01  -0.03   0.01    -0.02  -0.04  -0.03
  11   6    -0.10   0.02   0.15     0.10  -0.11   0.40     0.06  -0.10   0.08
  12   6     0.07  -0.01  -0.22     0.09   0.03  -0.40     0.01  -0.00  -0.09
  13   6    -0.07  -0.01   0.22    -0.09   0.03   0.40     0.01   0.00  -0.09
  14   6     0.10   0.02  -0.15    -0.10  -0.11  -0.40     0.06   0.10   0.08
  15   6     0.00  -0.03  -0.00     0.00   0.07  -0.00     0.02   0.00   0.05
  16  17    -0.00   0.00  -0.00     0.00   0.01  -0.00    -0.00  -0.00  -0.00
  17  17    -0.00  -0.00   0.00    -0.00  -0.01   0.00     0.01  -0.00  -0.01
  18  17    -0.00   0.00   0.00    -0.00   0.01   0.01    -0.00  -0.01  -0.00
  19  17     0.01   0.01  -0.02     0.01   0.02  -0.04    -0.00  -0.01   0.01
  20  17    -0.01   0.01   0.02    -0.01   0.02   0.04    -0.00   0.01   0.01
  21  17     0.00   0.00  -0.00     0.00   0.01  -0.01    -0.00   0.01  -0.00
  22   1     0.08  -0.00   0.16    -0.08  -0.01  -0.05    -0.03   0.02  -0.09
  23   1     0.00   0.16  -0.14    -0.05  -0.05   0.02     0.13   0.00   0.01
  24   1    -0.08  -0.00  -0.16     0.08  -0.01   0.05    -0.03  -0.02  -0.09
  25   1    -0.00   0.16   0.14     0.05  -0.05  -0.02     0.13  -0.00   0.01
                     52                     53                     54
                        a                      a                      a 
 Frequencies --  1211.5057              1226.8350              1238.3399
 Red. masses --     2.4372                 2.8690                 4.9943
 Frc consts  --     0.0000                 0.0000                 0.0000
 IR Inten    --    11.4402                 0.8081                43.4775
 Raman Activ --     0.0000                 0.0000                 0.0000
 Depolar     --     0.0000                 0.0000                 0.0000
 Atom AN      X      Y      Z        X      Y      Z        X      Y      Z
   1   6     0.04  -0.09  -0.14    -0.04  -0.05  -0.04    -0.00  -0.01  -0.06
   2   6     0.02  -0.01   0.02     0.18  -0.01  -0.13     0.22  -0.06  -0.02
   3   1    -0.08  -0.30   0.09    -0.05  -0.11  -0.02    -0.47   0.22  -0.19
   4   6     0.02   0.01   0.02    -0.19  -0.01   0.13     0.22   0.06  -0.02
   5   1    -0.08   0.30   0.09     0.05  -0.11   0.02    -0.47  -0.22  -0.19
   6   6     0.04   0.09  -0.14     0.04  -0.05   0.04    -0.00   0.01  -0.06
   7   8    -0.03  -0.11   0.10     0.02   0.09  -0.09     0.00   0.00   0.05
   8  16     0.01  -0.00  -0.03    -0.00  -0.02   0.00    -0.01  -0.00  -0.03
   9   8    -0.01   0.00   0.01    -0.00   0.01  -0.00     0.02   0.00   0.03
  10   8    -0.03   0.11   0.10    -0.02   0.09   0.09     0.00  -0.00   0.05
  11   6    -0.01   0.03  -0.04     0.04   0.00  -0.03    -0.08  -0.16   0.24
  12   6    -0.00  -0.00   0.02    -0.02  -0.00   0.02     0.05   0.01  -0.15
  13   6    -0.00   0.00   0.02     0.02  -0.00  -0.02     0.06  -0.01  -0.15
  14   6    -0.01  -0.03  -0.04    -0.04   0.00   0.03    -0.08   0.16   0.24
  15   6     0.01   0.00   0.01     0.00   0.00   0.00    -0.04  -0.00  -0.03
  16  17     0.00  -0.00  -0.00     0.00  -0.00   0.00     0.00   0.00   0.00
  17  17     0.00  -0.00   0.00    -0.00   0.00  -0.00     0.01   0.00  -0.01
  18  17    -0.00   0.00   0.00    -0.00   0.00  -0.00     0.00  -0.02  -0.01
  19  17     0.00  -0.00   0.00     0.00  -0.00   0.00    -0.01  -0.02   0.02
  20  17     0.00   0.00   0.00    -0.00  -0.00  -0.00    -0.01   0.02   0.02
  21  17    -0.00  -0.00   0.00     0.00   0.00   0.00     0.00   0.02  -0.01
  22   1     0.37   0.05   0.19     0.38   0.06   0.16    -0.04  -0.01   0.02
  23   1    -0.38   0.00  -0.15    -0.46  -0.07  -0.12    -0.13  -0.01  -0.05
  24   1     0.37  -0.05   0.19    -0.38   0.06  -0.16    -0.04   0.01   0.02
  25   1    -0.38  -0.00  -0.15     0.46  -0.07   0.12    -0.13   0.01  -0.05
                     55                     56                     57
                        a                      a                      a 
 Frequencies --  1239.4311              1283.1033              1297.4528
 Red. masses --     4.6285                21.3375                 3.3784
 Frc consts  --     0.0000                 0.0000                 0.0000
 IR Inten    --     5.3006               388.6329                 0.4872
 Raman Activ --     0.0000                 0.0000                 0.0000
 Depolar     --     0.0000                 0.0000                 0.0000
 Atom AN      X      Y      Z        X      Y      Z        X      Y      Z
   1   6     0.05   0.03  -0.06     0.05  -0.01   0.03     0.11  -0.02  -0.03
   2   6     0.26  -0.09   0.15    -0.02   0.01  -0.00     0.09   0.24  -0.14
   3   1    -0.45   0.27  -0.16     0.02  -0.01   0.01    -0.17  -0.45   0.11
   4   6    -0.26  -0.09  -0.15    -0.02  -0.01  -0.00    -0.09   0.24   0.14
   5   1     0.45   0.27   0.16     0.02   0.01   0.01     0.17  -0.45  -0.11
   6   6    -0.05   0.03   0.06     0.05   0.01   0.03    -0.11  -0.02   0.03
   7   8     0.00  -0.03  -0.03    -0.04  -0.03  -0.00    -0.02  -0.04  -0.04
   8  16     0.00  -0.00   0.00    -0.35  -0.00  -0.47    -0.00   0.01  -0.00
   9   8    -0.00   0.00  -0.00     0.51   0.00   0.62     0.00  -0.00   0.00
  10   8    -0.00  -0.03   0.03    -0.04   0.03  -0.00     0.02  -0.04   0.04
  11   6     0.11   0.08  -0.14     0.00   0.01  -0.01     0.01  -0.04  -0.02
  12   6    -0.04  -0.03   0.11    -0.00  -0.00   0.01    -0.00   0.01   0.00
  13   6     0.04  -0.03  -0.11    -0.00   0.00   0.01     0.00   0.01  -0.00
  14   6    -0.11   0.08   0.14     0.00  -0.01  -0.01    -0.01  -0.04   0.02
  15   6     0.00  -0.02   0.00     0.00  -0.00  -0.00     0.00   0.02  -0.00
  16  17     0.00   0.00  -0.00    -0.00   0.00  -0.00    -0.00  -0.00  -0.00
  17  17    -0.00   0.01   0.00    -0.00   0.00   0.00    -0.00   0.00   0.00
  18  17     0.00  -0.01  -0.00    -0.00   0.00   0.00     0.00  -0.00   0.00
  19  17    -0.00  -0.00   0.01     0.00   0.00  -0.00    -0.00  -0.00   0.00
  20  17     0.00  -0.00  -0.01     0.00  -0.00  -0.00     0.00  -0.00  -0.00
  21  17    -0.00  -0.01   0.00    -0.00  -0.00   0.00    -0.00  -0.00  -0.00
  22   1    -0.17  -0.03  -0.02    -0.02  -0.01  -0.02    -0.36  -0.08  -0.05
  23   1    -0.06  -0.01  -0.03    -0.00   0.01  -0.00    -0.12  -0.00  -0.05
  24   1     0.17  -0.03   0.02    -0.02   0.01  -0.02     0.36  -0.08   0.05
  25   1     0.06  -0.01   0.03    -0.00  -0.01  -0.00     0.12  -0.00   0.05
                     58                     59                     60
                        a                      a                      a 
 Frequencies --  1306.4506              1333.6499              1335.7786
 Red. masses --     3.7545                 3.9289                 3.2106
 Frc consts  --     0.0000                 0.0000                 0.0000
 IR Inten    --     1.6628                 0.0988                16.0568
 Raman Activ --     0.0000                 0.0000                 0.0000
 Depolar     --     0.0000                 0.0000                 0.0000
 Atom AN      X      Y      Z        X      Y      Z        X      Y      Z
   1   6     0.16  -0.03  -0.05    -0.26  -0.09  -0.05     0.22   0.09   0.07
   2   6     0.05   0.29   0.03     0.20   0.10   0.02    -0.11  -0.11  -0.08
   3   1    -0.18  -0.35   0.12    -0.24  -0.23   0.04     0.24   0.22  -0.06
   4   6     0.05  -0.29   0.03    -0.20   0.10  -0.02    -0.11   0.11  -0.08
   5   1    -0.18   0.35   0.12     0.24  -0.23  -0.04     0.24  -0.22  -0.06
   6   6     0.16   0.03  -0.05     0.26  -0.09   0.05     0.22  -0.09   0.07
   7   8     0.01   0.05   0.03     0.01   0.03   0.04     0.01   0.02   0.05
   8  16     0.00   0.00   0.02    -0.00  -0.01   0.00     0.00   0.00   0.03
   9   8    -0.02  -0.00  -0.02    -0.00   0.00  -0.00    -0.02  -0.00  -0.03
  10   8     0.01  -0.05   0.03    -0.01   0.03  -0.04     0.01  -0.02   0.05
  11   6    -0.03   0.04  -0.03     0.03  -0.01  -0.01     0.02   0.01  -0.01
  12   6    -0.00   0.01   0.01    -0.00  -0.01   0.01     0.00   0.00   0.01
  13   6    -0.00  -0.01   0.01     0.00  -0.01  -0.01     0.00  -0.00   0.01
  14   6    -0.03  -0.04  -0.03    -0.03  -0.01   0.01     0.02  -0.01  -0.01
  15   6    -0.01   0.00  -0.01     0.00   0.00   0.00     0.01  -0.00  -0.00
  16  17     0.00  -0.00   0.00    -0.00  -0.00  -0.00    -0.00   0.00  -0.00
  17  17     0.00  -0.00  -0.00    -0.00   0.00   0.00    -0.00   0.00   0.00
  18  17     0.00  -0.00   0.00     0.00   0.00   0.00    -0.00   0.00   0.00
  19  17     0.00   0.00  -0.00    -0.00   0.00  -0.00     0.00  -0.00   0.00
  20  17     0.00  -0.00  -0.00     0.00   0.00   0.00     0.00   0.00   0.00
  21  17     0.00   0.00   0.00    -0.00   0.00  -0.00    -0.00  -0.00   0.00
  22   1    -0.43  -0.09  -0.06     0.27   0.04   0.06    -0.22  -0.03  -0.06
  23   1    -0.07   0.03  -0.05     0.41   0.09   0.08    -0.47  -0.11  -0.09
  24   1    -0.43   0.09  -0.06    -0.27   0.04  -0.06    -0.22   0.03  -0.06
  25   1    -0.07  -0.03  -0.05    -0.41   0.09  -0.08    -0.47   0.11  -0.09
                     61                     62                     63
                        a                      a                      a 
 Frequencies --  1456.5600              1478.3028              1599.7844
 Red. masses --     1.8076                 1.7893                12.0788
 Frc consts  --     0.0000                 0.0000                 0.0000
 IR Inten    --     0.0003                 2.2974                24.2803
 Raman Activ --     0.0000                 0.0000                 0.0000
 Depolar     --     0.0000                 0.0000                 0.0000
 Atom AN      X      Y      Z        X      Y      Z        X      Y      Z
   1   6    -0.02  -0.11   0.15     0.02   0.11  -0.14    -0.00   0.00  -0.00
   2   6     0.01  -0.01   0.01     0.00   0.02  -0.01     0.01  -0.01   0.01
   3   1    -0.01   0.00  -0.00     0.01   0.00  -0.00    -0.00  -0.00   0.00
   4   6    -0.01  -0.01  -0.01     0.00  -0.02  -0.01     0.01   0.01   0.01
   5   1     0.01   0.00   0.00     0.01  -0.00  -0.00    -0.00   0.00   0.00
   6   6     0.02  -0.11  -0.15     0.02  -0.11  -0.14    -0.00  -0.00  -0.00
   7   8    -0.02  -0.01  -0.02    -0.02  -0.01  -0.02     0.00   0.00  -0.00
   8  16     0.00   0.01  -0.00    -0.00  -0.00  -0.02    -0.00   0.00  -0.00
   9   8     0.00  -0.00   0.00     0.01   0.00   0.02     0.00   0.00   0.00
  10   8     0.02  -0.01   0.02    -0.02   0.01  -0.02     0.00  -0.00  -0.00
  11   6     0.00  -0.00  -0.00     0.00   0.00  -0.00     0.00  -0.03  -0.01
  12   6    -0.00   0.00   0.01    -0.00  -0.01   0.00    -0.02   0.70   0.04
  13   6     0.00   0.00  -0.01    -0.00   0.01   0.00    -0.02  -0.70   0.04
  14   6    -0.00  -0.00   0.00     0.00  -0.00  -0.00     0.00   0.03  -0.01
  15   6     0.00   0.00  -0.00     0.00  -0.00  -0.00     0.01  -0.00  -0.02
  16  17    -0.00  -0.00  -0.00     0.00  -0.00   0.00     0.00  -0.00   0.00
  17  17    -0.00  -0.00   0.00    -0.00   0.00   0.00     0.00   0.00   0.00
  18  17    -0.00   0.00  -0.00     0.00  -0.00  -0.00    -0.00   0.01   0.01
  19  17     0.00  -0.00   0.00    -0.00  -0.00  -0.00     0.01   0.03  -0.03
  20  17    -0.00  -0.00  -0.00    -0.00   0.00  -0.00     0.01  -0.03  -0.03
  21  17     0.00   0.00   0.00     0.00   0.00  -0.00    -0.00  -0.01   0.01
  22   1     0.11  -0.01  -0.46    -0.11   0.00   0.45     0.00   0.00   0.01
  23   1    -0.09   0.45  -0.18     0.08  -0.46   0.18     0.00  -0.01   0.00
  24   1    -0.11  -0.01   0.46    -0.11  -0.00   0.45     0.00  -0.00   0.01
  25   1     0.09   0.45   0.18     0.08   0.46   0.18     0.00   0.01   0.00
                     64                     65                     66
                        a                      a                      a 
 Frequencies --  2896.8867              2902.8050              2948.4274
 Red. masses --     1.7819                 1.7789                 1.6409
 Frc consts  --     0.0000                 0.0000                 0.0000
 IR Inten    --     3.0881                61.5822                14.1860
 Raman Activ --     0.0000                 0.0000                 0.0000
 Depolar     --     0.0000                 0.0000                 0.0000
 Atom AN      X      Y      Z        X      Y      Z        X      Y      Z
   1   6    -0.06   0.09   0.16     0.06  -0.09  -0.15     0.02  -0.16   0.03
   2   6    -0.00  -0.00  -0.01     0.00   0.00   0.01    -0.00  -0.01   0.00
   3   1    -0.01   0.02   0.05     0.01  -0.02  -0.05     0.00  -0.00  -0.01
   4   6     0.00  -0.00   0.01     0.00  -0.00   0.01    -0.00   0.00   0.01
   5   1     0.01   0.02  -0.05     0.01   0.02  -0.05     0.00   0.01  -0.02
   6   6     0.06   0.09  -0.16     0.06   0.09  -0.15     0.02   0.17   0.03
   7   8    -0.01  -0.00  -0.01    -0.00  -0.00  -0.01     0.01   0.00   0.01
   8  16    -0.00   0.00   0.00    -0.00  -0.00  -0.00    -0.00  -0.00   0.00
   9   8     0.00   0.00  -0.00     0.00   0.00   0.00     0.00  -0.00  -0.00
  10   8     0.01  -0.00   0.01    -0.00   0.00  -0.01     0.01  -0.00   0.01
  11   6    -0.00  -0.00   0.00     0.00  -0.00   0.00    -0.00   0.00   0.00
  12   6     0.00  -0.00  -0.00    -0.00  -0.00  -0.00     0.00   0.00   0.00
  13   6    -0.00  -0.00   0.00    -0.00   0.00  -0.00     0.00  -0.00   0.00
  14   6     0.00  -0.00  -0.00     0.00   0.00   0.00    -0.00  -0.00   0.00
  15   6     0.00  -0.00   0.00     0.00  -0.00  -0.00    -0.00   0.00   0.00
  16  17    -0.00  -0.00  -0.00     0.00   0.00   0.00    -0.00  -0.00  -0.00
  17  17    -0.00   0.00   0.00     0.00   0.00  -0.00     0.00   0.00  -0.00
  18  17    -0.00   0.00   0.00     0.00  -0.00   0.00    -0.00   0.00  -0.00
  19  17     0.00   0.00  -0.00    -0.00  -0.00   0.00     0.00   0.00  -0.00
  20  17    -0.00   0.00   0.00    -0.00   0.00   0.00     0.00  -0.00  -0.00
  21  17     0.00   0.00  -0.00     0.00   0.00   0.00    -0.00  -0.00  -0.00
  22   1     0.01  -0.09   0.03    -0.01   0.10  -0.03    -0.12   0.66  -0.02
  23   1     0.18  -0.22  -0.61    -0.17   0.22   0.61     0.03  -0.06  -0.10
  24   1    -0.01  -0.09  -0.03    -0.01  -0.10  -0.03    -0.12  -0.67  -0.02
  25   1    -0.18  -0.22   0.61    -0.17  -0.21   0.61     0.03   0.06  -0.10
                     67                     68                     69
                        a                      a                      a 
 Frequencies --  2948.7616              2964.2714              2974.1718
 Red. masses --     1.6454                 1.7795                 1.7995
 Frc consts  --     0.0000                 0.0000                 0.0000
 IR Inten    --     8.2279                 1.4289                 9.3157
 Raman Activ --     0.0000                 0.0000                 0.0000
 Depolar     --     0.0000                 0.0000                 0.0000
 Atom AN      X      Y      Z        X      Y      Z        X      Y      Z
   1   6    -0.02   0.17  -0.03    -0.01   0.02   0.01     0.01  -0.01  -0.02
   2   6     0.00  -0.00  -0.01    -0.03   0.07   0.17     0.03  -0.06  -0.17
   3   1    -0.01   0.02   0.05     0.12  -0.22  -0.64    -0.12   0.21   0.62
   4   6    -0.00  -0.00   0.01     0.03   0.06  -0.17     0.03   0.06  -0.18
   5   1     0.01   0.02  -0.05    -0.12  -0.22   0.62    -0.12  -0.22   0.64
   6   6     0.02   0.16   0.03     0.01   0.02  -0.01     0.01   0.01  -0.02
   7   8     0.01   0.00   0.01     0.00   0.00   0.00    -0.00   0.00   0.00
   8  16     0.00  -0.00  -0.00    -0.00   0.00   0.00     0.00   0.00  -0.00
   9   8    -0.00  -0.00   0.00     0.00  -0.00  -0.00    -0.00  -0.00   0.00
  10   8    -0.01   0.00  -0.01    -0.00   0.00  -0.00    -0.00  -0.00   0.00
  11   6     0.00   0.00   0.00    -0.00   0.00  -0.00     0.00   0.00  -0.00
  12   6    -0.00   0.00   0.00    -0.00  -0.00   0.00    -0.00  -0.00   0.00
  13   6     0.00   0.00  -0.00     0.00  -0.00  -0.00     0.00   0.00   0.00
  14   6    -0.00   0.00  -0.00     0.00   0.00   0.00     0.00  -0.00  -0.00
  15   6     0.00   0.00  -0.00    -0.00   0.00   0.00     0.00   0.00  -0.00
  16  17     0.00  -0.00  -0.00     0.00  -0.00   0.00    -0.00  -0.00  -0.00
  17  17    -0.00  -0.00   0.00    -0.00  -0.00  -0.00     0.00  -0.00   0.00
  18  17     0.00  -0.00  -0.00     0.00  -0.00  -0.00    -0.00   0.00   0.00
  19  17    -0.00  -0.00   0.00     0.00  -0.00   0.00    -0.00  -0.00   0.00
  20  17     0.00  -0.00  -0.00    -0.00  -0.00  -0.00    -0.00   0.00   0.00
  21  17    -0.00  -0.00   0.00    -0.00  -0.00   0.00    -0.00  -0.00   0.00
  22   1     0.12  -0.67   0.02     0.01  -0.06   0.00    -0.00   0.02  -0.00
  23   1    -0.03   0.06   0.10     0.01  -0.01  -0.04    -0.01   0.02   0.04
  24   1    -0.12  -0.66  -0.02    -0.01  -0.06  -0.00    -0.00  -0.03  -0.00
  25   1     0.03   0.06  -0.10    -0.01  -0.01   0.03    -0.01  -0.02   0.04
