21
 energy: -25.381836244290 gnorm: 0.017786157376 xtb: 6.7.1 (edcfbbe)
C           -2.67039716218904       -1.44476974431369        0.08071763933135
C           -1.95920750494401       -0.09681814062791        0.02808940159112
C           -0.44775447087810       -0.13767093096883        0.03728183397339
C            0.25723939028598       -1.34038911952473        0.08980914552419
C            1.64969833396174       -1.36649278878505        0.09130064275572
C            2.36115269450615       -0.17598469007769        0.03856072670502
C            1.67014299001467        1.03079679940838       -0.01137618466412
C            0.27620572494786        1.07137411169579       -0.01176182059449
C           -0.43671987282537        2.39453252414249       -0.06422362976921
H           -2.42630899061709       -1.99433400169209        0.99520081607483
H           -2.40416233735038       -2.07400736752096       -0.77433771057179
H           -3.75402174212305       -1.29905185319741        0.06067790446416
H           -2.29927858282630        0.51978417659284        0.87160328240951
H           -2.28724806374929        0.44552835181908       -0.86948461026297
H           -0.28387397641150       -2.27921878338824        0.13118526531439
H            2.17174510611458       -2.31724202210871        0.13246527018740
H            3.44644113355125       -0.18209541520735        0.03667637041602
H            2.22359708321889        1.96527491390667       -0.05150849587073
H           -1.08219580326770        2.53970531743778        0.80983065346260
H            0.27801624332926        3.21992857551626       -0.09491742459915
H           -1.08019453277033        2.47259280056716       -0.94828851773611
21
 energy: -25.382640862898 gnorm: 0.005456992685 xtb: 6.7.1 (edcfbbe)
C           -2.66327609240396       -1.44015433421042        0.08053950948758
C           -1.95539526836988       -0.09389133416810        0.02814426835561
C           -0.44835081073674       -0.13841572834083        0.03679319861264
C            0.25486874525555       -1.33491114734820        0.08905686519740
C            1.64033793736516       -1.35797091934721        0.09062192426040
C            2.34770704310050       -0.17183148701041        0.03907404484253
C            1.65902587350574        1.02826466761771       -0.01076405274224
C            0.27128007665288        1.06525384176660       -0.01187635116607
C           -0.43548418048218        2.38595280676679       -0.06439705785198
H           -2.41655761527725       -1.98056438189962        0.99403443402286
H           -2.39718933878269       -2.05946455792324       -0.77563978305135
H           -3.74208060265929       -1.28793817284221        0.06182831201926
H           -2.28905893187000        0.51193117235982        0.87921671338352
H           -2.27894755937490        0.43780101065331       -0.87484164919279
H           -0.27985732008510       -2.27190555124552        0.12950724992161
H            2.16210681815419       -2.30431089785302        0.13161541862506
H            3.42900870859723       -0.17701828245576        0.03789847822004
H            2.21082302844621        1.95883216515638       -0.05000364584480
H           -1.07461604605227        2.52202986349872        0.81023240130423
H            0.28069158267104        3.20538825767764       -0.09487471104509
H           -1.07216038767605        2.45436572282136       -0.94866500921729
21
 energy: -25.382682443882 gnorm: 0.001412219567 xtb: 6.7.1 (edcfbbe)
C           -2.66215511998838       -1.43836388735818        0.08061870988598
C           -1.95414940868186       -0.09127495364585        0.02825684270813
C           -0.44802171747715       -0.13901543669453        0.03624580231243
C            0.25439048494237       -1.33455452271060        0.08813180057492
C            1.63847294149244       -1.35645034263172        0.09030362170108
C            2.34536401219471       -0.17086838042864        0.03982522752500
C            1.65695137586929        1.02782069140421       -0.01004823744483
C            0.27030394367022        1.06298118509064       -0.01190917853287
C           -0.43715603117012        2.38287024139401       -0.06493312990197
H           -2.41286220358263       -1.97643496876985        0.99265721515037
H           -2.39618518437919       -2.05380800097187       -0.77609299427139
H           -3.73956221809288       -1.28472561826491        0.06359123839832
H           -2.28458773085249        0.51176071664402        0.88077612842900
H           -2.27600260561188        0.43865367935053       -0.87467725081916
H           -0.27799261883223       -2.27148946430296        0.12792819582788
H            2.16022866215338       -2.30153916084056        0.13106565720264
H            3.42551252996719       -0.17594110373525        0.03946085055157
H            2.20788383291247        1.95746351395586       -0.04862664341909
H           -1.07475877814380        2.51605101250561        0.80914173329656
H            0.27899470703470        3.20045529120562       -0.09537850358774
H           -1.07179321344594        2.44785222247820       -0.94883652744572
21
 energy: -25.382685176876 gnorm: 0.000254183227 xtb: 6.7.1 (edcfbbe)
C           -2.66279312099529       -1.43768688691792        0.08072662925127
C           -1.95391766481421       -0.09011284786802        0.02854727963483
C           -0.44767684182800       -0.13947479008306        0.03580282615216
C            0.25450277759391       -1.33534706363072        0.08725094747197
C            1.63868531458181       -1.35655529815862        0.09000766916162
C            2.34580322212772       -0.17066391946565        0.04071652875660
C            1.65734970472849        1.02810140254673       -0.00931031882458
C            0.27049469652964        1.06227514547250       -0.01201375318752
C           -0.43837816294314        2.38212657015475       -0.06564629425463
H           -2.41127613098424       -1.97568216667969        0.99179632362945
H           -2.39767036388660       -2.05127767321941       -0.77715832960563
H           -3.73992755670268       -1.28323727846098        0.06573685266547
H           -2.28291925368722        0.51195016907178        0.88165972107454
H           -2.27580336689686        0.43996853557181       -0.87365486846115
H           -0.27688663221136       -2.27282834323819        0.12613435167130
H            2.16076946670369       -2.30140623592784        0.13047056953123
H            3.42583091763572       -0.17597241647426        0.04134337336969
H            2.20795022924893        1.95780954937850       -0.04717368715314
H           -1.07604815584954        2.51430585428685        0.80813487362479
H            0.27729164187969        3.19977099837940       -0.09622170843059
H           -1.07250506025224        2.44537940893582       -0.94964842793656
21
 energy: -25.382683067110 gnorm: 0.001695110141 xtb: 6.7.1 (edcfbbe)
C           -2.66345641009754       -1.43699536001290        0.08084632045296
C           -1.95367854133984       -0.08893651195265        0.02887463176982
C           -0.44731879859680       -0.13994508420435        0.03531946877918
C            0.25462064759900       -1.33616294416976        0.08627657938512
C            1.63890658288663       -1.35665016778687        0.08968195797139
C            2.34625701795960       -0.17044605669195        0.04170243133928
C            1.65777651102557        1.02840253187820       -0.00849037338147
C            0.27070986280780        1.06155565314125       -0.01212247333995
C           -0.43961640898057        2.38136672544103       -0.06643461751780
H           -2.40957100045296       -1.97503571785221        0.99084043197355
H           -2.39937211214866       -2.04864340480417       -0.77833983572113
H           -3.74031310707570       -1.28167763133550        0.06811858566555
H           -2.28117113489406        0.51209503787084        0.88265471012385
H           -2.27565987028962        0.44135601162853       -0.87254197355775
H           -0.27574001898825       -2.27422078288191        0.12416346697481
H            2.16135170154535       -2.30125720412359        0.12980990326438
H            3.42617067457093       -0.17602165110854        0.04341651914886
H            2.20803722940815        1.95818850368094       -0.04558132663420
H           -1.07738870615638        2.51255303991410        0.80703391481842
H            0.27553847971417        3.19910537772461       -0.09715956876732
H           -1.07320693851861        2.44281234931868       -0.95056819460642
21
 energy: -25.382685636856 gnorm: 0.000161802813 xtb: 6.7.1 (edcfbbe)
C           -2.66305630519743       -1.43763757796706        0.08081572351223
C           -1.95390553865705       -0.09006327702713        0.02880950812734
C           -0.44757787521921       -0.13955072790317        0.03551344094461
C            0.25456884129847       -1.33557155000536        0.08658032023002
C            1.63884349330842       -1.35655389405593        0.08979767315381
C            2.34603568231988       -0.17060027994095        0.04140167909684
C            1.65766452961933        1.02827962074565       -0.00872213213945
C            0.27072208587996        1.06224504912394       -0.01204765088393
C           -0.43848233450956        2.38210802786240       -0.06618848550497
H           -2.41051612710289       -1.97659361804517        0.99113655628405
H           -2.39934484220472       -2.05067768761021       -0.77800761898378
H           -3.74020094897040       -1.28279751152570        0.06745589791943
H           -2.28246227307907        0.51166942949082        0.88240501303067
H           -2.27630921955493        0.44052074630333       -0.87297647806905
H           -0.27663349182577       -2.27329615922551        0.12485662017515
H            2.16117996360658       -2.30140970072710        0.13000190756565
H            3.42616072383419       -0.17614930656749        0.04272587822252
H            2.20822911726434        1.95812979091149       -0.04617573618688
H           -1.07647050898080        2.51443032616400        0.80747352701921
H            0.27692668056350        3.20008287793692       -0.09691230370186
H           -1.07249599241461        2.44487813573600       -0.95044278167047
21
 energy: -25.382685820518 gnorm: 0.000047861844 xtb: 6.7.1 (edcfbbe)
C           -2.66301590990873       -1.43760573571483        0.08086334213789
C           -1.95386013803770       -0.09014785365607        0.02897277848386
C           -0.44757592021771       -0.13954095852457        0.03536473694756
C            0.25456826053721       -1.33551604971556        0.08621202309969
C            1.63880508497585       -1.35648746828641        0.08967380189710
C            2.34596252974362       -0.17055741174282        0.04180223251507
C            1.65761303457992        1.02828847587003       -0.00837988919269
C            0.27072155981611        1.06224628189338       -0.01207521770130
C           -0.43841005698953        2.38203489728964       -0.06651220178889
H           -2.40976833321651       -1.97714391202125        0.99064414319945
H           -2.40017804846122       -2.05026887467427       -0.77849705247185
H           -3.74016604769833       -1.28269032327667        0.06857301953679
H           -2.28219124241196        0.51138737510003        0.88283274630108
H           -2.27657572921983        0.44067985575269       -0.87258720077613
H           -0.27664131929259       -2.27322203633789        0.12405452568798
H            2.16118077008959       -2.30131284260732        0.12970867024236
H            3.42607758455170       -0.17614784010948        0.04355225087338
H            2.20814694773139        1.95814715778807       -0.04552501573990
H           -1.07651406999126        2.51462126318995        0.80701441170870
H            0.27699298941058        3.20000482838847       -0.09733274479837
H           -1.07229628601239        2.44467388506868       -0.95085880202067
21
 energy: -25.382685967880 gnorm: 0.000049210382 xtb: 6.7.1 (edcfbbe)
C           -2.66298323780803       -1.43759735458207        0.08095951707405
C           -1.95385541521709       -0.09017500674102        0.02912273088543
C           -0.44758772977751       -0.13955796891280        0.03507711111950
C            0.25456727341156       -1.33554287658387        0.08560038330947
C            1.63881281623582       -1.35650458852740        0.08950382107317
C            2.34596162804195       -0.17053347840165        0.04245339697165
C            1.65760275207384        1.02831285306394       -0.00782365981053
C            0.27071339435093        1.06226412351703       -0.01211392195297
C           -0.43838536109547        2.38201289948055       -0.06697314470022
H           -2.40846078271127       -1.97797361757175        0.98991224230461
H           -2.40152641674551       -2.04962465900899       -0.77929598449996
H           -3.74015254456909       -1.28261180212172        0.07045192850728
H           -2.28180578313117        0.51114086197009        0.88331694774997
H           -2.27697691633224        0.44100513832460       -0.87211153081349
H           -0.27667923051218       -2.27325217889988        0.12288102771279
H            2.16122104465041       -2.30132170168437        0.12932359338713
H            3.42607867609077       -0.17613272797104        0.04481985314504
H            2.20811200738539        1.95820343967719       -0.04459962210975
H           -1.07665226144576        2.51493173664402        0.80640065740886
H            0.27701874340322        3.19999625530838       -0.09796077260771
H           -1.07214699632036        2.44440336669452       -0.95144401601318
21
 energy: -25.382685985443 gnorm: 0.000127344626 xtb: 6.7.1 (edcfbbe)
C           -2.66295056570733       -1.43758897344930        0.08105569201020
C           -1.95385069239647       -0.09020215982597        0.02927268328700
C           -0.44759953933731       -0.13957497930103        0.03478948529144
C            0.25456628628592       -1.33556970345218        0.08498874351926
C            1.63882054749579       -1.35652170876838        0.08933384024924
C            2.34596072634029       -0.17050954506049        0.04310456142824
C            1.65759246956776        1.02833723025785       -0.00726743042838
C            0.27070522888574        1.06228196514069       -0.01215262620465
C           -0.43836066520140        2.38199090167146       -0.06743408761156
H           -2.40715323220603       -1.97880332312224        0.98918034140977
H           -2.40287478502980       -2.04898044334371       -0.78009491652807
H           -3.74013904143986       -1.28253328096676        0.07233083747776
H           -2.28142032385038        0.51089434884014        0.88380114919886
H           -2.27737810344466        0.44133042089651       -0.87163586085085
H           -0.27671714173178       -2.27328232146186        0.12170752973760
H            2.16126131921123       -2.30133056076141        0.12893851653190
H            3.42607976762985       -0.17611761583260        0.04608745541670
H            2.20807706703939        1.95825972156632       -0.04367422847960
H           -1.07679045290025        2.51524221009809        0.80578690310901
H            0.27704449739586        3.19998768222829       -0.09858880041706
H           -1.07199770662832        2.44413284832036       -0.95202923000569
