
                                 *****************
                                 * O   R   C   A *
                                 *****************

                                            #,                                       
                                            ###                                      
                                            ####                                     
                                            #####                                    
                                            ######                                   
                                           ########,                                 
                                     ,,################,,,,,                         
                               ,,#################################,,                 
                          ,,##########################################,,             
                       ,#########################################, ''#####,          
                    ,#############################################,,   '####,        
                  ,##################################################,,,,####,       
                ,###########''''           ''''###############################       
              ,#####''   ,,,,##########,,,,          '''####'''          '####       
            ,##' ,,,,###########################,,,                        '##       
           ' ,,###''''                  '''############,,,                           
         ,,##''                                '''############,,,,        ,,,,,,###''
      ,#''                                            '''#######################'''  
     '                                                          ''''####''''         
             ,#######,   #######,   ,#######,      ##                                
            ,#'     '#,  ##    ##  ,#'     '#,    #''#        ,####,   ,####,        
            ##       ##  ##   ,#'  ##            #'  '#       #'       #'  '#        
            ##       ##  #######   ##           ,######,      #####,   #    #        
            '#,     ,#'  ##    ##  '#,     ,#' ,#      #,     #,   #   #,  ,#        
             '#######'   ##     ##  '#######'  #'      '#     '####' # '####'        



                #########################################################
                #                        -***-                          #
                #          Department of theory and spectroscopy        #
                #                                                       #
                #                      Frank Neese                      #
                #                                                       #
                #     Directorship, Architecture, Infrastructure        #
                #                    SHARK, DRIVERS                     #
                #        Core code/Algorithms in most modules           #
                #                                                       #
                #        Max Planck Institute fuer Kohlenforschung      #
                #                Kaiser Wilhelm Platz 1                 #
                #                 D-45470 Muelheim/Ruhr                 #
                #                      Germany                          #
                #                                                       #
                #                  All rights reserved                  #
                #                        -***-                          #
                #########################################################


                         Program Version 6.0.1  -  RELEASE   -


 With contributions from (in alphabetic order):
[Max-Planck-Institut fuer Kohlenforschung]                               
  Daniel Aravena         : Magnetic Suceptibility                        
  Michael Atanasov       : Ab Initio Ligand Field Theory (pilot matlab implementation)
  Alexander A. Auer      : GIAO ZORA, VPT2 properties, NMR spectrum      
  Ute Becker             : All parallelization in ORCA, NUMFREQ, NUMCALC 
  Giovanni Bistoni       : ED, misc. LED, open-shell LED, HFLD           
  Martin Brehm           : Molecular dynamics                            
  Dmytro Bykov           : pre 5.0 version of the SCF Hessian            
  Marcos Casanova-Páez   : Triplet and SCS-CIS(D). UHF-(DLPNO)-IP/EA/STEOM-CCSD. UHF-CVS-IP/STEOM-CCSD   
  Vijay G. Chilkuri      : MRCI spin determinant printing, contributions to CSF-ICE 
  Pauline Colinet        : FMM embedding                                 
  Dipayan Datta          : RHF DLPNO-CCSD density                        
  Achintya Kumar Dutta   : EOM-CC, STEOM-CC                              
  Nicolas Foglia         : Exact transition moments, OPA infrastructure, MCD improvements    
  Dmitry Ganyushin       : Spin-Orbit,Spin-Spin,Magnetic field MRCI      
  Miquel Garcia-Rates    : C-PCM and meta-GGA Hessian, CCSD/C-PCM, Gaussian charge scheme 
  Tiago L. C. Gouveia    : GS-ROHF, GS-ROCIS                             
  Yang Guo               : DLPNO-NEVPT2, F12-NEVPT2, CIM, IAO-localization        
  Andreas Hansen         : Spin unrestricted coupled pair/coupled cluster methods 
  Ingolf Harden          : AUTO-CI MPn and infrastructure                
  Benjamin Helmich-Paris : MC-RPA, TRAH-(SCF,CASSCF), AVAS, COSX integrals, SCF dyn. polar. 
  Lee Huntington         : MR-EOM, pCC                                   
  Robert Izsak           : Overlap fitted RIJCOSX, COSX-SCS-MP3, EOM     
  Riya Kayal             : Wick's Theorem for AUTO-CI, AUTO-CI UHF-CCSDT 
  Emily Kempfer          : AUTO-CI, RHF CISDT and CCSDT                  
  Christian Kollmar      : KDIIS, OOCD, Brueckner-CCSD(T), CCSD density, CASPT2, CASPT2-K, improved NEVPT2 
  Axel Koslowski         : Symmetry handling                             
  Simone Kossmann        : meta-GGA functionals, TD-DFT gradient, OOMP2, (MP2 Hessian; deprecated post 5.0) 
  Lucas Lang             : DCDCAS                                        
  Marvin Lechner         : AUTO-CI (C++ implementation), FIC-MRCC        
  Spencer Leger          : CASSCF response                               
  Dagmar Lenk            : GEPOL surface, SMD, ORCA-2-JSON               
  Dimitrios Liakos       : Extrapolation schemes; Compound Job, initial MDCI parallelization 
  Dimitrios Manganas     : Further ROCIS development; embedding schemes. LFT, Crystal Embedding 
  Dimitrios Pantazis     : SARC Basis sets                               
  Anastasios Papadopoulos: AUTO-CI, single reference methods and gradients 
  Taras Petrenko         : pre 6.0 DFT Hessian and TD-DFT gradient, (ASA, deprecated), ECA, 1-Electron XAS/XES, NRVS 
  Peter Pinski           : DLPNO-MP2, DLPNO-MP2 Gradient                 
  Christoph Reimann      : Effective Core Potentials                     
  Marius Retegan         : Local ZFS, SOC                                
  Christoph Riplinger    : Optimizer, TS searches, QM/MM, DLPNO-CCSD(T), (RO)-DLPNO pert. Triples 
  Michael Roemelt        : Original ROCIS implementation                 
  Masaaki Saitow         : Open-shell DLPNO-CCSD energy and density      
  Barbara Sandhoefer     : DKH picture change effects                    
  Kantharuban Sivalingam : CASSCF convergence/infrastructure, NEVPT2 and variants, FIC-MRCI 
  Bernardo de Souza      : ESD, SOC TD-DFT                               
  Georgi L. Stoychev     : AutoAux, RI-MP2 NMR, DLPNO-MP2 response, X2C  
  Van Anh Tran           : RI-MP2 g-tensors                              
  Willem Van den Heuvel  : Paramagnetic NMR                              
  Zikuan Wang            : NOTCH, Electric field optimization            
  Frank Wennmohs         : Technical directorship and infrastructure     
  Hang Xu                : AUTO-CI-Response properties                   
                                                                         
[FACCTs GmbH]                                                            
  Markus Bursch, Miquel Garcia-Rates, Christoph Riplinger, Bernardo de Souza, Georgi L. Stoychev 
                                                                 
  APM, Basis sets (HGBS, AHGBS, def-TZVP (Ac-Lr), def2-XVPD (La-Lu)), CI-OPT, improved COSX, DLPNO-Multilevel,           
  DOCKER, DRACO, updates on ESD, GOAT, IRC, LR-CPCM, MBIS, meta-GGA TD-DFT gradient, ML-optimized integration grids, 
  MM, NACMEs, nearIR, NEB, NEB-TS, NL-DFT gradient (VV10), 2- and 3-layer-ONIOM, interface openCOSMO-RS, QMMM,   
  Crystal-QMMM, SF, symmetry and pop. for TD-DFT, r2SCAN hybrids, SOLVATOR                                   
                                                                         
[Other institutions]                                                     
  V. Asgeirsson          : NEB                                           
  Christoph Bannwarth    : sTDA-DFT, sTD-DFT, PBEh-3c, B97-3c, D3        
  Sebastian Ehlert       : rSCAN, r2SCAN, r2SCAN-3c, D4, dhf basis sets  
  Marvin Friede          : D4 for Fr, Ra, Ac-Lr                          
  Lars Goerigk           : TD-DFT with DH, B97 family of functionals     
  Stefan Grimme          : VdW corrections, initial TS optimization, DFT functionals, gCP, sTDA/sTD-DF 
  Waldemar Hujo          : DFT-NL                                        
  H. Jonsson             : NEB                                           
  Holger Kruse           : gCP                                           
  Marcel Mueller         : wB97X-3c, vDZP basis set                      
  Hagen Neugebauer       : wr2SCAN                                       
  Tobias Risthaus        : range-separated hybrid DFT                    
  Lukas Wittmann         : regularized MP2, r2SCAN double-hybrids, wr2SCAN        
                                                                         
We gratefully acknowledge several colleagues who have allowed us to      
interface, adapt or use parts of their codes:                            
  Ed Valeev, F. Pavosevic, A. Kumar             : LibInt (2-el integral package), F12 methods 
  Garnet Chan, S. Sharma, J. Yang, R. Olivares  : DMRG                   
  Ulf Ekstrom                                   : XCFun DFT Library      
  Mihaly Kallay                                 : mrcc  (arbitrary order and MRCC methods)
  Frank Weinhold                                : gennbo (NPA and NBO analysis)           
  Simon Mueller                                 : openCOSMO-RS                            
  Christopher J. Cramer and Donald G. Truhlar   : smd solvation model                     
  S Lehtola, MJT Oliveira, MAL Marques          : LibXC Library                           
  Liviu Ungur et al                             : ANISO software                          


 Your calculation uses the libint2 library for the computation of 2-el integrals
 For citations please refer to: http://libint.valeyev.net

 Your ORCA version has been built with support for libXC version: 6.2.2
 For citations please refer to: https://libxc.gitlab.io

 This ORCA versions uses:
   CBLAS   interface :  Fast vector & matrix operations
   LAPACKE interface :  Fast linear algebra routines
   SCALAPACK package :  Parallel linear algebra routines
   Shared memory     :  Shared parallel matrices
   BLAS/LAPACK       :  OpenBLAS 0.3.27  USE64BITINT DYNAMIC_ARCH NO_AFFINITY Zen SINGLE_THREADED
        Core in use  :  Zen
   Copyright (c) 2011-2014, The OpenBLAS Project


Your calculation utilizes the geometrical counterpoise correction gCP
Please cite in your paper:
H.Kruse, S. Grimme J.Chem.Phys., 136, (2012), 154101 
   

Your calculation utilizes the atom-pairwise dispersion correction
based on EEQ partial charges (D4)


================================================================================

----- Orbital basis set information -----
Your calculation utilizes the basis: def2-SV(P)
   F. Weigend and R. Ahlrichs, Phys. Chem. Chem. Phys. 7, 3297 (2005).

----- AuxJ basis set information -----
Your calculation utilizes the auxiliary basis: def2/J
   F. Weigend, Phys. Chem. Chem. Phys. 8, 1057 (2006).

================================================================================
                                        WARNINGS
                       Please study these warnings very carefully!
================================================================================


================================================================================
                                       INPUT FILE
================================================================================
NAME = sp.inp
|  1> ! pbe def2-sv(p) def2/J RI DEFGRID1 loosescf d4 GCP(DFT/SV(P)) printgap
|  2> %output
|  3>     printlevel normal
|  4> end
|  5> * xyz 0 1
|  6> C -2.4674569297 -1.1527162534 0.1779033025
|  7> C -1.0580066772 -0.6089151781 0.5201224374
|  8> H -0.9425007165 -0.5303533466 1.6131436966
|  9> C -0.8078030715 0.7825107423 -0.0805073137
| 10> H -0.9257519209 0.7253501179 -1.1735489041
| 11> C 0.6266849415 1.222161035 0.2245796864
| 12> H 0.7550864515 1.3168907291 1.3163826628
| 13> C 1.6020813131 0.162218796 -0.2850535339
| 14> H 1.5168734398 0.0823060091 -1.3801951937
| 15> C 1.2187557821 -1.1984101803 0.3195693937
| 16> H 1.3558500845 -1.1463500574 1.4229736188
| 17> O -0.1086484861 -1.5333855678 0.0238508133
| 18> O 2.047372209 -2.1729900834 -0.2216998607
| 19> O 2.9039963655 0.5406740186 0.0837509592
| 20> O 0.8370900181 2.4708347766 -0.3878515097
| 21> O -1.735557787 1.6905933314 0.4644976682
| 22> O -3.1865888757 -0.3746203177 -0.730036809
| 23> H -3.0344812227 -1.2768906301 1.1102404373
| 24> H -2.3384401992 -2.1312072086 -0.2897869123
| 25> H 1.5318534656 -2.9844653215 -0.295612579
| 26> H 3.4871049465 -0.2073870368 -0.0928427746
| 27> H 1.7856225667 2.6452684551 -0.3633012788
| 28> H -1.4192641023 2.5759508237 0.2423012543
| 29> H -3.2438067603 0.5233185247 -0.3731244953
| 30> *
| 31> 
| 32>                          ****END OF INPUT****
================================================================================

                       ****************************
                       * Single Point Calculation *
                       ****************************

---------------------------------
CARTESIAN COORDINATES (ANGSTROEM)
---------------------------------
  C     -2.467457   -1.152716    0.177903
  C     -1.058007   -0.608915    0.520122
  H     -0.942501   -0.530353    1.613144
  C     -0.807803    0.782511   -0.080507
  H     -0.925752    0.725350   -1.173549
  C      0.626685    1.222161    0.224580
  H      0.755086    1.316891    1.316383
  C      1.602081    0.162219   -0.285054
  H      1.516873    0.082306   -1.380195
  C      1.218756   -1.198410    0.319569
  H      1.355850   -1.146350    1.422974
  O     -0.108648   -1.533386    0.023851
  O      2.047372   -2.172990   -0.221700
  O      2.903996    0.540674    0.083751
  O      0.837090    2.470835   -0.387852
  O     -1.735558    1.690593    0.464498
  O     -3.186589   -0.374620   -0.730037
  H     -3.034481   -1.276891    1.110240
  H     -2.338440   -2.131207   -0.289787
  H      1.531853   -2.984465   -0.295613
  H      3.487105   -0.207387   -0.092843
  H      1.785623    2.645268   -0.363301
  H     -1.419264    2.575951    0.242301
  H     -3.243807    0.523319   -0.373124

----------------------------
CARTESIAN COORDINATES (A.U.)
----------------------------
  NO LB      ZA    FRAG     MASS         X           Y           Z
   0 C     6.0000    0    12.011   -4.662818   -2.178318    0.336189
   1 C     6.0000    0    12.011   -1.999343   -1.150683    0.982889
   2 H     1.0000    0     1.008   -1.781068   -1.002223    3.048400
   3 C     6.0000    0    12.011   -1.526527    1.478731   -0.152137
   4 H     1.0000    0     1.008   -1.749418    1.370713   -2.217686
   5 C     6.0000    0    12.011    1.184263    2.309550    0.424394
   6 H     1.0000    0     1.008    1.426907    2.488563    2.487603
   7 C     6.0000    0    12.011    3.027495    0.306549   -0.538673
   8 H     1.0000    0     1.008    2.866475    0.155536   -2.608191
   9 C     6.0000    0    12.011    2.303115   -2.264667    0.603899
  10 H     1.0000    0     1.008    2.562185   -2.166288    2.689030
  11 O     8.0000    0    15.999   -0.205316   -2.897679    0.045072
  12 O     8.0000    0    15.999    3.868973   -4.106356   -0.418952
  13 O     8.0000    0    15.999    5.487758    1.021726    0.158266
  14 O     8.0000    0    15.999    1.581871    4.669201   -0.732933
  15 O     8.0000    0    15.999   -3.279729    3.194758    0.877773
  16 O     8.0000    0    15.999   -6.021780   -0.707930   -1.379570
  17 H     1.0000    0     1.008   -5.734338   -2.412974    2.098050
  18 H     1.0000    0     1.008   -4.419012   -4.027398   -0.547618
  19 H     1.0000    0     1.008    2.894784   -5.639822   -0.558627
  20 H     1.0000    0     1.008    6.589673   -0.391905   -0.175447
  21 H     1.0000    0     1.008    3.374338    4.998833   -0.686540
  22 H     1.0000    0     1.008   -2.682020    4.867842    0.457883
  23 H     1.0000    0     1.008   -6.129906    0.988929   -0.705103

--------------------------------
INTERNAL COORDINATES (ANGSTROEM)
--------------------------------
 C      0   0   0     0.000000000000     0.00000000     0.00000000
 C      1   0   0     1.548994370571     0.00000000     0.00000000
 H      2   1   0     1.101911548805   109.84989403     0.00000000
 C      2   1   3     1.536041677225   112.32378729   239.98907242
 H      4   2   1     1.100872011816   108.89024838   301.55728187
 C      4   2   1     1.531053988905   109.56142088   183.33924550
 H      6   4   2     1.103401287833   109.32059820   296.80271095
 C      6   4   2     1.527940329653   109.41723840    55.34826878
 H      8   6   4     1.101354479817   109.42707529    63.12669917
 C      8   6   4     1.537471482156   108.87995751   305.39961771
 H     10   8   6     1.113106458572   108.52583534   295.57283941
 O     10   8   6     1.400592760320   111.40262029    56.45826902
 O     10   8   6     1.389022525452   108.59954982   175.74682748
 O      8   6   4     1.405072209287   108.48809014   183.90689284
 O      6   4   2     1.406601713058   107.95705795   177.51154125
 O      4   2   1     1.407967766341   108.99861430    61.95145703
 O      1   2   3     1.395327662946   114.64185474   127.30539307
 H      1   2   3     1.098266068677   108.77915710     3.11535119
 H      1   2   3     1.092164824180   107.55658240   245.36309473
 H     13  10   8     0.964217157477   107.54242716   213.70280019
 H     14   8   6     0.964777853529   107.64586962   169.50157289
 H     15   6   4     0.964750650576   107.24728845   192.56376912
 H     16   4   2     0.966059434250   106.63731557   166.31889960
 H     17   1   2     0.967964075098   107.92900600   303.84921099

---------------------------
INTERNAL COORDINATES (A.U.)
---------------------------
 C      0   0   0     0.000000000000     0.00000000     0.00000000
 C      1   0   0     2.927175143365     0.00000000     0.00000000
 H      2   1   0     2.082311051046   109.84989403     0.00000000
 C      2   1   3     2.902698100245   112.32378729   239.98907242
 H      4   2   1     2.080346610832   108.89024838   301.55728187
 C      4   2   1     2.893272735278   109.56142088   183.33924550
 H      6   4   2     2.085126249819   109.32059820   296.80271095
 C      6   4   2     2.887388772018   109.41723840    55.34826878
 H      8   6   4     2.081258343221   109.42707529    63.12669917
 C      8   6   4     2.905400039989   108.87995751   305.39961771
 H     10   8   6     2.103466364601   108.52583534   295.57283941
 O     10   8   6     2.646736742157   111.40262029    56.45826902
 O     10   8   6     2.624872166952   108.59954982   175.74682748
 O      8   6   4     2.655201673935   108.48809014   183.90689284
 O      6   4   2     2.658092017184   107.95705795   177.51154125
 O      4   2   1     2.660673483773   108.99861430    61.95145703
 O      1   2   3     2.636787150052   114.64185474   127.30539307
 H      1   2   3     2.075422091979   108.77915710     3.11535119
 H      1   2   3     2.063892410803   107.55658240   245.36309473
 H     13  10   8     1.822106361259   107.54242716   213.70280019
 H     14   8   6     1.823165923242   107.64586962   169.50157289
 H     15   6   4     1.823114517110   107.24728845   192.56376912
 H     16   4   2     1.825587759823   106.63731557   166.31889960
 H     17   1   2     1.829187009409   107.92900600   303.84921099

---------------------
BASIS SET INFORMATION
---------------------
There are 3 groups of distinct atoms

 Group   1 Type C   : 7s4p1d contracted to 3s2p1d pattern {511/31/1}
 Group   2 Type H   : 4s contracted to 2s pattern {31}
 Group   3 Type O   : 7s4p1d contracted to 3s2p1d pattern {511/31/1}

Atom   0C    basis set group =>   1
Atom   1C    basis set group =>   1
Atom   2H    basis set group =>   2
Atom   3C    basis set group =>   1
Atom   4H    basis set group =>   2
Atom   5C    basis set group =>   1
Atom   6H    basis set group =>   2
Atom   7C    basis set group =>   1
Atom   8H    basis set group =>   2
Atom   9C    basis set group =>   1
Atom  10H    basis set group =>   2
Atom  11O    basis set group =>   3
Atom  12O    basis set group =>   3
Atom  13O    basis set group =>   3
Atom  14O    basis set group =>   3
Atom  15O    basis set group =>   3
Atom  16O    basis set group =>   3
Atom  17H    basis set group =>   2
Atom  18H    basis set group =>   2
Atom  19H    basis set group =>   2
Atom  20H    basis set group =>   2
Atom  21H    basis set group =>   2
Atom  22H    basis set group =>   2
Atom  23H    basis set group =>   2
---------------------------------
AUXILIARY/J BASIS SET INFORMATION
---------------------------------
There are 3 groups of distinct atoms

 Group   1 Type C   : 12s5p4d2f1g contracted to 6s4p3d1f1g pattern {711111/2111/211/2/1}
 Group   2 Type H   : 5s2p1d contracted to 3s1p1d pattern {311/2/1}
 Group   3 Type O   : 12s5p4d2f1g contracted to 6s4p3d1f1g pattern {711111/2111/211/2/1}

Atom   0C    basis set group =>   1
Atom   1C    basis set group =>   1
Atom   2H    basis set group =>   2
Atom   3C    basis set group =>   1
Atom   4H    basis set group =>   2
Atom   5C    basis set group =>   1
Atom   6H    basis set group =>   2
Atom   7C    basis set group =>   1
Atom   8H    basis set group =>   2
Atom   9C    basis set group =>   1
Atom  10H    basis set group =>   2
Atom  11O    basis set group =>   3
Atom  12O    basis set group =>   3
Atom  13O    basis set group =>   3
Atom  14O    basis set group =>   3
Atom  15O    basis set group =>   3
Atom  16O    basis set group =>   3
Atom  17H    basis set group =>   2
Atom  18H    basis set group =>   2
Atom  19H    basis set group =>   2
Atom  20H    basis set group =>   2
Atom  21H    basis set group =>   2
Atom  22H    basis set group =>   2
Atom  23H    basis set group =>   2
------------------------------------------------------------------------------
                             ORCA STARTUP CALCULATIONS
                           -- RI-GTO INTEGRALS CHOSEN --
------------------------------------------------------------------------------
------------------------------------------------------------------------------
                   ___                                                        
                  /   \      - P O W E R E D   B Y -                         
                 /     \                                                     
                 |  |  |   _    _      __       _____    __    __             
                 |  |  |  | |  | |    /  \     |  _  \  |  |  /  |          
                  \  \/   | |  | |   /    \    | | | |  |  | /  /          
                 / \  \   | |__| |  /  /\  \   | |_| |  |  |/  /          
                |  |  |   |  __  | /  /__\  \  |    /   |      \           
                |  |  |   | |  | | |   __   |  |    \   |  |\   \          
                \     /   | |  | | |  |  |  |  | |\  \  |  | \   \       
                 \___/    |_|  |_| |__|  |__|  |_| \__\ |__|  \__/        
                                                                              
                      - O R C A' S   B I G   F R I E N D -                    
                                      &                                       
                       - I N T E G R A L  F E E D E R -                       
                                                                              
 v1 FN, 2020, v2 2021, v3 2022-2024                                           
------------------------------------------------------------------------------


----------------------
SHARK INTEGRAL PACKAGE
----------------------

Number of atoms                             ...     24
Number of basis functions                   ...    192
Number of shells                            ...     96
Maximum angular momentum                    ...      2
Integral batch strategy                     ... SHARK/LIBINT Hybrid
RI-J (if used) integral strategy            ... SPLIT-RIJ (Revised 2003 algorithm where possible)
Printlevel                                  ...      1
Contraction scheme used                     ... SEGMENTED contraction
Prescreening option                         ... SCHWARTZ
   Thresh                                   ... 1.000e-09
   Tcut                                     ... 1.000e-10
   Tpresel                                  ... 1.000e-10 
Coulomb Range Separation                    ... NOT USED
Exchange Range Separation                   ... NOT USED
Multipole approximations                    ... NOT USED
Finite Nucleus Model                        ... NOT USED
CABS basis                                  ... NOT available
Auxiliary Coulomb fitting basis             ... AVAILABLE
   # of basis functions in Aux-J            ...    720
   # of shells in Aux-J                     ...    240
   Maximum angular momentum in Aux-J        ...      4
Auxiliary J/K fitting basis                 ... NOT available
Auxiliary Correlation fitting basis         ... NOT available
Auxiliary 'external' fitting basis          ... NOT available

Checking pre-screening integrals            ... done (  0.0 sec) Dimension = 96
Check shell pair data                       ... done (  0.0 sec)
Shell pair information
Shell pair cut-off parameter TPreSel        ...   1.0e-10
Total number of shell pairs                 ...      4656
Shell pairs after pre-screening             ...      4163
Total number of primitive shell pairs       ...     18720
Primitive shell pairs kept                  ...     11157
          la=0 lb=0:   1620 shell pairs
          la=1 lb=0:   1323 shell pairs
          la=1 lb=1:    286 shell pairs
          la=2 lb=0:    609 shell pairs
          la=2 lb=1:    261 shell pairs
          la=2 lb=2:     64 shell pairs

Calculating one electron integrals          ... done (  0.0 sec)
Calculating RI/J V-Matrix + Cholesky decomp.... done (  0.0 sec)
Calculating Nuclear repulsion               ... done (  0.0 sec) ENN=    832.689823380384 Eh

Diagonalization of the overlap matrix:
Smallest eigenvalue                        ... 8.750e-04
Time for diagonalization                   ...    0.003 sec
Threshold for overlap eigenvalues          ... 1.000e-07
Number of eigenvalues below threshold      ... 0
Time for construction of square roots      ...    0.004 sec
Total time needed                          ...    0.008 sec

-------------------
DFT GRID GENERATION
-------------------

General Integration Accuracy     IntAcc      ... 4.159
Radial Grid Type                 RadialGrid  ... OptM3 with GC (2021)
Angular Grid (max. ang.)         AngularGrid ... 3 (Lebedev-194)
Angular grid pruning method      GridPruning ... 4 (adaptive)
Weight generation scheme         WeightScheme... mBecke (2022)
Basis function cutoff            BFCut       ... 1.0000e-10
Integration weight cutoff        WCut        ... 1.0000e-14
Partially contracted basis set               ... off
Rotationally invariant grid construction     ... off
Angular grids for H and He will be reduced by one unit

Total number of grid points                  ...    55705
Total number of batches                      ...      882
Average number of points per batch           ...       63
Average number of grid points per atom       ...     2321
Initializing property integral containers    ... done (  0.0 sec)

SHARK setup successfully completed in   0.6 seconds

Maximum memory used throughout the entire STARTUP-calculation: 28.5 MB
-------------------------------------------------------------------------------
                                 ORCA GUESS
                   Start orbitals & Density for SCF / CASSCF
-------------------------------------------------------------------------------

------------
SCF SETTINGS
------------
Hamiltonian:
 Density Functional     Method          .... DFT(GTOs)
 Exchange Functional    Exchange        .... PBE
   PBE kappa parameter   XKappa         ....  0.804000
   PBE mue parameter    XMuePBE         ....  0.219520
 Correlation Functional Correlation     .... PBE
   PBE beta parameter  CBetaPBE         ....  0.066725
 LDA part of GGA corr.  LDAOpt          .... PW91-LDA
 Gradients option       PostSCFGGA      .... off
   NL short-range parameter             ....  6.400000
 RI-approximation to the Coulomb term is turned on
   Number of AuxJ basis functions       .... 720


General Settings:
 Integral files         IntName         .... sp
 Hartree-Fock type      HFTyp           .... RHF
 Total Charge           Charge          ....    0
 Multiplicity           Mult            ....    1
 Number of Electrons    NEL             ....   96
 Basis Dimension        Dim             ....  192
 Nuclear Repulsion      ENuc            ....    832.6898233804 Eh

Convergence Acceleration:
 AO-DIIS                CNVDIIS         .... on
   Start iteration      DIISMaxIt       ....    12
   Startup error        DIISStart       ....  0.200000
   # of expansion vecs  DIISMaxEq       ....     5
   Bias factor          DIISBfac        ....   1.050
   Max. coefficient     DIISMaxC        ....  10.000
 MO-DIIS                CNVKDIIS        .... off
 Trust-Rad. Augm. Hess. CNVTRAH         .... auto
   Auto Start mean grad. ratio tolernc. ....  1.125000
   Auto Start start iteration           ....    50
   Auto Start num. interpolation iter.  ....    10
   Max. Number of Micro iterations      ....    24
   Max. Number of Macro iterations      .... Maxiter - #DIIS iter
   Number of Davidson start vectors     ....     2
   Converg. threshold    (grad. norm)   ....   1.000e-04
   Grad. Scal. Fac. for Micro threshold ....   0.100
   Minimum threshold for Micro iter.    ....   1.000e-02
   NR start threshold (gradient norm)   ....   1.000e-04
   Initial trust radius                 ....   0.400
   Minimum AH scaling param. (alpha)    ....   1.000
   Maximum AH scaling param. (alpha)    .... 1000.000
   Quad. conv. algorithm                .... NR
   White noise on init. David. guess    .... on
   Maximum white noise                  ....   0.010
   Pseudo random numbers                .... off
   Inactive MOs                         .... canonical
   Orbital update algorithm             .... Taylor
   Preconditioner                       .... Diag
   Full preconditioner red. dimension   ....   250
 SOSCF                  CNVSOSCF        .... on
   Start iteration      SOSCFMaxIt      ....   150
   Startup grad/error   SOSCFStart      ....  0.003300
   Hessian update       SOSCFHessUp     .... L-BFGS
 Level Shifting         CNVShift        .... on
   Level shift para.    LevelShift      ....    0.2500
   Turn off err/grad.   ShiftErr        ....    0.0010
 Zerner damping         CNVZerner       .... off
 Static damping         CNVDamp         .... on
   Fraction old density DampFac         ....    0.7000
   Max. Damping (<1)    DampMax         ....    0.9800
   Min. Damping (>=0)   DampMin         ....    0.0000
   Turn off err/grad.   DampErr         ....    0.1000

SCF Procedure:
 Maximum # iterations   MaxIter         ....   125
 SCF integral mode      SCFMode         .... Direct
   Integral package                     .... SHARK and LIBINT hybrid scheme
 Reset frequency        DirectResetFreq ....    20
 Integral Threshold     Thresh          ....  1.000e-09 Eh
 Primitive CutOff       TCut            ....  1.000e-10 Eh

Convergence Tolerance:
 Convergence Check Mode ConvCheckMode   .... Total+1el-Energy
 Convergence forced     ConvForced      .... 0
 Energy Change          TolE            ....  1.000e-05 Eh
 1-El. energy change                    ....  1.000e-02 Eh
 Orbital Gradient       TolG            ....  1.000e-04
 Orbital Rotation angle TolX            ....  1.000e-04
 DIIS Error             TolErr          ....  5.000e-04

------------------------------
INITIAL GUESS: MODEL POTENTIAL
------------------------------
Loading Hartree-Fock densities                     ... done
Calculating cut-offs                               ... done
Initializing the effective Hamiltonian             ... done
Setting up the integral package (SHARK)            ... done
Starting the Coulomb interaction                   ... done (   0.2 sec)
Making the grid                                    ... done (   0.2 sec)
Mapping shells                                     ... done
Starting the XC term evaluation                    ... done (   0.2 sec)
  promolecular density results
     # of electrons  =     95.990353788
     EX              =    -83.252719580
     EC              =     -3.273983054
     EX+EC           =    -86.526702635
Transforming the Hamiltonian                       ... done (   0.0 sec)
Diagonalizing the Hamiltonian                      ... done (   0.0 sec)
Back transforming the eigenvectors                 ... done (   0.0 sec)
Now organizing SCF variables                       ... done
                      ------------------
                      INITIAL GUESS DONE (   0.6 sec)
                      ------------------
             **** ENERGY FILE WAS UPDATED (sp.en.tmp) ****
Finished Guess after   0.7 sec
Maximum memory used throughout the entire GUESS-calculation: 22.3 MB

-------------------------------------------------------------------------------------------
                                      ORCA LEAN-SCF
                              memory conserving SCF solver
-------------------------------------------------------------------------------------------

----------------------------------------D-I-I-S--------------------------------------------
Iteration    Energy (Eh)           Delta-E    RMSDP     MaxDP     DIISErr   Damp  Time(sec)
-------------------------------------------------------------------------------------------
               ***  Starting incremental Fock matrix formation  ***
    1    -685.5395052657179349     0.00e+00  5.09e-03  1.58e-01  2.19e-01  0.700   0.8
    2    -685.6848705141451319    -1.45e-01  3.26e-03  1.07e-01  8.39e-02  0.700   0.7
                               ***Turning on AO-DIIS***
    3    -685.7304259621507754    -4.56e-02  1.08e-03  2.59e-02  1.90e-02  0.700   0.7
    4    -685.7609818425942194    -3.06e-02  1.34e-03  2.05e-02  1.06e-02  0.000   0.7
    5    -685.8317680874752114    -7.08e-02  4.54e-04  1.57e-02  5.16e-03  0.000   0.7
                              *** Initializing SOSCF ***
---------------------------------------S-O-S-C-F--------------------------------------
Iteration    Energy (Eh)           Delta-E    RMSDP     MaxDP     MaxGrad    Time(sec)
--------------------------------------------------------------------------------------
    6    -685.8320809773122164    -3.13e-04  1.40e-04  3.37e-03  1.04e-03     0.7
               *** Restarting incremental Fock matrix formation ***
    7    -685.8321060719263187    -2.51e-05  9.13e-05  1.92e-03  1.70e-04     0.8
    8    -685.8321059623692690     1.10e-07  3.72e-05  9.88e-04  2.21e-04     0.6
                 **** Energy Check signals convergence ****

               *****************************************************
               *                     SUCCESS                       *
               *           SCF CONVERGED AFTER   8 CYCLES          *
               *****************************************************

             **** ENERGY FILE WAS UPDATED (sp.en.tmp) ****

----------------
TOTAL SCF ENERGY
----------------

Total Energy       :       -685.83210596236927 Eh          -18662.44038 eV

Components:
Nuclear Repulsion  :        832.68982338038404 Eh           22658.64204 eV
Electronic Energy  :      -1518.52192934275331 Eh          -41321.08242 eV
One Electron Energy:      -2594.09634040058017 Eh          -70588.95010 eV
Two Electron Energy:       1075.57441105782686 Eh           29267.86767 eV

Virial components:
Potential Energy   :      -1366.97684795408691 Eh          -37197.33111 eV
Kinetic Energy     :        681.14474199171764 Eh           18534.89073 eV
Virial Ratio       :          2.00688159752499

DFT components:
N(Alpha)           :       47.999896507865 electrons
N(Beta)            :       47.999896507865 electrons
N(Total)           :       95.999793015729 electrons
E(X)               :      -84.616836374797 Eh       
E(C)               :       -3.283760009314 Eh       
E(XC)              :      -87.900596384111 Eh       

---------------
SCF CONVERGENCE
---------------

  Last Energy change         ...   -1.0956e-07  Tolerance :   1.0000e-05
  Last MAX-Density change    ...    9.8778e-04  Tolerance :   1.0000e-03
  Last RMS-Density change    ...    3.7203e-05  Tolerance :   1.0000e-04
  Last DIIS Error            ...    1.0372e-03  Tolerance :   5.0000e-04
  Last Orbital Gradient      ...    2.2108e-04  Tolerance :   1.0000e-04
  Last Orbital Rotation      ...    1.4710e-04  Tolerance :   1.0000e-04


----------------
ORBITAL ENERGIES
----------------

  NO   OCC          E(Eh)            E(eV) 
   0   2.0000     -18.783933      -511.1368 
   1   2.0000     -18.769655      -510.7483 
   2   2.0000     -18.768723      -510.7229 
   3   2.0000     -18.764777      -510.6155 
   4   2.0000     -18.761477      -510.5258 
   5   2.0000     -18.737597      -509.8759 
   6   2.0000      -9.994015      -271.9510 
   7   2.0000      -9.950850      -270.7764 
   8   2.0000      -9.947933      -270.6970 
   9   2.0000      -9.947715      -270.6911 
  10   2.0000      -9.945444      -270.6293 
  11   2.0000      -9.930011      -270.2093 
  12   2.0000      -0.996843       -27.1255 
  13   2.0000      -0.957450       -26.0535 
  14   2.0000      -0.946942       -25.7676 
  15   2.0000      -0.927682       -25.2435 
  16   2.0000      -0.925492       -25.1839 
  17   2.0000      -0.914888       -24.8954 
  18   2.0000      -0.711719       -19.3669 
  19   2.0000      -0.695163       -18.9164 
  20   2.0000      -0.618458       -16.8291 
  21   2.0000      -0.590277       -16.0623 
  22   2.0000      -0.565162       -15.3788 
  23   2.0000      -0.534194       -14.5361 
  24   2.0000      -0.519851       -14.1459 
  25   2.0000      -0.490934       -13.3590 
  26   2.0000      -0.477835       -13.0025 
  27   2.0000      -0.461754       -12.5650 
  28   2.0000      -0.445135       -12.1127 
  29   2.0000      -0.440221       -11.9790 
  30   2.0000      -0.423590       -11.5265 
  31   2.0000      -0.416629       -11.3370 
  32   2.0000      -0.389244       -10.5919 
  33   2.0000      -0.369790       -10.0625 
  34   2.0000      -0.365401        -9.9431 
  35   2.0000      -0.358744        -9.7619 
  36   2.0000      -0.337895        -9.1946 
  37   2.0000      -0.329011        -8.9528 
  38   2.0000      -0.321022        -8.7355 
  39   2.0000      -0.303379        -8.2554 
  40   2.0000      -0.292514        -7.9597 
  41   2.0000      -0.271008        -7.3745 
  42   2.0000      -0.254957        -6.9377 
  43   2.0000      -0.251918        -6.8550 
  44   2.0000      -0.234823        -6.3899 
  45   2.0000      -0.229932        -6.2568 
  46   2.0000      -0.213243        -5.8026 
  47   2.0000      -0.212448        -5.7810 
  48   0.0000       0.010203         0.2776 
  49   0.0000       0.023739         0.6460 
  50   0.0000       0.037852         1.0300 
  51   0.0000       0.054465         1.4821 
  52   0.0000       0.063129         1.7178 
  53   0.0000       0.072608         1.9758 
  54   0.0000       0.076584         2.0839 
  55   0.0000       0.087465         2.3801 
  56   0.0000       0.099014         2.6943 
  57   0.0000       0.108147         2.9428 
  58   0.0000       0.120295         3.2734 
*Only the first 10 virtual orbitals were printed.

                    ********************************
                    * MULLIKEN POPULATION ANALYSIS *
                    ********************************

-----------------------
MULLIKEN ATOMIC CHARGES
-----------------------
   0 C :    0.092521
   1 C :    0.017140
   2 H :    0.054620
   3 C :    0.029474
   4 H :    0.072066
   5 C :    0.059006
   6 H :    0.056078
   7 C :    0.039136
   8 H :    0.060993
   9 C :    0.179032
  10 H :    0.040535
  11 O :   -0.313186
  12 O :   -0.399235
  13 O :   -0.425029
  14 O :   -0.426030
  15 O :   -0.432884
  16 O :   -0.433884
  17 H :    0.072882
  18 H :    0.088936
  19 H :    0.312117
  20 H :    0.314783
  21 H :    0.315969
  22 H :    0.320307
  23 H :    0.304653
Sum of atomic charges:    0.0000000

--------------------------------
MULLIKEN REDUCED ORBITAL CHARGES
--------------------------------
  0 C s       :     2.988268  s :     2.988268
      pz      :     0.929387  p :     2.855639
      px      :     0.928518
      py      :     0.997734
      dz2     :     0.013126  d :     0.063572
      dxz     :     0.015959
      dyz     :     0.011838
      dx2y2   :     0.013312
      dxy     :     0.009337

  1 C s       :     3.065119  s :     3.065119
      pz      :     1.023996  p :     2.852143
      px      :     0.955884
      py      :     0.872262
      dz2     :     0.016519  d :     0.065598
      dxz     :     0.009613
      dyz     :     0.009477
      dx2y2   :     0.013683
      dxy     :     0.016306

  2 H s       :     0.945380  s :     0.945380

  3 C s       :     3.034813  s :     3.034813
      pz      :     1.032501  p :     2.868235
      px      :     0.918792
      py      :     0.916941
      dz2     :     0.017785  d :     0.067479
      dxz     :     0.009547
      dyz     :     0.010696
      dx2y2   :     0.014809
      dxy     :     0.014642

  4 H s       :     0.927934  s :     0.927934

  5 C s       :     3.046869  s :     3.046869
      pz      :     0.977921  p :     2.825988
      px      :     1.016954
      py      :     0.831112
      dz2     :     0.018612  d :     0.068137
      dxz     :     0.006148
      dyz     :     0.014609
      dx2y2   :     0.015292
      dxy     :     0.013476

  6 H s       :     0.943922  s :     0.943922

  7 C s       :     3.041878  s :     3.041878
      pz      :     1.041715  p :     2.851924
      px      :     0.811520
      py      :     0.998689
      dz2     :     0.016315  d :     0.067063
      dxz     :     0.013799
      dyz     :     0.006660
      dx2y2   :     0.014755
      dxy     :     0.015534

  8 H s       :     0.939007  s :     0.939007

  9 C s       :     3.041476  s :     3.041476
      pz      :     1.007968  p :     2.678973
      px      :     0.750558
      py      :     0.920446
      dz2     :     0.023129  d :     0.100519
      dxz     :     0.017654
      dyz     :     0.012915
      dx2y2   :     0.022678
      dxy     :     0.024145

 10 H s       :     0.959465  s :     0.959465

 11 O s       :     3.758255  s :     3.758255
      pz      :     1.742876  p :     4.539449
      px      :     1.195127
      py      :     1.601446
      dz2     :     0.002174  d :     0.015483
      dxz     :     0.003133
      dyz     :     0.002372
      dx2y2   :     0.003448
      dxy     :     0.004356

 12 O s       :     3.761691  s :     3.761691
      pz      :     1.802247  p :     4.622287
      px      :     1.577867
      py      :     1.242173
      dz2     :     0.002863  d :     0.015257
      dxz     :     0.002352
      dyz     :     0.000983
      dx2y2   :     0.001953
      dxy     :     0.007106

 13 O s       :     3.778690  s :     3.778690
      pz      :     1.841013  p :     4.630917
      px      :     1.243247
      py      :     1.546657
      dz2     :     0.002413  d :     0.015422
      dxz     :     0.002152
      dyz     :     0.001820
      dx2y2   :     0.002489
      dxy     :     0.006548

 14 O s       :     3.780277  s :     3.780277
      pz      :     1.791320  p :     4.630424
      px      :     1.367554
      py      :     1.471550
      dz2     :     0.002858  d :     0.015329
      dxz     :     0.000834
      dyz     :     0.002817
      dx2y2   :     0.007091
      dxy     :     0.001728

 15 O s       :     3.785661  s :     3.785661
      pz      :     1.790077  p :     4.631938
      px      :     1.617020
      py      :     1.224841
      dz2     :     0.002284  d :     0.015285
      dxz     :     0.002727
      dyz     :     0.002385
      dx2y2   :     0.003464
      dxy     :     0.004424

 16 O s       :     3.786646  s :     3.786646
      pz      :     1.611069  p :     4.631271
      px      :     1.741978
      py      :     1.278224
      dz2     :     0.002814  d :     0.015966
      dxz     :     0.003049
      dyz     :     0.005099
      dx2y2   :     0.003947
      dxy     :     0.001057

 17 H s       :     0.927118  s :     0.927118

 18 H s       :     0.911064  s :     0.911064

 19 H s       :     0.687883  s :     0.687883

 20 H s       :     0.685217  s :     0.685217

 21 H s       :     0.684031  s :     0.684031

 22 H s       :     0.679693  s :     0.679693

 23 H s       :     0.695347  s :     0.695347


------------------------
MULLIKEN OVERLAP CHARGES
------------------------
B(  0-C ,  1-C ) :   0.4539 B(  0-C ,  2-H ) :  -0.0507 B(  0-C ,  3-C ) :  -0.0533 
B(  0-C , 11-O ) :  -0.0682 B(  0-C , 16-O ) :   0.7572 B(  0-C , 17-H ) :   0.7027 
B(  0-C , 18-H ) :   0.6611 B(  0-C , 23-H ) :  -0.0757 B(  1-C ,  2-H ) :   0.5614 
B(  1-C ,  3-C ) :   0.2098 B(  1-C ,  4-H ) :  -0.0596 B(  1-C ,  5-C ) :   0.0505 
B(  1-C ,  9-C ) :  -0.0936 B(  1-C , 11-O ) :   0.5180 B(  1-C , 15-O ) :  -0.0964 
B(  1-C , 16-O ) :  -0.1609 B(  1-C , 17-H ) :  -0.0821 B(  2-H , 11-O ) :  -0.0679 
B(  3-C ,  4-H ) :   0.6077 B(  3-C ,  5-C ) :   0.1373 B(  3-C ,  6-H ) :  -0.0545 
B(  3-C , 14-O ) :  -0.1245 B(  3-C , 15-O ) :   0.5466 B(  3-C , 22-H ) :  -0.1101 
B(  4-H ,  5-C ) :  -0.0548 B(  4-H , 15-O ) :  -0.0732 B(  5-C ,  6-H ) :   0.5771 
B(  5-C ,  7-C ) :   0.1540 B(  5-C ,  8-H ) :  -0.0599 B(  5-C , 13-O ) :  -0.1182 
B(  5-C , 14-O ) :   0.6428 B(  5-C , 15-O ) :  -0.0591 B(  5-C , 21-H ) :  -0.1103 
B(  6-H ,  7-C ) :  -0.0549 B(  6-H , 14-O ) :  -0.0816 B(  7-C ,  8-H ) :   0.5294 
B(  7-C ,  9-C ) :   0.2229 B(  7-C , 10-H ) :  -0.1844 B(  7-C , 11-O ) :  -0.0617 
B(  7-C , 12-O ) :  -0.1469 B(  7-C , 13-O ) :   0.5863 B(  7-C , 14-O ) :  -0.0603 
B(  7-C , 20-H ) :  -0.1043 B(  8-H , 13-O ) :  -0.0746 B(  9-C , 10-H ) :   0.7305 
B(  9-C , 11-O ) :   0.5683 B(  9-C , 12-O ) :   0.7274 B(  9-C , 19-H ) :  -0.0601 
B( 10-H , 11-O ) :  -0.0933 B( 10-H , 12-O ) :  -0.0966 B( 11-O , 12-O ) :  -0.1069 
B( 12-O , 19-H ) :   0.5292 B( 13-O , 20-H ) :   0.5439 B( 14-O , 21-H ) :   0.5469 
B( 15-O , 22-H ) :   0.5359 B( 15-O , 23-H ) :   0.0832 B( 16-O , 17-H ) :  -0.0636 
B( 16-O , 18-H ) :  -0.0556 B( 16-O , 23-H ) :   0.5274 B( 17-H , 18-H ) :  -0.0678 



                     *******************************
                     * LOEWDIN POPULATION ANALYSIS *
                     *******************************

----------------------
LOEWDIN ATOMIC CHARGES
----------------------
   0 C :   -0.121550
   1 C :   -0.061077
   2 H :    0.104099
   3 C :   -0.076199
   4 H :    0.112204
   5 C :   -0.075716
   6 H :    0.103796
   7 C :   -0.093018
   8 H :    0.108738
   9 C :    0.000352
  10 H :    0.081333
  11 O :   -0.144481
  12 O :   -0.312875
  13 O :   -0.322201
  14 O :   -0.324188
  15 O :   -0.316312
  16 O :   -0.332852
  17 H :    0.099440
  18 H :    0.119896
  19 H :    0.294100
  20 H :    0.293399
  21 H :    0.293620
  22 H :    0.294451
  23 H :    0.275038

-------------------------------
LOEWDIN REDUCED ORBITAL CHARGES
-------------------------------
  0 C s       :     2.916928  s :     2.916928
      pz      :     1.020040  p :     3.060485
      px      :     1.009426
      py      :     1.031020
      dz2     :     0.028741  d :     0.144137
      dxz     :     0.035899
      dyz     :     0.026916
      dx2y2   :     0.031684
      dxy     :     0.020897

  1 C s       :     2.903700  s :     2.903700
      pz      :     1.066932  p :     3.006259
      px      :     0.977051
      py      :     0.962276
      dz2     :     0.038925  d :     0.151119
      dxz     :     0.019480
      dyz     :     0.022314
      dx2y2   :     0.033738
      dxy     :     0.036661

  2 H s       :     0.895901  s :     0.895901

  3 C s       :     2.892777  s :     2.892777
      pz      :     1.081364  p :     3.026207
      px      :     0.974920
      py      :     0.969922
      dz2     :     0.041564  d :     0.157215
      dxz     :     0.020381
      dyz     :     0.024980
      dx2y2   :     0.036630
      dxy     :     0.033661

  4 H s       :     0.887796  s :     0.887796

  5 C s       :     2.891073  s :     2.891073
      pz      :     1.056336  p :     3.024518
      px      :     1.060991
      py      :     0.907191
      dz2     :     0.043947  d :     0.160126
      dxz     :     0.012169
      dyz     :     0.033768
      dx2y2   :     0.036975
      dxy     :     0.033267

  6 H s       :     0.896204  s :     0.896204

  7 C s       :     2.901971  s :     2.901971
      pz      :     1.086468  p :     3.032362
      px      :     0.888863
      py      :     1.057031
      dz2     :     0.038127  d :     0.158684
      dxz     :     0.031439
      dyz     :     0.015656
      dx2y2   :     0.034937
      dxy     :     0.038526

  8 H s       :     0.891262  s :     0.891262

  9 C s       :     2.888489  s :     2.888489
      pz      :     1.068852  p :     2.884937
      px      :     0.840697
      py      :     0.975388
      dz2     :     0.054542  d :     0.226222
      dxz     :     0.037689
      dyz     :     0.029409
      dx2y2   :     0.050934
      dxy     :     0.053649

 10 H s       :     0.918667  s :     0.918667

 11 O s       :     3.469509  s :     3.469509
      pz      :     1.770610  p :     4.644782
      px      :     1.259779
      py      :     1.614393
      dz2     :     0.003711  d :     0.030191
      dxz     :     0.006110
      dyz     :     0.003399
      dx2y2   :     0.007799
      dxy     :     0.009172

 12 O s       :     3.523087  s :     3.523087
      pz      :     1.825850  p :     4.763012
      px      :     1.629173
      py      :     1.307989
      dz2     :     0.004416  d :     0.026776
      dxz     :     0.003472
      dyz     :     0.002313
      dx2y2   :     0.003472
      dxy     :     0.013103

 13 O s       :     3.530292  s :     3.530292
      pz      :     1.860578  p :     4.764864
      px      :     1.308929
      py      :     1.595357
      dz2     :     0.003766  d :     0.027045
      dxz     :     0.003940
      dyz     :     0.002223
      dx2y2   :     0.005128
      dxy     :     0.011988

 14 O s       :     3.529342  s :     3.529342
      pz      :     1.820300  p :     4.768078
      px      :     1.432688
      py      :     1.515090
      dz2     :     0.004348  d :     0.026767
      dxz     :     0.001183
      dyz     :     0.004998
      dx2y2   :     0.012883
      dxy     :     0.003355

 15 O s       :     3.529154  s :     3.529154
      pz      :     1.819901  p :     4.760435
      px      :     1.649618
      py      :     1.290916
      dz2     :     0.003496  d :     0.026723
      dxz     :     0.003841
      dyz     :     0.004318
      dx2y2   :     0.006604
      dxy     :     0.008465

 16 O s       :     3.532045  s :     3.532045
      pz      :     1.665387  p :     4.773291
      px      :     1.757191
      py      :     1.350713
      dz2     :     0.004176  d :     0.027516
      dxz     :     0.004754
      dyz     :     0.009142
      dx2y2   :     0.006995
      dxy     :     0.002449

 17 H s       :     0.900560  s :     0.900560

 18 H s       :     0.880104  s :     0.880104

 19 H s       :     0.705900  s :     0.705900

 20 H s       :     0.706601  s :     0.706601

 21 H s       :     0.706380  s :     0.706380

 22 H s       :     0.705549  s :     0.705549

 23 H s       :     0.724962  s :     0.724962


---------------------------------
LOEWDIN BOND ORDERS (THRESH 0.050000)
---------------------------------
B(  0-C ,  1-C ) :   1.0446 B(  0-C ,  3-C ) :   0.0516 B(  0-C , 11-O ) :   0.0558 
B(  0-C , 16-O ) :   1.2697 B(  0-C , 17-H ) :   0.9086 B(  0-C , 18-H ) :   0.9097 
B(  1-C ,  2-H ) :   0.8677 B(  1-C ,  3-C ) :   1.0179 B(  1-C ,  5-C ) :   0.0590 
B(  1-C ,  9-C ) :   0.0711 B(  1-C , 11-O ) :   1.1236 B(  1-C , 15-O ) :   0.0602 
B(  1-C , 16-O ) :   0.0720 B(  3-C ,  4-H ) :   0.8623 B(  3-C ,  5-C ) :   1.0268 
B(  3-C ,  7-C ) :   0.0609 B(  3-C , 11-O ) :   0.0676 B(  3-C , 14-O ) :   0.0640 
B(  3-C , 15-O ) :   1.2017 B(  5-C ,  6-H ) :   0.8613 B(  5-C ,  7-C ) :   1.0255 
B(  5-C ,  9-C ) :   0.0606 B(  5-C , 13-O ) :   0.0626 B(  5-C , 14-O ) :   1.2175 
B(  5-C , 15-O ) :   0.0726 B(  7-C ,  8-H ) :   0.8632 B(  7-C ,  9-C ) :   1.0115 
B(  7-C , 11-O ) :   0.0696 B(  7-C , 12-O ) :   0.0703 B(  7-C , 13-O ) :   1.2206 
B(  7-C , 14-O ) :   0.0751 B(  9-C , 10-H ) :   0.8662 B(  9-C , 11-O ) :   1.1753 
B(  9-C , 12-O ) :   1.2681 B(  9-C , 13-O ) :   0.0820 B( 11-O , 12-O ) :   0.0705 
B( 12-O , 19-H ) :   0.8657 B( 13-O , 20-H ) :   0.8727 B( 14-O , 21-H ) :   0.8713 
B( 15-O , 22-H ) :   0.8673 B( 15-O , 23-H ) :   0.0666 B( 16-O , 23-H ) :   0.8623 


------------------------------------------
LOEWDIN REDUCED ORBITAL POPULATIONS PER MO
-------------------------------------------
THRESHOLD FOR PRINTING IS 0.1%%
                      0         1         2         3         4         5   
                 -18.78393 -18.76966 -18.76872 -18.76478 -18.76148 -18.73760
                   2.00000   2.00000   2.00000   2.00000   2.00000   2.00000
                  --------  --------  --------  --------  --------  --------
11 O  s              99.9       0.0       0.0       0.0       0.0       0.0
12 O  s               0.0      99.8       0.1       0.0       0.0       0.0
13 O  s               0.0       0.0       0.0      99.9       0.0       0.0
14 O  s               0.0       0.0       0.0       0.0      99.9       0.0
15 O  s               0.0       0.1      99.8       0.0       0.0       0.0
16 O  s               0.0       0.0       0.0       0.0       0.0      99.9

                      6         7         8         9        10        11   
                  -9.99401  -9.95085  -9.94793  -9.94771  -9.94544  -9.93001
                   2.00000   2.00000   2.00000   2.00000   2.00000   2.00000
                  --------  --------  --------  --------  --------  --------
 0 C  s               0.0       0.0       0.0       0.0       0.0      99.6
 1 C  s               0.0      99.6       0.0       0.0       0.0       0.0
 3 C  s               0.0       0.0       0.1      99.5       0.0       0.0
 5 C  s               0.0       0.0      99.5       0.1       0.0       0.0
 7 C  s               0.0       0.0       0.0       0.0      99.6       0.0
 9 C  s              99.6       0.0       0.0       0.0       0.0       0.0
11 O  px              0.1       0.0       0.0       0.0       0.0       0.0

                     12        13        14        15        16        17   
                  -0.99684  -0.95745  -0.94694  -0.92768  -0.92549  -0.91489
                   2.00000   2.00000   2.00000   2.00000   2.00000   2.00000
                  --------  --------  --------  --------  --------  --------
 0 C  s               0.4       0.2       1.0       0.1       2.3       7.6
 0 C  pz              0.0       0.0       0.1       0.1       0.4       2.9
 0 C  px              0.4       0.0       0.0       0.3       0.0       2.5
 0 C  py              0.0       0.1       0.3       0.1       0.5       2.6
 0 C  dxz             0.0       0.0       0.0       0.0       0.0       0.2
 0 C  dyz             0.0       0.0       0.0       0.0       0.0       0.3
 0 C  dxy             0.0       0.0       0.0       0.0       0.0       0.2
 1 C  s               4.4       0.2       2.1       0.6       2.6       0.1
 1 C  pz              0.6       0.0       0.2       0.1       0.3       0.0
 1 C  px              2.3       0.1       0.1       1.0       0.2       1.9
 1 C  py              1.1       1.0       0.0       1.1       0.8       0.0
 1 C  dxy             0.2       0.0       0.0       0.1       0.1       0.0
 2 H  s               0.6       0.0       0.3       0.1       0.3       0.0
 3 C  s               0.8       6.5       2.8       0.8       0.0       0.5
 3 C  pz              0.1       0.6       0.4       0.2       0.0       0.2
 3 C  px              0.0       0.4       1.7       2.6       0.0       0.1
 3 C  py              0.3       2.9       0.3       1.1       1.2       0.3
 3 C  dxy             0.0       0.1       0.1       0.2       0.0       0.1
 4 H  s               0.1       0.9       0.3       0.1       0.0       0.0
 5 C  s               0.6       7.2       0.5       2.6       0.5       0.1
 5 C  pz              0.1       0.8       0.2       0.7       0.1       0.1
 5 C  px              0.0       0.0       2.3       0.4       0.1       0.1
 5 C  py              0.2       2.0       0.1       3.2       1.7       0.5
 5 C  dyz             0.0       0.1       0.0       0.2       0.1       0.0
 5 C  dx2y2           0.0       0.1       0.0       0.2       0.0       0.0
 6 H  s               0.1       1.0       0.1       0.2       0.0       0.0
 7 C  s               2.4       1.9       5.6       0.4       1.3       0.1
 7 C  pz              0.3       0.1       0.3       0.0       0.1       0.0
 7 C  px              0.0       0.2       4.9       2.2       1.7       0.1
 7 C  py              0.9       1.4       0.4       0.3       0.1       0.0
 7 C  dx2y2           0.0       0.0       0.2       0.1       0.2       0.0
 8 H  s               0.4       0.2       0.6       0.0       0.1       0.0
 9 C  s              15.5       0.4       0.2       0.1       0.3       0.0
 9 C  pz              1.3       0.0       0.1       0.1       0.2       0.0
 9 C  px              1.0       0.0       2.8       3.9       4.5       1.2
 9 C  py              1.9       1.0       0.2       0.3       3.1       0.4
 9 C  dz2             0.2       0.0       0.0       0.0       0.0       0.0
 9 C  dxz             0.0       0.0       0.0       0.1       0.1       0.0
 9 C  dyz             0.1       0.0       0.0       0.0       0.1       0.0
 9 C  dx2y2           0.1       0.0       0.1       0.1       0.2       0.0
 9 C  dxy             0.0       0.0       0.0       0.1       0.4       0.1
10 H  s               1.7       0.0       0.0       0.0       0.0       0.0
11 O  s              29.9       0.8       4.6       7.2       8.5       2.8
11 O  pz              0.4       0.0       0.1       0.1       0.2       0.0
11 O  px              0.9       0.1       0.1       0.0       0.3       0.0
11 O  py              0.9       0.0       0.2       0.3       0.6       0.1
12 O  s              19.0       2.3       2.2       7.4      24.4       3.9
12 O  pz              0.2       0.0       0.0       0.0       0.1       0.0
12 O  px              1.8       0.2       0.1       0.2       1.0       0.1
12 O  py              0.2       0.0       0.0       0.0       0.1       0.0
13 O  s               1.7       5.6      30.4       6.6      13.4       1.0
13 O  pz              0.0       0.1       0.3       0.0       0.1       0.0
13 O  px              0.1       0.1       0.3       0.0       0.1       0.0
13 O  py              0.1       0.2       1.3       0.4       0.5       0.0
14 O  s               0.4      21.2       2.6      24.9       6.8       2.7
14 O  pz              0.0       0.3       0.0       0.2       0.1       0.0
14 O  px              0.0       0.3       0.1       0.7       0.1       0.1
14 O  py              0.0       0.8       0.1       0.5       0.1       0.0
15 O  s               0.5      23.6      14.3      14.8       0.8       4.5
15 O  pz              0.0       0.5       0.2       0.2       0.0       0.0
15 O  px              0.0       1.1       0.5       0.4       0.0       0.2
16 O  s               0.1       0.7       2.4       1.2       7.4      46.3
16 O  pz              0.0       0.0       0.1       0.1       0.4       2.2
16 O  px              0.0       0.0       0.0       0.0       0.1       0.5
16 O  py              0.0       0.0       0.0       0.0       0.0       0.1
17 H  s               0.0       0.0       0.1       0.0       0.3       0.9
18 H  s               0.1       0.0       0.2       0.0       0.4       0.8
19 H  s               4.3       0.5       0.3       1.3       4.8       0.7
20 H  s               0.5       1.0       6.2       1.6       2.5       0.2
21 H  s               0.1       4.4       0.8       4.9       1.2       0.6
22 H  s               0.1       5.3       2.7       2.5       0.3       0.9
23 H  s               0.1       0.5       0.8       0.5       1.4       8.7

                     18        19        20        21        22        23   
                  -0.71172  -0.69516  -0.61846  -0.59028  -0.56516  -0.53419
                   2.00000   2.00000   2.00000   2.00000   2.00000   2.00000
                  --------  --------  --------  --------  --------  --------
 0 C  s               0.5       6.1      14.0       1.1       7.9       1.4
 0 C  pz              0.1       0.8       0.7       0.1       0.0       0.5
 0 C  px              0.5       4.0       0.5       0.1       1.3       0.5
 0 C  py              0.1       0.0       0.8       1.1       1.7       0.2
 1 C  s               3.9      16.3       1.4       0.9       2.5       2.9
 1 C  pz              0.0       0.1       0.3       0.1       0.0       4.6
 1 C  px              0.0       1.6       5.2       0.1       1.7       1.3
 1 C  py              3.9       0.0       2.0       6.5       0.1       1.0
 1 C  dyz             0.1       0.0       0.0       0.1       0.0       0.0
 1 C  dxy             0.1       0.0       0.1       0.0       0.1       0.0
 2 H  s               0.9       2.9       0.5       0.5       0.7       4.0
 3 C  s              11.6       2.2       4.9       4.7       0.3       3.4
 3 C  pz              0.1       0.2       0.2       0.0       0.0       3.6
 3 C  px              3.8       0.6       1.4       2.7       2.4       1.9
 3 C  py              1.5       2.9       0.2       1.5       2.9       0.0
 3 C  dxy             0.1       0.0       0.0       0.0       0.1       0.0
 4 H  s               2.2       0.3       1.4       1.2       0.1       3.4
 5 C  s              13.7       0.9       2.1       5.2       2.9       2.0
 5 C  pz              0.0       0.0       0.0       0.0       0.3       4.6
 5 C  px              0.7       1.1       3.8       2.4       4.0       0.0
 5 C  py              6.0       0.8       0.2       0.1       1.9       0.6
 5 C  dxy             0.0       0.1       0.0       0.1       0.0       0.0
 6 H  s               2.6       0.2       0.4       1.5       1.0       3.2
 7 C  s               8.0       6.7       4.7       1.9       4.5       1.7
 7 C  pz              0.2       0.2       0.0       0.1       0.5       4.8
 7 C  px              4.2       1.7       0.0       0.2       0.2       0.0
 7 C  py              0.2       0.9       2.1       7.6       0.2       0.2
 7 C  dyz             0.0       0.0       0.0       0.1       0.0       0.0
 8 H  s               1.5       1.3       1.1       0.5       1.7       2.9
 9 C  s               0.4       9.0       4.3       6.8       1.4       0.8
 9 C  pz              0.0       0.1       0.0       0.5       0.4       5.8
 9 C  px              1.1       0.5       2.3       0.6       0.7       2.8
 9 C  py              3.3       1.8       2.1       0.0       1.9       0.1
 9 C  dx2y2           0.2       0.0       0.1       0.0       0.0       0.0
 9 C  dxy             0.0       0.1       0.0       0.0       0.0       0.1
10 H  s               0.2       1.6       1.3       2.5       0.5       3.4
11 O  s               4.5       0.1       1.3       1.6       0.0       0.9
11 O  pz              0.0       0.1       0.1       0.1       0.0       3.6
11 O  px              0.3      11.5       0.1       3.4       6.2       4.2
11 O  py              0.7       0.3       0.1       0.3       1.7       1.0
11 O  dxy             0.0       0.1       0.0       0.0       0.0       0.0
12 O  s               0.0       2.9       0.3       0.9       0.6       0.2
12 O  pz              0.0       0.2       0.4       1.2       0.4       1.3
12 O  px              0.0       0.2       0.0       0.1       0.5       0.6
12 O  py              0.2       2.9       4.9       9.4       1.1       2.0
12 O  dxy             0.0       0.1       0.1       0.1       0.0       0.0
13 O  s               2.0       1.7       1.5       0.0       0.6       0.0
13 O  pz              0.0       0.0       0.0       0.0       0.2       0.6
13 O  px              2.0       1.7       3.0       3.4       7.4       1.3
13 O  py              0.2       0.1       0.0       1.3       0.7       0.4
14 O  s               3.3       0.4       0.3       1.6       0.1       0.0
14 O  pz              0.2       0.0       0.2       0.5       0.8       1.2
14 O  px              1.2       0.0       1.6       1.1       6.0       1.3
14 O  py              1.8       0.2       0.9       3.1       2.6       0.6
15 O  s               3.2       0.5       1.2       0.5       0.5       0.1
15 O  pz              0.0       0.0       0.2       0.1       0.0       0.8
15 O  px              0.4       0.0       0.5       0.1       1.0       0.2
15 O  py              2.4       1.1       1.6       8.3       0.1       6.3
16 O  s               0.3       2.3       2.2       0.0       0.6       0.5
16 O  pz              0.0       0.1       0.6       0.0       0.6       0.2
16 O  px              0.1       0.4       0.9       0.0       0.7       0.8
16 O  py              0.0       0.8       4.4       0.9       7.9       3.0
17 H  s               0.1       1.2       4.1       0.3       2.9       0.3
18 H  s               0.0       1.5       4.2       0.9       3.5       0.9
19 H  s               0.0       1.6       1.7       3.4       0.4       0.8
20 H  s               1.1       0.9       1.1       1.3       2.4       0.5
21 H  s               1.7       0.1       0.8       1.5       2.7       0.7
22 H  s               1.6       0.5       0.8       2.6       0.0       1.8
23 H  s               0.1       0.9       2.0       0.2       2.9       1.1

                     24        25        26        27        28        29   
                  -0.51985  -0.49093  -0.47783  -0.46175  -0.44513  -0.44022
                   2.00000   2.00000   2.00000   2.00000   2.00000   2.00000
                  --------  --------  --------  --------  --------  --------
 0 C  s               0.3       0.1       0.1       0.0       0.0       0.9
 0 C  pz              1.1       0.5      10.1       0.5       0.4       5.7
 0 C  px              0.4       1.2       0.4       0.2       0.6       2.2
 0 C  py              0.2       0.0       0.9       0.0       1.0       1.2
 0 C  dxz             0.0       0.0       0.0       0.0       0.0       0.3
 1 C  s               0.1       0.0       1.3       0.2       0.7       1.4
 1 C  pz              5.0       0.0       8.0       0.1       0.5       3.9
 1 C  px              0.7       1.9       3.0       0.1       1.1       3.5
 1 C  py              2.6       1.5       0.2       0.1       2.5       3.3
 1 C  dxy             0.0       0.1       0.1       0.0       0.2       0.0
 2 H  s               1.8       0.1       4.5       0.3       0.0       4.2
 3 C  s               0.1       0.0       1.2       0.6       0.5       0.0
 3 C  pz              5.5       0.0       0.9      11.7       1.5       4.6
 3 C  px              1.5       3.7       0.0       0.2       2.0       0.6
 3 C  py              0.1       2.3       0.0       0.1       5.4       0.4
 3 C  dxz             0.0       0.0       0.0       0.0       0.1       0.0
 3 C  dx2y2           0.0       0.0       0.0       0.0       0.0       0.1
 3 C  dxy             0.0       0.0       0.0       0.0       0.1       0.0
 4 H  s               1.7       0.0       1.1       5.6       1.3       1.6
 5 C  s               0.2       0.2       0.0       1.6       0.4       0.9
 5 C  pz              4.6       0.0       2.5      10.5       0.3       0.3
 5 C  px              2.2       0.6       0.0       0.3       0.1       2.1
 5 C  py              0.4       5.7       0.9       0.1       1.4       1.6
 5 C  dx2y2           0.0       0.0       0.1       0.0       0.1       0.0
 6 H  s               1.9       0.1       0.8       6.4       0.5       0.9
 7 C  s               0.2       0.0       0.7       0.0       1.3       0.0
 7 C  pz              4.0       0.0       8.8       0.1       0.0       2.9
 7 C  px              0.1       6.0       0.6       0.8       0.0       5.0
 7 C  py              3.7       1.9       0.4       0.7       5.1       0.0
 7 C  dyz             0.0       0.0       0.0       0.1       0.1       0.0
 7 C  dxy             0.1       0.0       0.0       0.0       0.0       0.1
 8 H  s               1.8       0.1       4.6       0.1       0.8       0.6
 9 C  s               0.2       0.0       0.1       1.1       0.3       0.2
 9 C  pz              4.0       0.0       5.2      13.5       2.9       0.7
 9 C  px              6.4       2.1       2.2       0.4       0.2       0.1
 9 C  py              0.4       5.1       0.0       0.1       9.2       1.0
 9 C  dyz             0.0       0.1       0.0       0.0       0.2       0.0
 9 C  dxy             0.2       0.0       0.1       0.0       0.1       0.0
10 H  s               1.2       0.0       2.1       7.1       2.1       0.7
11 O  s               0.2       1.8       0.1       1.0       0.0       0.2
11 O  pz              1.3       0.0       0.0       4.0       2.0       0.9
11 O  px             10.3       1.2       5.2       0.5       2.9       0.8
11 O  py              0.9       4.0       0.3       0.0       0.8       0.8
12 O  s               0.4       0.0       0.2       0.4       0.1       0.0
12 O  pz              0.0       1.5       1.3       1.3       0.9       0.0
12 O  px              1.3       0.1       0.7       0.2       2.5       0.1
12 O  py              9.2       8.5       0.2       5.1       8.6       0.8
12 O  dxy             0.1       0.1       0.0       0.0       0.1       0.0
13 O  s               0.5       0.0       0.1       0.2       1.2       0.0
13 O  pz              0.3       0.0       1.3       0.0       0.1       1.5
13 O  px              2.2      11.1       2.8       3.1       0.1       5.8
13 O  py              2.5       1.9       0.9       0.7       4.9       0.5
14 O  s               0.2       0.1       0.1       0.4       0.7       0.4
14 O  pz              0.1       1.2       0.0       1.2       0.0       0.0
14 O  px              3.5       3.3       3.7       3.6       3.9       3.1
14 O  py              0.5       5.0       2.5       0.7       0.5       0.1
15 O  s               0.2       0.0       0.0       0.6       0.2       0.1
15 O  pz              0.4       0.3       0.4       2.0       0.0       1.3
15 O  px              0.0       0.1       0.6       0.1       0.9       1.6
15 O  py              5.2      10.0       0.1       5.5      15.8       0.8
16 O  s               0.1       0.1       0.3       0.0       0.1       1.2
16 O  pz              0.3       0.0       0.3       0.0       0.0       0.1
16 O  px              0.0       0.1       0.9       0.0       0.1       0.7
16 O  py              0.0       2.9       7.8       0.6       0.8      16.1
17 H  s               0.7       0.0       2.1       0.1       0.0       2.2
18 H  s               0.0       0.0       0.8       0.0       0.3       0.8
19 H  s               2.6       2.6       0.1       1.1       2.3       0.2
20 H  s               1.3       3.5       1.0       1.2       0.5       1.7
21 H  s               1.0       2.3       1.8       0.8       1.4       0.6
22 H  s               1.5       2.8       0.0       1.7       4.1       0.3
23 H  s               0.0       0.9       2.4       0.1       0.1       5.3

                     30        31        32        33        34        35   
                  -0.42359  -0.41663  -0.38924  -0.36979  -0.36540  -0.35874
                   2.00000   2.00000   2.00000   2.00000   2.00000   2.00000
                  --------  --------  --------  --------  --------  --------
 0 C  s               0.2       0.3       0.0       0.2       0.2       0.2
 0 C  pz              4.6       2.6       5.3       2.5       0.9       0.1
 0 C  px              4.5       0.0      14.9       2.3       0.6       0.9
 0 C  py              6.1       0.0       0.3      17.9       0.4      11.4
 0 C  dxz             0.0       0.1       0.1       0.0       0.2       0.1
 0 C  dyz             0.0       0.0       0.0       0.2       0.0       0.1
 0 C  dx2y2           0.0       0.0       0.0       0.1       0.0       0.1
 1 C  s               0.7       0.0       0.3       0.1       0.3       0.0
 1 C  pz              6.2       0.6       0.1       0.0      11.1       0.7
 1 C  px              2.7       0.2       5.1       0.2       0.0       3.3
 1 C  py              2.0       0.3       0.8       0.4       1.9       1.2
 1 C  dz2             0.0       0.0       0.0       0.0       0.3       0.0
 1 C  dxz             0.0       0.0       0.2       0.0       0.1       0.0
 1 C  dxy             0.0       0.0       0.1       0.2       0.0       0.0
 2 H  s               1.1       0.3       0.2       0.0       7.6       0.1
 3 C  s               1.2       0.3       0.0       0.0       0.0       0.2
 3 C  pz              0.1       0.0       0.2       3.0       7.9       1.4
 3 C  px              5.2       0.3       0.2       0.6       2.8       1.2
 3 C  py              6.5       0.1       0.7       0.7       3.2       3.4
 3 C  dxy             0.1       0.1       0.1       0.0       0.1       0.0
 4 H  s               0.0       0.1       0.0       1.8       4.3       1.9
 5 C  s               0.0       0.6       0.1       0.2       0.0       0.0
 5 C  pz              0.1       5.5       3.2       4.4       0.1       5.6
 5 C  px              5.4       4.7       1.5       0.2       3.5       0.5
 5 C  py              3.4       1.4       0.1       0.7       0.2       5.2
 5 C  dz2             0.0       0.0       0.0       0.1       0.0       0.1
 5 C  dxz             0.0       0.1       0.0       0.0       0.0       0.0
 5 C  dx2y2           0.5       0.0       0.0       0.0       0.0       0.0
 5 C  dxy             0.0       0.0       0.0       0.0       0.0       0.2
 6 H  s               0.1       0.7       1.9       3.7       0.1       3.5
 7 C  s               0.0       0.1       0.6       0.1       0.0       0.2
 7 C  pz              1.6       6.3       2.8       2.4       2.4       6.4
 7 C  px              0.3       5.2       0.4       0.8       0.7       2.8
 7 C  py              0.4       8.3       0.7       0.1       0.2       0.1
 7 C  dz2             0.0       0.0       0.1       0.1       0.0       0.0
 7 C  dx2y2           0.1       0.0       0.0       0.0       0.1       0.0
 7 C  dxy             0.0       0.4       0.0       0.0       0.0       0.1
 8 H  s               0.5       3.0       2.9       2.0       1.2       2.5
 9 C  s               0.4       0.0       0.2       0.2       0.0       0.0
 9 C  pz              0.1       4.1       0.6       1.1       5.0       0.4
 9 C  px              0.3       0.1       0.1       0.1       0.5       0.7
 9 C  py              1.2       4.9       0.5       0.1       1.2       0.4
 9 C  dx2y2           0.0       0.0       0.2       0.0       0.0       0.1
 9 C  dxy             0.0       0.2       0.2       0.0       0.0       0.0
10 H  s               0.1       1.5       0.9       0.4       2.8       0.3
11 O  s               0.2       0.0       0.0       0.6       0.3       1.3
11 O  pz              2.3       3.2       0.0       1.0       2.1       1.2
11 O  px              1.0       0.6       0.0       0.5       1.2       1.2
11 O  py              1.2       0.6      10.3       0.6       0.1       6.5
12 O  s               0.1       0.0       2.4       0.1       0.5       0.0
12 O  pz              0.3       4.1       0.3       0.1       5.5       0.0
12 O  px              0.2       0.0       5.4       1.8       0.4       0.1
12 O  py              1.3       0.9       1.7       0.1       0.9       0.0
13 O  s               0.0       0.0       0.6       1.3       0.1       0.3
13 O  pz              0.7       0.7       2.1       2.7       2.7       6.2
13 O  px              0.3      10.6       0.0       0.0       0.3       0.1
13 O  py              0.3       0.7       2.0       2.8       0.2       0.0
13 O  dxy             0.0       0.2       0.0       0.0       0.0       0.0
14 O  s               0.1       1.5       0.0       0.7       0.5       0.6
14 O  pz              2.6       0.5       0.1       2.5       0.6       9.6
14 O  px              3.2       4.3       0.1       1.8       1.0       0.8
14 O  py              5.5       5.4       3.6       0.3       0.8       0.5
15 O  s               0.8       1.4       1.1       0.8       0.8       0.1
15 O  pz              0.3       0.2       0.1       3.6      11.9       0.2
15 O  px              6.1       1.5       3.5       0.8       0.9       3.0
15 O  py              0.0       1.9       0.9       0.5       0.0       0.2
16 O  s               0.3       0.2       0.5       0.9       1.0       0.1
16 O  pz              0.0       0.3       5.8      10.5       4.2       2.4
16 O  px              6.2       0.4       1.2       2.7       0.1       2.6
16 O  py              0.6       2.4       0.8       1.3       1.1       0.4
17 H  s               4.9       1.5       7.6       0.8       1.2       0.7
18 H  s               0.9       0.0       1.4      11.9       0.1       5.1
19 H  s               0.5       0.5       1.2       0.0       0.2       0.0
20 H  s               0.1       1.9       0.1       0.4       0.0       0.0
21 H  s               2.7       0.1       0.3       0.4       0.1       0.0
22 H  s               0.0       0.9       0.4       0.2       0.1       0.0
23 H  s               0.4       0.5       0.1       0.8       0.4       0.6

                     36        37        38        39        40        41   
                  -0.33790  -0.32901  -0.32102  -0.30338  -0.29251  -0.27101
                   2.00000   2.00000   2.00000   2.00000   2.00000   2.00000
                  --------  --------  --------  --------  --------  --------
 0 C  s               0.4       0.2       0.0       0.6       0.0       0.0
 0 C  pz              0.0       0.6       0.3       1.1       0.2       6.4
 0 C  px              2.3       2.7       0.1       1.4       0.2       1.9
 0 C  py              0.6       0.0       0.0       0.0       0.3       3.0
 0 C  dz2             0.0       0.0       0.0       0.0       0.0       0.2
[...]
 5 C  dz2             0.0       0.0       0.0       0.1       0.2       0.0
 5 C  dxz             0.0       0.0       0.3       0.0       0.2       0.0
 5 C  dyz             0.1       1.9       0.4       0.3       3.2       0.0
 5 C  dx2y2           0.1       4.1       0.0       2.1       1.2       0.2
 5 C  dxy             0.1       0.6       0.2       0.2       0.0       0.0
 7 C  s               0.0       0.1       0.7       0.2       1.0       0.1
 7 C  pz              0.0       0.0       0.1       0.0       0.2       0.0
 7 C  px              0.0       0.2       1.8       0.3       1.1       0.3
 7 C  py              0.0       0.3       0.1       0.1       0.2       0.0
 7 C  dz2             0.0       0.0       0.5       0.2       0.7       0.1
 7 C  dxz             0.0       0.0       0.7       0.0       1.3       0.5
 7 C  dyz             0.0       0.3       0.1       0.1       0.1       0.0
 7 C  dx2y2           0.0       0.5       2.7       2.0       1.9       0.0
 7 C  dxy             0.0       0.3       2.7       0.4       0.5       0.0
 9 C  s               0.0       0.6       0.1       0.8       0.4       0.3
 9 C  px              0.1       0.3       0.1       0.1       0.0       3.5
 9 C  py              0.1       0.4       0.0       0.4       0.0       0.2
 9 C  dz2             0.0       0.1       0.1       0.4       0.1       0.2
 9 C  dxz             0.0       1.3       0.0       0.3       0.3       1.8
 9 C  dyz             0.0       0.1       0.0       0.1       0.0       0.7
 9 C  dx2y2           0.0       0.7       0.2       0.7       0.0       4.5
 9 C  dxy             0.2       2.4       1.2       4.9       0.1       3.0
11 O  s               0.0       0.4       0.1       0.6       0.1       0.0
11 O  px              0.0       0.2       0.4       0.7       0.2       4.9
11 O  py              0.0       0.0       0.0       0.0       0.1       0.3
11 O  dz2             0.0       1.2       0.3       0.5       0.8       0.6
11 O  dxz             0.0       1.5       1.3       3.4       1.0       7.7
11 O  dyz             0.0       0.0       0.1       0.3       0.0       1.7
11 O  dx2y2           0.1       1.0       1.1       1.9       0.1      13.5
11 O  dxy             0.1       5.7       0.0      15.1       2.1      22.2
12 O  s               0.1       1.2       0.0       0.9       0.3       1.7
12 O  pz              0.0       0.1       0.0       0.2       0.0       0.1
12 O  px              0.0       0.1       0.0       0.1       0.0       0.4
12 O  py              0.1       0.9       0.1       1.0       0.1       0.8
12 O  dz2             0.1       0.7       0.2       0.1       0.4       1.9
12 O  dxz             0.3       1.7       0.3       2.2       0.2       2.8
12 O  dyz             0.4       3.8       0.3       5.0       0.3       1.8
12 O  dx2y2           0.0       2.5       0.1       1.8       0.4       0.2
12 O  dxy             1.0       7.0       0.7       7.1       0.5       9.6
13 O  s               0.0       0.1       2.2       0.2       2.7       0.4
13 O  px              0.0       0.2       2.3       0.5       1.6       0.2
13 O  dz2             0.0       0.1       3.1       0.2       4.8       0.8
13 O  dxz             0.0       0.7       5.6       2.1       2.5       0.0
13 O  dyz             0.0       0.0       0.2       0.1       0.2       0.0
13 O  dx2y2           0.0       0.8      15.9       3.0       9.8       0.3
13 O  dxy             0.0       2.2       5.4       1.7       4.4       0.8
14 O  s               0.1       1.8       0.2       0.3       3.0       0.0
14 O  pz              0.0       0.3       0.0       0.1       0.2       0.0
14 O  px              0.0       0.5       0.0       0.2       0.2       0.0
14 O  py              0.1       1.6       0.1       0.3       1.5       0.0
14 O  dz2             0.1       0.6       0.1       0.0       2.6       0.0
14 O  dxz             0.0       0.3       0.0       0.1       0.3       0.0
14 O  dyz             0.5      12.4       0.7       4.0       8.2       0.2
14 O  dx2y2           0.6      16.5       0.3       4.1      10.9       0.2
14 O  dxy             0.0       1.1       0.6       0.2       1.0       0.1
15 O  s               0.0       0.2       2.7       0.9       1.5       0.2
15 O  pz              0.0       0.0       0.1       0.1       0.1       0.0
15 O  px              0.0       0.1       0.7       0.3       0.3       0.0
15 O  py              0.0       0.3       1.5       0.6       0.9       0.1
15 O  dz2             0.0       0.1       2.3       0.3       1.6       0.2
15 O  dxz             0.0       0.6       4.9       3.0       1.6       0.1
15 O  dyz             0.0       1.5       4.8       3.2       2.3       0.2
15 O  dx2y2           0.0       0.3       0.4       0.2       0.0       0.1
15 O  dxy             0.0       3.6      17.6       7.2       8.0       0.9
16 O  s               3.1       0.2       0.0       0.0       0.0       0.0
16 O  pz              0.9       0.0       0.0       0.0       0.0       0.0
16 O  px              0.9       0.1       0.0       0.0       0.0       0.0
16 O  py              2.6       0.1       0.0       0.0       0.0       0.0
16 O  dz2             1.9       0.0       0.0       0.1       0.1       0.1
16 O  dxz            21.0       1.0       0.1       0.1       0.0       0.0
16 O  dyz            31.4       0.8       0.0       0.0       0.2       0.3
16 O  dx2y2           0.3       0.0       0.0       0.0       0.0       0.0
16 O  dxy            14.7       0.4       0.0       0.1       0.1       0.1
19 H  s               0.0       0.1       0.1       0.1       0.0       0.2
20 H  s               0.0       0.1       0.4       0.1       0.1       0.0
21 H  s               0.0       0.5       0.0       0.2       0.1       0.0
22 H  s               0.0       0.1       0.3       0.2       0.1       0.0
23 H  s               1.0       0.0       0.0       0.0       0.0       0.0



                      *****************************
                      * MAYER POPULATION ANALYSIS *
                      *****************************

  NA   - Mulliken gross atomic population
  ZA   - Total nuclear charge
  QA   - Mulliken gross atomic charge
  VA   - Mayer's total valence
  BVA  - Mayer's bonded valence
  FA   - Mayer's free valence

  ATOM       NA         ZA         QA         VA         BVA        FA
  0 C      5.9075     6.0000     0.0925     3.9665     3.9665     0.0000
  1 C      5.9829     6.0000     0.0171     4.0231     4.0231     0.0000
  2 H      0.9454     1.0000     0.0546     0.9724     0.9724    -0.0000
  3 C      5.9705     6.0000     0.0295     4.0822     4.0822    -0.0000
  4 H      0.9279     1.0000     0.0721     0.9912     0.9912     0.0000
  5 C      5.9410     6.0000     0.0590     4.0603     4.0603    -0.0000
  6 H      0.9439     1.0000     0.0561     0.9819     0.9819    -0.0000
  7 C      5.9609     6.0000     0.0391     3.9919     3.9919    -0.0000
  8 H      0.9390     1.0000     0.0610     0.9889     0.9889    -0.0000
  9 C      5.8210     6.0000     0.1790     4.1962     4.1962     0.0000
 10 H      0.9595     1.0000     0.0405     0.9741     0.9741     0.0000
 11 O      8.3132     8.0000    -0.3132     2.1475     2.1475     0.0000
 12 O      8.3992     8.0000    -0.3992     2.0307     2.0307     0.0000
 13 O      8.4250     8.0000    -0.4250     2.0177     2.0177    -0.0000
 14 O      8.4260     8.0000    -0.4260     2.0292     2.0292    -0.0000
 15 O      8.4329     8.0000    -0.4329     2.0237     2.0237     0.0000
 16 O      8.4339     8.0000    -0.4339     2.0511     2.0511    -0.0000
 17 H      0.9271     1.0000     0.0729     0.9485     0.9485     0.0000
 18 H      0.9111     1.0000     0.0889     0.9789     0.9789     0.0000
 19 H      0.6879     1.0000     0.3121     0.8966     0.8966    -0.0000
 20 H      0.6852     1.0000     0.3148     0.8886     0.8886    -0.0000
 21 H      0.6840     1.0000     0.3160     0.8890     0.8890     0.0000
 22 H      0.6797     1.0000     0.3203     0.8899     0.8899    -0.0000
 23 H      0.6953     1.0000     0.3047     0.9193     0.9193     0.0000

  Mayer bond orders larger than 0.100000
B(  0-C ,  1-C ) :   1.0067 B(  0-C , 16-O ) :   1.1286 B(  0-C , 17-H ) :   0.9217 
B(  0-C , 18-H ) :   0.9163 B(  1-C ,  2-H ) :   0.8706 B(  1-C ,  3-C ) :   1.0536 
B(  1-C , 11-O ) :   0.9865 B(  3-C ,  4-H ) :   0.8644 B(  3-C ,  5-C ) :   1.0280 
B(  3-C , 15-O ) :   1.0303 B(  5-C ,  6-H ) :   0.8725 B(  5-C ,  7-C ) :   1.0145 
B(  5-C , 14-O ) :   1.0826 B(  7-C ,  8-H ) :   0.8625 B(  7-C ,  9-C ) :   0.9922 
B(  7-C , 13-O ) :   1.0649 B(  9-C , 10-H ) :   0.8828 B(  9-C , 11-O ) :   1.0237 
B(  9-C , 12-O ) :   1.1423 B( 12-O , 19-H ) :   0.8358 B( 13-O , 20-H ) :   0.8369 
B( 14-O , 21-H ) :   0.8352 B( 15-O , 22-H ) :   0.8302 B( 16-O , 23-H ) :   0.8146 


-------
TIMINGS
-------

Total SCF time: 0 days 0 hours 0 min 6 sec 

Total time                  ....       6.361 sec
Sum of individual times     ....       6.330 sec  ( 99.5%)

SCF preparation             ....       0.515 sec  (  8.1%)
Fock matrix formation       ....       5.608 sec  ( 88.1%)
  Startup                   ....       0.007 sec  (  0.1% of F)
  Split-RI-J                ....       2.933 sec  ( 52.3% of F)
  XC integration            ....       2.592 sec  ( 46.2% of F)
    XC Preparation          ....       0.000 sec  (  0.0% of XC)
    Basis function eval.    ....       1.072 sec  ( 41.4% of XC)
    Density eval.           ....       0.588 sec  ( 22.7% of XC)
    XC-Functional eval.     ....       0.164 sec  (  6.3% of XC)
    XC-Potential eval.      ....       0.601 sec  ( 23.2% of XC)
Diagonalization             ....       0.000 sec  (  0.0%)
Density matrix formation    ....       0.028 sec  (  0.4%)
Total Energy calculation    ....       0.002 sec  (  0.0%)
Population analysis         ....       0.062 sec  (  1.0%)
Orbital Transformation      ....       0.016 sec  (  0.3%)
Orbital Orthonormalization  ....       0.000 sec  (  0.0%)
DIIS solution               ....       0.078 sec  (  1.2%)
  MO trafo                  ....       0.000 sec  (  0.0 % of DIIS)
  Orb grad                  ....       0.000 sec  (  0.0 % of DIIS)
  Energy W gradient         ....       0.000 sec  (  0.0 % of DIIS)
  DIIS error                ....       0.006 sec  (  8.0 % of DIIS)
  DIIS work                 ....       0.062 sec  ( 79.8 % of DIIS)
  Form Q                    ....       0.000 sec  (  0.0 % of DIIS)
  Form QpQm                 ....       0.000 sec  (  0.0 % of DIIS)
  Exp/Cayley                ....       0.000 sec  (  0.0 % of DIIS)
  Orb update                ....       0.000 sec  (  0.0 % of DIIS)
  Wake-sleep                ....       0.001 sec  (  1.4 % of DIIS)
SOSCF solution              ....       0.021 sec  (  0.3%)
  MO trafo                  ....       0.013 sec  ( 62.9 % of SOSCF)
  Orb grad                  ....       0.000 sec  (  0.9 % of SOSCF)
  Rot update                ....       0.001 sec  (  6.8 % of SOSCF)
  Step                      ....       0.006 sec  ( 29.1 % of SOSCF)
Finished LeanSCF after   6.4 sec

Maximum memory used throughout the entire LEANSCF-calculation: 18.7 MB


-------------------------------------------------------------------------------
                          DFT DISPERSION CORRECTION                            
                                                                               
                                DFTD4 V3.4.0                                   
-------------------------------------------------------------------------------
The PBE functional is recognized
Active option DFTDOPT                   ...         5   

-------------------------   ----------------
Dispersion correction           -0.024010437
-------------------------   ----------------

------------------   -----------------
gCP correction             0.156698494
------------------   -----------------

-------------------------   --------------------
FINAL SINGLE POINT ENERGY      -685.699417905241
-------------------------   --------------------


------------------------------------------------------------------------------
                              ORCA PROPERTY CALCULATIONS
------------------------------------------------------------------------------

GBWName                                 ... sp.gbw
Number of atoms                         ...     24
Number of basis functions               ...    192
Max core memory                         ...   1024 MB

Electric properties:
Dipole moment                           ... YES
Quadrupole moment                       ...  NO
Static polarizability (Dipole/Dipole)   ...  NO
Static polarizability (Dipole/Quad.)    ...  NO
Static polarizability (Quad./Quad.)     ...  NO
Static polarizability (Velocity)        ...  NO

Atomic electric properties:
Dipole moment                           ...  NO
Quadrupole moment                       ...  NO
Static polarizability                   ...  NO

Choice of electric origin               ... Center of mass
Position of electric origin             ...    -0.000005    -0.000003     0.000005

General magnetic properties:
Magnetizability                         ...  NO

EPR properties:
g-Tensor (aka g-matrix)                 ...  NO
Zero-Field splitting spin-orbit         ...  NO
Zero-field splitting spin-spin          ...  NO
Hyperfine couplings                     ...  NO (   0 nuclei)
Quadrupole couplings                    ...  NO (   0 nuclei)
Contact density                         ...  NO (   0 nuclei)

NMR properties:
Chemical shifts                         ...  NO (   0 nuclei)
Spin-rotation constants                 ...  NO (   0 nuclei)
Spin-spin couplings                     ...  NO (   0 nuclei,    0 pairs)

Choice of magnetic origin               ... GIAO
Position of magnetic origin             ...     0.000000     0.000000     0.000000

Properties with geometric perturbations:
SCF Hessian                             ...  NO
IR spectrum                             ...  NO
VCD spectrum                            ...  NO
X-ray spectroscopy properties:
SCF XES/XAS/RIXS spectra                ...  NO


-------------
DIPOLE MOMENT
-------------

Method             : SCF
Type of density    : Electron Density
Multiplicity       :   1
Irrep              :   0
Energy             :  -685.8321059623692690 Eh
Relativity type    : 
Basis              : AO
                                X                 Y                 Z
Electronic contribution:      2.058004033       0.288044486      -1.186863926
Nuclear contribution   :     -1.369625012      -0.373167630       1.617883978
                        -----------------------------------------
Total Dipole Moment    :      0.688379021      -0.085123144       0.431020051
                        -----------------------------------------
Magnitude (a.u.)       :      0.816633278
Magnitude (Debye)      :      2.075716834



--------------------
Rotational spectrum 
--------------------
 
Rotational constants in cm-1:             0.042893             0.025656             0.017140 
Rotational constants in MHz :          1285.894650           769.159440           513.836482 

Dipole components along the rotational axes: 
x,y,z [a.u.] :    -0.692257    -0.069568     0.427586 
x,y,z [Debye]:    -1.759579    -0.176827     1.086837 

 

Dipole moment calculation done in   0.0 sec 

Maximum memory used throughout the entire PROP-calculation: 12.4 MB

--------------------------------
SUGGESTED CITATIONS FOR THIS RUN
--------------------------------

Below you find a list of papers that are relevant to this ORCA run
We neither can nor want to force you to cite these papers, but we appreciate if you do
You receive ORCA, which is the product of decades of hard work by many enthusiastic individuals, for free
The only thing we kindly ask in return is that you cite our papers,
We deeply appreciate it, if you show your appreciation for ORCA by not just citing the generic ORCA reference.

Please note that relegating all ORCA citations to the supporting information does *not* help us.
SI sections are not indexed - citations you put there will not count into any citation statistics
But we need these citations in order to attract the funding resources that allow us to do what we are doing

Therefore, if you are a happy ORCA user, please consider citing a few of the papers listed below in the main body of your paper

In addition to the list printed below, the program has created the file sp.bibtex that contains the list in bibtex format
You can import this file easily into all common literature databanks and citation aid programs


List of essential papers. We consider these as the minimum necessary citations

  1. Neese,F.
     Software update: the ORCA program system, version 5.0
     WIRES Comput. Molec. Sci., 2022 12(1)e1606
     doi.org/10.1002/wcms.1606

List of papers to cite with high priority. The work reported in these papers was absolutely
necessary for this run to complete.
Our perspective: the developers of density functionals and basis sets usually get cited in chemistry papers
Good! But without the algorithms to do something with them, the functionals or basis sets would not do anything.
Hence, in our opinion, the algorithm design and method developments papers are equally worthy of getting cited

  1. Neese,F.
     An improvement of the resolution of the identity approximation for the formation of the Coulomb matrix
     J. Comp. Chem., 2003 24(14)1740-1747
     doi.org/10.1002/jcc.10318
  2. Neese,F.
     The SHARK Integral Generation and Digestion System
     J. Comp. Chem., 2022  1-16
     doi.org/10.1002/jcc.26942
  3. Caldeweyher,E.; Bannwarth,C.; Grimme,S.
     Extension of the D3 dispersion coefficient model
     J. Chem. Phys., 2017 147 034112
     doi.org/10.1063/1.4993215
  4. Caldeweyher,E.; Ehlert,S.; Hansen,A.; Neugebauer,H.; Spicher,S.; Bannwarth,C.; Grimme,S.
     A generally applicable atomic-charge dependent London dispersion correction
     J. Chem. Phys., 2019 150 154122
     doi.org/10.1063/1.5090222
  5. Caldeweyher,E.; Mewes,J.; Ehlert,S.; Grimme,S.
     Extension and evaluation of the D4 London-dispersion model for periodic systems
     Phys. Chem. Chem. Phys., 2020 22(16)8499-8512
     doi.org/10.1039/D0CP00502A
  6. Wittmann,L.; Gordiy,I.; Friede,M.; Helmich-Paris,B.; Grimme,S.; Hansen,A.; Bursch,M.
     Extension of the D3 and D4 London Dispersion Corrections to the full Actinides Series
     Phys. Chem. Chem. Phys., 2024 26(32)21379-21394
     doi.org/https://doi.org/10.1039/D4CP01514B 

List of suggested additional citations. These are papers that are important in the 'surrounding' of 
of this run, or papers that preceded the highly important papers. If you like your results we are grateful for a citation.

  1. Neese,F.
     The ORCA program system
     WIRES Comput. Molec. Sci., 2012 2(1)73-78
     doi.org/10.1002/wcms.81
  2. Neese,F.
     Software update: the ORCA program system, version 4.0
     WIRES Comput. Molec. Sci., 2018 8(1)1-6
     doi.org/10.1002/wcms.1327
  3. Neese,F.; Wennmohs,F.; Becker,U.; Riplinger,C.
     The ORCA quantum chemistry program package
     J. Chem. Phys., 2020 152 Art. No. L224108
     doi.org/10.1063/5.0004608

List of optional additional citations

  1. Neese,F.
     Approximate second-order SCF convergence for spin unrestricted wavefunctions
     Chem. Phys. Lett., 2000 325(1-3)93-98
     doi.org/10.1016/s0009-2614(00)00662-x

Timings for individual modules:

Sum of individual times          ...       22.702 sec (=   0.378 min)
Startup calculation              ...        0.605 sec (=   0.010 min)   2.7 %
SCF iterations                   ...        7.111 sec (=   0.119 min)  31.3 %
Property calculations            ...       14.987 sec (=   0.250 min)  66.0 %
                             ****ORCA TERMINATED NORMALLY****
TOTAL RUN TIME: 0 days 0 hours 0 minutes 22 seconds 942 msec
