      -----------------------------------------------------------      
     |                   =====================                   |     
     |                           x T B                           |     
     |                   =====================                   |     
     |                         S. Grimme                         |     
     |          Mulliken Center for Theoretical Chemistry        |     
     |                    University of Bonn                     |     
      -----------------------------------------------------------      

   * xtb version 6.7.1 (edcfbbe) compiled by 'albert@albert-system' on 2024-07-22

   xtb is free software: you can redistribute it and/or modify it under
   the terms of the GNU Lesser General Public License as published by
   the Free Software Foundation, either version 3 of the License, or
   (at your option) any later version.
   
   xtb is distributed in the hope that it will be useful,
   but WITHOUT ANY WARRANTY; without even the implied warranty of
   MERCHANTABILITY or FITNESS FOR A PARTICULAR PURPOSE.  See the
   GNU Lesser General Public License for more details.
   
   Cite this work as:
   * C. Bannwarth, E. Caldeweyher, S. Ehlert, A. Hansen, P. Pracht,
     J. Seibert, S. Spicher, S. Grimme, WIREs Comput. Mol. Sci., 2020, 11,
     e01493. DOI: 10.1002/wcms.1493
   
   for GFN2-xTB:
   * C. Bannwarth, S. Ehlert and S. Grimme., J. Chem. Theory Comput., 2019,
     15, 1652-1671. DOI: 10.1021/acs.jctc.8b01176
   for GFN1-xTB:
   * S. Grimme, C. Bannwarth, P. Shushkov, J. Chem. Theory Comput., 2017,
     13, 1989-2009. DOI: 10.1021/acs.jctc.7b00118
   for GFN0-xTB:
   * P. Pracht, E. Caldeweyher, S. Ehlert, S. Grimme, ChemRxiv, 2019, preprint.
     DOI: 10.26434/chemrxiv.8326202.v1
   for GFN-FF:
   * S. Spicher and S. Grimme, Angew. Chem. Int. Ed., 2020, 59, 15665-15673.
     DOI: 10.1002/anie.202004239
   
   for ALPB and GBSA implicit solvation:
   * S. Ehlert, M. Stahn, S. Spicher, S. Grimme, J. Chem. Theory Comput.,
     2021, 17, 4250-4261. DOI: 10.1021/acs.jctc.1c00471
   
   for ddCOSMO and CPCM-X implicit solvation:
   * M. Stahn, S. Ehlert, S. Grimme, J. Phys. Chem. A,
     2023, XX, XXXX-XXXX. DOI: 10.1021/acs.jpca.3c04382
   
   for DFT-D4:
   * E. Caldeweyher, C. Bannwarth and S. Grimme, J. Chem. Phys., 2017,
     147, 034112. DOI: 10.1063/1.4993215
   * E. Caldeweyher, S. Ehlert, A. Hansen, H. Neugebauer, S. Spicher,
     C. Bannwarth and S. Grimme, J. Chem. Phys., 2019, 150, 154122.
     DOI: 10.1063/1.5090222
   * E. Caldeweyher, J.-M. Mewes, S. Ehlert and S. Grimme, Phys. Chem. Chem. Phys.
     2020, 22, 8499-8512. DOI: 10.1039/D0CP00502A
   
   for sTDA-xTB:
   * S. Grimme and C. Bannwarth, J. Chem. Phys., 2016, 145, 054103.
     DOI: 10.1063/1.4959605
   
   in the mass-spec context:
   * V. Asgeirsson, C. Bauer and S. Grimme, Chem. Sci., 2017, 8, 4879.
     DOI: 10.1039/c7sc00601b
   * J. Koopman and S. Grimme, ACS Omega 2019, 4, 12, 15120-15133.
     DOI: 10.1021/acsomega.9b02011
   
   for metadynamics refer to:
   * S. Grimme, J. Chem. Theory Comput., 2019, 155, 2847-2862
     DOI: 10.1021/acs.jctc.9b00143
   
   for SPH calculations refer to:
   * S. Spicher and S. Grimme, J. Chem. Theory Comput., 2021, 17, 1701-1714
     DOI: 10.1021/acs.jctc.0c01306
   
   for ONIOM refer to:
   * C. Plett, A. Katbashev, S. Ehlert, S. Grimme, M. Bursch,
     Phys. Chem. Chem. Phys., 2023, 25, 17860-17868. DOI: 10.1039/D3CP02178E
   
   for DIPRO refer to:
   * J. Kohn, N. Gildemeister, S. Grimme, D. Fazzi, A. Hansen,
     J. Chem. Phys., 2023, just accepted.
   
   for PTB refer to:
   * S. Grimme, M. Mueller, A. Hansen, J. Chem. Phys., 2023, 158, 124111.
     DOI: 10.1063/5.0137838
   
   with help from (in alphabetical order)
   P. Atkinson, C. Bannwarth, F. Bohle, G. Brandenburg, E. Caldeweyher
   M. Checinski, S. Dohm, S. Ehlert, S. Ehrlich, I. Gerasimov, C. Hölzer
   A. Katbashev, J. Kohn, J. Koopman, C. Lavigne, S. Lehtola, F. März, M. Müller,
   F. Musil, H. Neugebauer, J. Pisarek, C. Plett, P. Pracht, F. Pultar,
   J. Seibert, P. Shushkov, S. Spicher, M. Stahn, M. Steiner, T. Strunk,
   J. Stückrath, T. Rose, and J. Unsleber
   
 * started run on 2025/04/16 at 10:19:57.556     
   ID    Z sym.   atoms
    1    6 C      1-5
    2    1 H      6-15

           -------------------------------------------------
          |                Calculation Setup                |
           -------------------------------------------------

          program call               : /software/projects/pawsey0265/mwang1/xtb/bin/xtb xtb_opt.coord --opt normal --orca -I xtb_opt-xcontrol-inp
          hostname                   : nid001629
          coordinate file            : xtb_opt.coord
          omp threads                :                    88

           -------------------------------------------------
          |                   Orca driver                   |
           -------------------------------------------------
orca executable           : /software/projects/pawsey0265/mwang1/orca_avx2/orca
orca input file           : xtb_opt.inp
orca input line           : 
orca parallel             : true
orca number of threads    : 88
                         * ORCA takes the control...
  ------------------------------------------------------------------------

                                 *****************
                                 * O   R   C   A *
                                 *****************

                                            #,                                       
                                            ###                                      
                                            ####                                     
                                            #####                                    
                                            ######                                   
                                           ########,                                 
                                     ,,################,,,,,                         
                               ,,#################################,,                 
                          ,,##########################################,,             
                       ,#########################################, ''#####,          
                    ,#############################################,,   '####,        
                  ,##################################################,,,,####,       
                ,###########''''           ''''###############################       
              ,#####''   ,,,,##########,,,,          '''####'''          '####       
            ,##' ,,,,###########################,,,                        '##       
           ' ,,###''''                  '''############,,,                           
         ,,##''                                '''############,,,,        ,,,,,,###''
      ,#''                                            '''#######################'''  
     '                                                          ''''####''''         
             ,#######,   #######,   ,#######,      ##                                
            ,#'     '#,  ##    ##  ,#'     '#,    #''#        ,####,   ,####,        
            ##       ##  ##   ,#'  ##            #'  '#       #'       #'  '#        
            ##       ##  #######   ##           ,######,      #####,   #    #        
            '#,     ,#'  ##    ##  '#,     ,#' ,#      #,     #,   #   #,  ,#        
             '#######'   ##     ##  '#######'  #'      '#     '####' # '####'        



                #########################################################
                #                        -***-                          #
                #          Department of theory and spectroscopy        #
                #                                                       #
                #                      Frank Neese                      #
                #                                                       #
                #     Directorship, Architecture, Infrastructure        #
                #                    SHARK, DRIVERS                     #
                #        Core code/Algorithms in most modules           #
                #                                                       #
                #        Max Planck Institute fuer Kohlenforschung      #
                #                Kaiser Wilhelm Platz 1                 #
                #                 D-45470 Muelheim/Ruhr                 #
                #                      Germany                          #
                #                                                       #
                #                  All rights reserved                  #
                #                        -***-                          #
                #########################################################


                         Program Version 6.0.1  -  RELEASE   -


 With contributions from (in alphabetic order):
[Max-Planck-Institut fuer Kohlenforschung]                               
  Daniel Aravena         : Magnetic Suceptibility                        
  Michael Atanasov       : Ab Initio Ligand Field Theory (pilot matlab implementation)
  Alexander A. Auer      : GIAO ZORA, VPT2 properties, NMR spectrum      
  Ute Becker             : All parallelization in ORCA, NUMFREQ, NUMCALC 
  Giovanni Bistoni       : ED, misc. LED, open-shell LED, HFLD           
  Martin Brehm           : Molecular dynamics                            
  Dmytro Bykov           : pre 5.0 version of the SCF Hessian            
  Marcos Casanova-Páez   : Triplet and SCS-CIS(D). UHF-(DLPNO)-IP/EA/STEOM-CCSD. UHF-CVS-IP/STEOM-CCSD   
  Vijay G. Chilkuri      : MRCI spin determinant printing, contributions to CSF-ICE 
  Pauline Colinet        : FMM embedding                                 
  Dipayan Datta          : RHF DLPNO-CCSD density                        
  Achintya Kumar Dutta   : EOM-CC, STEOM-CC                              
  Nicolas Foglia         : Exact transition moments, OPA infrastructure, MCD improvements    
  Dmitry Ganyushin       : Spin-Orbit,Spin-Spin,Magnetic field MRCI      
  Miquel Garcia-Rates    : C-PCM and meta-GGA Hessian, CCSD/C-PCM, Gaussian charge scheme 
  Tiago L. C. Gouveia    : GS-ROHF, GS-ROCIS                             
  Yang Guo               : DLPNO-NEVPT2, F12-NEVPT2, CIM, IAO-localization        
  Andreas Hansen         : Spin unrestricted coupled pair/coupled cluster methods 
  Ingolf Harden          : AUTO-CI MPn and infrastructure                
  Benjamin Helmich-Paris : MC-RPA, TRAH-(SCF,CASSCF), AVAS, COSX integrals, SCF dyn. polar. 
  Lee Huntington         : MR-EOM, pCC                                   
  Robert Izsak           : Overlap fitted RIJCOSX, COSX-SCS-MP3, EOM     
  Riya Kayal             : Wick's Theorem for AUTO-CI, AUTO-CI UHF-CCSDT 
  Emily Kempfer          : AUTO-CI, RHF CISDT and CCSDT                  
  Christian Kollmar      : KDIIS, OOCD, Brueckner-CCSD(T), CCSD density, CASPT2, CASPT2-K, improved NEVPT2 
  Axel Koslowski         : Symmetry handling                             
  Simone Kossmann        : meta-GGA functionals, TD-DFT gradient, OOMP2, (MP2 Hessian; deprecated post 5.0) 
  Lucas Lang             : DCDCAS                                        
  Marvin Lechner         : AUTO-CI (C++ implementation), FIC-MRCC        
  Spencer Leger          : CASSCF response                               
  Dagmar Lenk            : GEPOL surface, SMD, ORCA-2-JSON               
  Dimitrios Liakos       : Extrapolation schemes; Compound Job, initial MDCI parallelization 
  Dimitrios Manganas     : Further ROCIS development; embedding schemes. LFT, Crystal Embedding 
  Dimitrios Pantazis     : SARC Basis sets                               
  Anastasios Papadopoulos: AUTO-CI, single reference methods and gradients 
  Taras Petrenko         : pre 6.0 DFT Hessian and TD-DFT gradient, (ASA, deprecated), ECA, 1-Electron XAS/XES, NRVS 
  Peter Pinski           : DLPNO-MP2, DLPNO-MP2 Gradient                 
  Christoph Reimann      : Effective Core Potentials                     
  Marius Retegan         : Local ZFS, SOC                                
  Christoph Riplinger    : Optimizer, TS searches, QM/MM, DLPNO-CCSD(T), (RO)-DLPNO pert. Triples 
  Michael Roemelt        : Original ROCIS implementation                 
  Masaaki Saitow         : Open-shell DLPNO-CCSD energy and density      
  Barbara Sandhoefer     : DKH picture change effects                    
  Kantharuban Sivalingam : CASSCF convergence/infrastructure, NEVPT2 and variants, FIC-MRCI 
  Bernardo de Souza      : ESD, SOC TD-DFT                               
  Georgi L. Stoychev     : AutoAux, RI-MP2 NMR, DLPNO-MP2 response, X2C  
  Van Anh Tran           : RI-MP2 g-tensors                              
  Willem Van den Heuvel  : Paramagnetic NMR                              
  Zikuan Wang            : NOTCH, Electric field optimization            
  Frank Wennmohs         : Technical directorship and infrastructure     
  Hang Xu                : AUTO-CI-Response properties                   
                                                                         
[FACCTs GmbH]                                                            
  Markus Bursch, Miquel Garcia-Rates, Christoph Riplinger, Bernardo de Souza, Georgi L. Stoychev 
                                                                 
  APM, Basis sets (HGBS, AHGBS, def-TZVP (Ac-Lr), def2-XVPD (La-Lu)), CI-OPT, improved COSX, DLPNO-Multilevel,           
  DOCKER, DRACO, updates on ESD, GOAT, IRC, LR-CPCM, MBIS, meta-GGA TD-DFT gradient, ML-optimized integration grids, 
  MM, NACMEs, nearIR, NEB, NEB-TS, NL-DFT gradient (VV10), 2- and 3-layer-ONIOM, interface openCOSMO-RS, QMMM,   
  Crystal-QMMM, SF, symmetry and pop. for TD-DFT, r2SCAN hybrids, SOLVATOR                                   
                                                                         
[Other institutions]                                                     
  V. Asgeirsson          : NEB                                           
  Christoph Bannwarth    : sTDA-DFT, sTD-DFT, PBEh-3c, B97-3c, D3        
  Sebastian Ehlert       : rSCAN, r2SCAN, r2SCAN-3c, D4, dhf basis sets  
  Marvin Friede          : D4 for Fr, Ra, Ac-Lr                          
  Lars Goerigk           : TD-DFT with DH, B97 family of functionals     
  Stefan Grimme          : VdW corrections, initial TS optimization, DFT functionals, gCP, sTDA/sTD-DF 
  Waldemar Hujo          : DFT-NL                                        
  H. Jonsson             : NEB                                           
  Holger Kruse           : gCP                                           
  Marcel Mueller         : wB97X-3c, vDZP basis set                      
  Hagen Neugebauer       : wr2SCAN                                       
  Tobias Risthaus        : range-separated hybrid DFT                    
  Lukas Wittmann         : regularized MP2, r2SCAN double-hybrids, wr2SCAN        
                                                                         
We gratefully acknowledge several colleagues who have allowed us to      
interface, adapt or use parts of their codes:                            
  Ed Valeev, F. Pavosevic, A. Kumar             : LibInt (2-el integral package), F12 methods 
  Garnet Chan, S. Sharma, J. Yang, R. Olivares  : DMRG                   
  Ulf Ekstrom                                   : XCFun DFT Library      
  Mihaly Kallay                                 : mrcc  (arbitrary order and MRCC methods)
  Frank Weinhold                                : gennbo (NPA and NBO analysis)           
  Simon Mueller                                 : openCOSMO-RS                            
  Christopher J. Cramer and Donald G. Truhlar   : smd solvation model                     
  S Lehtola, MJT Oliveira, MAL Marques          : LibXC Library                           
  Liviu Ungur et al                             : ANISO software                          


 Your calculation uses the libint2 library for the computation of 2-el integrals
 For citations please refer to: http://libint.valeyev.net

 Your ORCA version has been built with support for libXC version: 6.2.2
 For citations please refer to: https://libxc.gitlab.io

 This ORCA versions uses:
   CBLAS   interface :  Fast vector & matrix operations
   LAPACKE interface :  Fast linear algebra routines
   SCALAPACK package :  Parallel linear algebra routines
   Shared memory     :  Shared parallel matrices
   BLAS/LAPACK       :  OpenBLAS 0.3.27  USE64BITINT DYNAMIC_ARCH NO_AFFINITY Zen SINGLE_THREADED
        Core in use  :  Zen
   Copyright (c) 2011-2014, The OpenBLAS Project




***************************************
The coordinates will be read from file: xtb_opt.xyz
***************************************


Your calculation utilizes the geometrical counterpoise correction gCP
Please cite in your paper:
H.Kruse, S. Grimme J.Chem.Phys., 136, (2012), 154101 
   

Your calculation utilizes the atom-pairwise dispersion correction
based on EEQ partial charges (D4)


================================================================================

----- Orbital basis set information -----
Your calculation utilizes the basis: def2-mTZVPP
   Stefan Grimme, Andreas Hansen, Sebastian Ehlert, and Jan-Michael Mewes 
   J. Chem. Phys. 154, 064103 (2021). DOI: 10.1063/5.0040021

----- AuxJ basis set information -----
Your calculation utilizes the auxiliary basis: def2/J
   F. Weigend, Phys. Chem. Chem. Phys. 8, 1057 (2006).

================================================================================
                                        WARNINGS
                       Please study these warnings very carefully!
================================================================================

WARNING: Old DensityContainer found on disk!
         Will remove this file - 
         If you want to keep old densities, please start your calculation with a different basename. 



WARNING: SCAN, rSCAN, or r2SCAN functional requested.
  ===> : libXC variant has now been activated.



================================================================================
                                       INPUT FILE
================================================================================
NAME = xtb_opt.inp
|  1> ! r2scan-3c def2/J RI DEFGRID2 scfconv7 ENGRAD tightSCF miniprint
|  2> * xyzfile 0 1 xtb_opt.xyz
|  3> 
|  4>                          ****END OF INPUT****
================================================================================

                     *******************************
                     * Energy+Gradient Calculation *
                     *******************************

---------------------------------
CARTESIAN COORDINATES (ANGSTROEM)
---------------------------------
  C     -2.209784    0.294975    0.289504
  C     -1.010606    0.178638   -0.663940
  C      0.004292   -0.802048   -0.156697
  C      1.267584   -0.572781    0.210887
  C      2.019498    0.719646    0.168032
  H     -2.969866    0.969318   -0.117680
  H     -1.894015    0.678441    1.263543
  H     -2.677804   -0.681151    0.450863
  H     -1.375073   -0.156398   -1.645906
  H     -0.568785    1.168704   -0.817666
  H     -0.368158   -1.821954   -0.053300
  H      1.839742   -1.420424    0.588278
  H      2.963521    0.593020   -0.401273
  H      2.310083    1.043518    1.194241
  H      1.433138    1.533442   -0.289230

----------------------------
CARTESIAN COORDINATES (A.U.)
----------------------------
  NO LB      ZA    FRAG     MASS         X           Y           Z
   0 C     6.0000    0    12.011   -4.175887    0.557422    0.547084
   1 C     6.0000    0    12.011   -1.909768    0.337576   -1.254665
   2 C     6.0000    0    12.011    0.008112   -1.515652   -0.296114
   3 C     6.0000    0    12.011    2.395386   -1.082400    0.398518
   4 C     6.0000    0    12.011    3.816297    1.359933    0.317534
   5 H     1.0000    0     1.008   -5.612234    1.831746   -0.222383
   6 H     1.0000    0     1.008   -3.579170    1.282068    2.387750
   7 H     1.0000    0     1.008   -5.060316   -1.287189    0.852008
   8 H     1.0000    0     1.008   -2.598511   -0.295550   -3.110312
   9 H     1.0000    0     1.008   -1.074848    2.208530   -1.545165
  10 H     1.0000    0     1.008   -0.695718   -3.442995   -0.100722
  11 H     1.0000    0     1.008    3.476608   -2.684211    1.111684
  12 H     1.0000    0     1.008    5.600243    1.120645   -0.758295
  13 H     1.0000    0     1.008    4.365424    1.971964    2.256789
  14 H     1.0000    0     1.008    2.708237    2.897786   -0.546566

------------------------------------------------------------------------------
                   ___                                                        
                  /   \      - P O W E R E D   B Y -                         
                 /     \                                                     
                 |  |  |   _    _      __       _____    __    __             
                 |  |  |  | |  | |    /  \     |  _  \  |  |  /  |          
                  \  \/   | |  | |   /    \    | | | |  |  | /  /          
                 / \  \   | |__| |  /  /\  \   | |_| |  |  |/  /          
                |  |  |   |  __  | /  /__\  \  |    /   |      \           
                |  |  |   | |  | | |   __   |  |    \   |  |\   \          
                \     /   | |  | | |  |  |  |  | |\  \  |  | \   \       
                 \___/    |_|  |_| |__|  |__|  |_| \__\ |__|  \__/        
                                                                              
                      - O R C A' S   B I G   F R I E N D -                    
                                      &                                       
                       - I N T E G R A L  F E E D E R -                       
                                                                              
 v1 FN, 2020, v2 2021, v3 2022-2024                                           
------------------------------------------------------------------------------


----------------------
SHARK INTEGRAL PACKAGE
----------------------

Number of atoms                             ...     15
Number of basis functions                   ...    145
Number of shells                            ...     75
Maximum angular momentum                    ...      2
Integral batch strategy                     ... SHARK/LIBINT Hybrid
RI-J (if used) integral strategy            ... SPLIT-RIJ (Revised 2003 algorithm where possible)
Printlevel                                  ...      1
Contraction scheme used                     ... SEGMENTED contraction
Prescreening option                         ... SCHWARTZ
   Thresh                                   ... 3.000e-11
   Tcut                                     ... 1.000e-12
   Tpresel                                  ... 1.000e-12 
Coulomb Range Separation                    ... NOT USED
Exchange Range Separation                   ... NOT USED
Multipole approximations                    ... NOT USED
Finite Nucleus Model                        ... NOT USED
CABS basis                                  ... NOT available
Auxiliary Coulomb fitting basis             ... AVAILABLE
   # of basis functions in Aux-J            ...    355
   # of shells in Aux-J                     ...    125
   Maximum angular momentum in Aux-J        ...      4
Auxiliary J/K fitting basis                 ... NOT available
Auxiliary Correlation fitting basis         ... NOT available
Auxiliary 'external' fitting basis          ... NOT available

Checking pre-screening integrals            ... done (  0.0 sec) Dimension = 75
Check shell pair data                       ... done (  0.0 sec)
Shell pair information
Shell pair cut-off parameter TPreSel        ...   1.0e-12
Total number of shell pairs                 ...      2850
Shell pairs after pre-screening             ...      2690
Total number of primitive shell pairs       ...     10010
Primitive shell pairs kept                  ...      7128
          la=0 lb=0:    968 shell pairs
          la=1 lb=0:   1062 shell pairs
          la=1 lb=1:    308 shell pairs
          la=2 lb=0:    216 shell pairs
          la=2 lb=1:    121 shell pairs
          la=2 lb=2:     15 shell pairs

Calculating one electron integrals          ... done (  0.0 sec)
Calculating RI/J V-Matrix + Cholesky decomp.... done (  0.0 sec)
Calculating Nuclear repulsion               ... done (  0.0 sec) ENN=    171.159835586967 Eh

Diagonalization of the overlap matrix:
Smallest eigenvalue                        ... 2.366e-04
Time for diagonalization                   ...    0.002 sec
Threshold for overlap eigenvalues          ... 1.000e-07
Number of eigenvalues below threshold      ... 0
Time for construction of square roots      ...    0.005 sec
Total time needed                          ...    0.008 sec

-------------------
DFT GRID GENERATION
-------------------

General Integration Accuracy     IntAcc      ... 4.388
Radial Grid Type                 RadialGrid  ... OptM3 with GC (2021)
Angular Grid (max. ang.)         AngularGrid ... 4 (Lebedev-302)
Angular grid pruning method      GridPruning ... 4 (adaptive)
Weight generation scheme         WeightScheme... mBecke (2022)
Basis function cutoff            BFCut       ... 1.0000e-11
Integration weight cutoff        WCut        ... 1.0000e-14
Partially contracted basis set               ... off
Rotationally invariant grid construction     ... off
Angular grids for H and He will be reduced by one unit

Total number of grid points                  ...    62448
Total number of batches                      ...      984
Average number of points per batch           ...       63
Average number of grid points per atom       ...     4163
Initializing property integral containers    ... done (  0.0 sec)

SHARK setup successfully completed in   0.5 seconds

Maximum memory used throughout the entire STARTUP-calculation: 26.2 MB
Occupation numbers will be reassigned to an Aufbau configuration
             **** ENERGY FILE WAS UPDATED (xtb_opt.en.tmp) ****
Finished Guess after   0.1 sec
Maximum memory used throughout the entire GUESS-calculation: 10.4 MB
----------------------------------------D-I-I-S--------------------------------------------
Iteration    Energy (Eh)           Delta-E    RMSDP     MaxDP     DIISErr   Damp  Time(sec)
-------------------------------------------------------------------------------------------
               ***  Starting incremental Fock matrix formation  ***
                              *** Initializing SOSCF ***
---------------------------------------S-O-S-C-F--------------------------------------
Iteration    Energy (Eh)           Delta-E    RMSDP     MaxDP     MaxGrad    Time(sec)
--------------------------------------------------------------------------------------
    1    -196.4635938716096746     0.00e+00  1.75e-07  2.46e-06  4.03e-07     1.0
               *** Restarting incremental Fock matrix formation ***
    2    -196.4635938716390626    -2.94e-11  1.06e-07  2.91e-06  6.69e-07     0.9
                  *** Gradient check signals convergence ***

               *****************************************************
               *                     SUCCESS                       *
               *           SCF CONVERGED AFTER   2 CYCLES          *
               *****************************************************

             **** ENERGY FILE WAS UPDATED (xtb_opt.en.tmp) ****

----------------
TOTAL SCF ENERGY
----------------

Total Energy       :       -196.46359387163906 Eh           -5346.04618 eV

Components:
Nuclear Repulsion  :        171.15983558696709 Eh            4657.49591 eV
Electronic Energy  :       -367.62342945860615 Eh          -10003.54209 eV
One Electron Energy:       -601.54418258444093 Eh          -16368.84938 eV
Two Electron Energy:        233.92075312583478 Eh            6365.30730 eV

Virial components:
Potential Energy   :       -391.83969796267377 Eh          -10662.50025 eV
Kinetic Energy     :        195.37610409103470 Eh            5316.45408 eV
Virial Ratio       :          2.00556613504842

DFT components:
N(Alpha)           :       19.999983003825 electrons
N(Beta)            :       19.999983003825 electrons
N(Total)           :       39.999966007651 electrons
E(X)               :      -29.513112397911 Eh       
E(C)               :       -1.222430902400 Eh       
E(XC)              :      -30.735543300311 Eh       

---------------
SCF CONVERGENCE
---------------

  Last Energy change         ...    2.9388e-11  Tolerance :   1.0000e-07
  Last MAX-Density change    ...    2.9122e-06  Tolerance :   1.0000e-07
  Last RMS-Density change    ...    1.0555e-07  Tolerance :   5.0000e-09
  Last DIIS Error            ...    3.8581e-06  Tolerance :   1.0000e-07
  Last Orbital Gradient      ...    6.6949e-07  Tolerance :   1.0000e-04
  Last Orbital Rotation      ...    1.1979e-06  Tolerance :   1.0000e-04


----------------
ORBITAL ENERGIES
----------------

  NO   OCC          E(Eh)            E(eV) 
   0   2.0000     -10.031134      -272.9610 
   1   2.0000     -10.029242      -272.9095 
   2   2.0000     -10.027441      -272.8605 
   3   2.0000     -10.024081      -272.7691 
   4   2.0000     -10.020901      -272.6826 
   5   2.0000      -0.768852       -20.9215 
   6   2.0000      -0.715781       -19.4774 
   7   2.0000      -0.645525       -17.5656 
   8   2.0000      -0.582263       -15.8442 
   9   2.0000      -0.491404       -13.3718 
  10   2.0000      -0.446531       -12.1507 
  11   2.0000      -0.401828       -10.9343 
  12   2.0000      -0.393474       -10.7070 
  13   2.0000      -0.375543       -10.2190 
  14   2.0000      -0.349543        -9.5115 
  15   2.0000      -0.337967        -9.1966 
  16   2.0000      -0.334470        -9.1014 
  17   2.0000      -0.307434        -8.3657 
  18   2.0000      -0.290278        -7.8989 
  19   2.0000      -0.218055        -5.9336 
  20   0.0000      -0.001447        -0.0394 
  21   0.0000       0.088411         2.4058 
  22   0.0000       0.119085         3.2405 
  23   0.0000       0.122028         3.3205 
  24   0.0000       0.137511         3.7419 
  25   0.0000       0.147041         4.0012 
  26   0.0000       0.155929         4.2430 
  27   0.0000       0.166203         4.5226 
  28   0.0000       0.177045         4.8177 
  29   0.0000       0.183358         4.9894 
  30   0.0000       0.192547         5.2395 
*Only the first 10 virtual orbitals were printed.
Total SCF time: 0 days 0 hours 0 min 2 sec 
Finished LeanSCF after   3.2 sec

Maximum memory used throughout the entire LEANSCF-calculation: 15.8 MB


-------------------------------------------------------------------------------
                          DFT DISPERSION CORRECTION                            
                                                                               
                                DFTD4 V3.4.0                                   
-------------------------------------------------------------------------------
-------------------------   ----------------
Dispersion correction           -0.003236197
-------------------------   ----------------

------------------   -----------------
gCP correction             0.006106510
------------------   -----------------

-------------------------   --------------------
FINAL SINGLE POINT ENERGY      -196.460723558258
-------------------------   --------------------

------------------------------------------------------------------------------
                         ORCA SCF GRADIENT CALCULATION
------------------------------------------------------------------------------

Nuc. rep. gradient        (SHARK) ... done (  0.0 sec)
HCore & Overlap gradient  (SHARK) ... done (  0.1 sec)
Split-RIJ-J gradient      (SHARK) ... done (  0.5 sec)
XC gradient                       ... done (  2.8 sec)
Dispersion correction             ... done (  0.0 sec)

-------------------
DISPERSION GRADIENT
-------------------

   1   C   :   -0.000076578    0.000009365    0.000010706
   2   C   :   -0.000043265    0.000005745   -0.000026046
   3   C   :   -0.000000983   -0.000035255   -0.000007934
   4   C   :    0.000062055   -0.000024288    0.000007591
   5   C   :    0.000075073    0.000029683    0.000007262
   6   H   :   -0.000027826    0.000009415    0.000002057
   7   H   :   -0.000035730    0.000008088    0.000012230
   8   H   :   -0.000028102    0.000000113    0.000004846
   9   H   :   -0.000021561   -0.000002324   -0.000017445
  10   H   :   -0.000016069    0.000007569   -0.000010311
  11   H   :   -0.000002234   -0.000026583   -0.000002108
  12   H   :    0.000023835   -0.000017227    0.000007502
  13   H   :    0.000028290    0.000008438    0.000001182
  14   H   :    0.000030761    0.000011591    0.000010333
  15   H   :    0.000032334    0.000015670    0.000000136

Difference to translation invariance:
           :    0.0000000000    0.0000000000    0.0000000000

Difference to rotation invariance:
           :    0.0000000000    0.0000000000    0.0000000000

Norm of the Dispersion gradient    ...    0.0001743034
RMS gradient                       ...    0.0000259836
MAX gradient                       ...    0.0000765777
gCP correction                   ... done

------------------
CARTESIAN GRADIENT
------------------

   1   C   :   -0.000188710   -0.000305013    0.000988451
   2   C   :   -0.000136876   -0.000233360    0.000285199
   3   C   :    0.000866143   -0.000176843   -0.000214927
   4   C   :   -0.000797686    0.000442936   -0.000443679
   5   C   :   -0.004061004   -0.006016698   -0.002930630
   6   H   :   -0.000063471    0.000007954   -0.000231942
   7   H   :   -0.000189818   -0.000076816   -0.000369652
   8   H   :   -0.000015792    0.000297425   -0.000017904
   9   H   :   -0.000579780   -0.000091966   -0.000535254
  10   H   :   -0.000132358    0.000748463   -0.000121703
  11   H   :   -0.000064958   -0.000036434   -0.000252997
  12   H   :    0.000407913    0.000115007    0.000311217
  13   H   :    0.007270810   -0.002343303   -0.003751552
  14   H   :    0.002555906    0.003243525    0.009633309
  15   H   :   -0.004870319    0.004425122   -0.002347936

Difference to translation invariance:
           :    0.0000000000   -0.0000000000   -0.0000000000

Difference to rotation invariance:
           :    0.0000539002   -0.0001225976   -0.0001971184

Norm of the Cartesian gradient     ...    0.0172450440
RMS gradient                       ...    0.0025707394
MAX gradient                       ...    0.0096333093

-------
TIMINGS
-------

Total SCF gradient time     ....        3.465 sec

Densities                   ....       0.000 sec  (  0.0%)
One electron gradient       ....       0.098 sec  (  2.8%)
RI-J Coulomb gradient       ....       0.533 sec  ( 15.4%)
XC gradient                 ....       2.781 sec  ( 80.3%)

Maximum memory used throughout the entire SCFGRAD-calculation: 30.4 MB

------------------------------------------------------------------------------
                              ORCA PROPERTY CALCULATIONS
------------------------------------------------------------------------------

GBWName                                 ... xtb_opt.gbw
Number of atoms                         ...     15
Number of basis functions               ...    145
Max core memory                         ...   1024 MB

Electric properties:
Dipole moment                           ... YES
Quadrupole moment                       ...  NO
Static polarizability (Dipole/Dipole)   ...  NO
Static polarizability (Dipole/Quad.)    ...  NO
Static polarizability (Quad./Quad.)     ...  NO
Static polarizability (Velocity)        ...  NO

Atomic electric properties:
Dipole moment                           ...  NO
Quadrupole moment                       ...  NO
Static polarizability                   ...  NO

Choice of electric origin               ... Center of mass
Position of electric origin             ...    -0.012531    -0.006981    -0.044593

General magnetic properties:
Magnetizability                         ...  NO

EPR properties:
g-Tensor (aka g-matrix)                 ...  NO
Zero-Field splitting spin-orbit         ...  NO
Zero-field splitting spin-spin          ...  NO
Hyperfine couplings                     ...  NO (   0 nuclei)
Quadrupole couplings                    ...  NO (   0 nuclei)
Contact density                         ...  NO (   0 nuclei)

NMR properties:
Chemical shifts                         ...  NO (   0 nuclei)
Spin-rotation constants                 ...  NO (   0 nuclei)
Spin-spin couplings                     ...  NO (   0 nuclei,    0 pairs)

Choice of magnetic origin               ... GIAO
Position of magnetic origin             ...     0.000000     0.000000     0.000000

Properties with geometric perturbations:
SCF Hessian                             ...  NO
IR spectrum                             ...  NO
VCD spectrum                            ...  NO
X-ray spectroscopy properties:
SCF XES/XAS/RIXS spectra                ...  NO


-------------
DIPOLE MOMENT
-------------

Method             : SCF
Type of density    : Electron Density
Multiplicity       :   1
Irrep              :   0
Energy             :  -196.4635938716390626 Eh
Relativity type    : 
Basis              : AO
                                X                 Y                 Z
Electronic contribution:      1.158877367      -1.712746037      -0.389457246
Nuclear contribution   :     -1.164188134       1.823305473       0.382629169
                        -----------------------------------------
Total Dipole Moment    :     -0.005310767       0.110559436      -0.006828077
                        -----------------------------------------
Magnitude (a.u.)       :      0.110897320
Magnitude (Debye)      :      0.281878587



--------------------
Rotational spectrum 
--------------------
 
Rotational constants in cm-1:             0.366735             0.086143             0.079008 
Rotational constants in MHz :         10994.427651          2582.502587          2368.596656 

Dipole components along the rotational axes: 
x,y,z [a.u.] :    -0.005407    -0.110261    -0.010562 
x,y,z [Debye]:    -0.013743    -0.280260    -0.026847 

 

Dipole moment calculation done in   0.0 sec 

Maximum memory used throughout the entire PROP-calculation: 8.6 MB

--------------------------------
SUGGESTED CITATIONS FOR THIS RUN
--------------------------------

Below you find a list of papers that are relevant to this ORCA run
We neither can nor want to force you to cite these papers, but we appreciate if you do
You receive ORCA, which is the product of decades of hard work by many enthusiastic individuals, for free
The only thing we kindly ask in return is that you cite our papers,
We deeply appreciate it, if you show your appreciation for ORCA by not just citing the generic ORCA reference.

Please note that relegating all ORCA citations to the supporting information does *not* help us.
SI sections are not indexed - citations you put there will not count into any citation statistics
But we need these citations in order to attract the funding resources that allow us to do what we are doing

Therefore, if you are a happy ORCA user, please consider citing a few of the papers listed below in the main body of your paper

In addition to the list printed below, the program has created the file xtb_opt.bibtex that contains the list in bibtex format
You can import this file easily into all common literature databanks and citation aid programs


List of essential papers. We consider these as the minimum necessary citations

  1. Neese,F.
     Software update: the ORCA program system, version 5.0
     WIRES Comput. Molec. Sci., 2022 12(1)e1606
     doi.org/10.1002/wcms.1606
  2. Grimme,S.; Hansen,A.; Ehlert,S.; Mewes,J.
     r2SCAN-3c: A 'Swiss army knife' composite electronic-structure method
     J. Chem. Phys., 2021 154 064103
     doi.org/10.1063/5.0040021

List of papers to cite with high priority. The work reported in these papers was absolutely
necessary for this run to complete.
Our perspective: the developers of density functionals and basis sets usually get cited in chemistry papers
Good! But without the algorithms to do something with them, the functionals or basis sets would not do anything.
Hence, in our opinion, the algorithm design and method developments papers are equally worthy of getting cited

  1. Neese,F.
     An improvement of the resolution of the identity approximation for the formation of the Coulomb matrix
     J. Comp. Chem., 2003 24(14)1740-1747
     doi.org/10.1002/jcc.10318
  2. Neese,F.
     The SHARK Integral Generation and Digestion System
     J. Comp. Chem., 2022  1-16
     doi.org/10.1002/jcc.26942
  3. Lehtola,S.; Steigemann,C.; Oliveira,M.; Marques,M.
     Recent developments in Libxc - A comprehensive library of functionals for density functional theory
     Software X, 2018 7 
     doi.org/10.1016/j.softx.2017.11.002
  4. Caldeweyher,E.; Bannwarth,C.; Grimme,S.
     Extension of the D3 dispersion coefficient model
     J. Chem. Phys., 2017 147 034112
     doi.org/10.1063/1.4993215
  5. Caldeweyher,E.; Ehlert,S.; Hansen,A.; Neugebauer,H.; Spicher,S.; Bannwarth,C.; Grimme,S.
     A generally applicable atomic-charge dependent London dispersion correction
     J. Chem. Phys., 2019 150 154122
     doi.org/10.1063/1.5090222
  6. Caldeweyher,E.; Mewes,J.; Ehlert,S.; Grimme,S.
     Extension and evaluation of the D4 London-dispersion model for periodic systems
     Phys. Chem. Chem. Phys., 2020 22(16)8499-8512
     doi.org/10.1039/D0CP00502A
  7. Wittmann,L.; Gordiy,I.; Friede,M.; Helmich-Paris,B.; Grimme,S.; Hansen,A.; Bursch,M.
     Extension of the D3 and D4 London Dispersion Corrections to the full Actinides Series
     Phys. Chem. Chem. Phys., 2024 26(32)21379-21394
     doi.org/https://doi.org/10.1039/D4CP01514B 

List of suggested additional citations. These are papers that are important in the 'surrounding' of 
of this run, or papers that preceded the highly important papers. If you like your results we are grateful for a citation.

  1. Neese,F.
     The ORCA program system
     WIRES Comput. Molec. Sci., 2012 2(1)73-78
     doi.org/10.1002/wcms.81
  2. Neese,F.
     Software update: the ORCA program system, version 4.0
     WIRES Comput. Molec. Sci., 2018 8(1)1-6
     doi.org/10.1002/wcms.1327
  3. Neese,F.; Wennmohs,F.; Becker,U.; Riplinger,C.
     The ORCA quantum chemistry program package
     J. Chem. Phys., 2020 152 Art. No. L224108
     doi.org/10.1063/5.0004608

List of optional additional citations

  1. Neese,F.
     Approximate second-order SCF convergence for spin unrestricted wavefunctions
     Chem. Phys. Lett., 2000 325(1-3)93-98
     doi.org/10.1016/s0009-2614(00)00662-x

Timings for individual modules:

Sum of individual times          ...        7.622 sec (=   0.127 min)
Startup calculation              ...        0.588 sec (=   0.010 min)   7.7 %
SCF iterations                   ...        3.413 sec (=   0.057 min)  44.8 %
Property calculations            ...        0.085 sec (=   0.001 min)   1.1 %
SCF Gradient evaluation          ...        3.537 sec (=   0.059 min)  46.4 %
                             ****ORCA TERMINATED NORMALLY****
TOTAL RUN TIME: 0 days 0 hours 0 minutes 9 seconds 799 msec
  ------------------------------------------------------------------------
          * successful ORCA run, taking over control again...

         :::::::::::::::::::::::::::::::::::::::::::::::::::::
         ::                  ORCA SUMMARY                   ::
         :::::::::::::::::::::::::::::::::::::::::::::::::::::
         :: total energy            -196.460723558258 Eh    ::
         :: gradient norm              0.017245044016 Eh/a0 ::
         :: HOMO-LUMO gap              0.000000000000 eV    ::
         :::::::::::::::::::::::::::::::::::::::::::::::::::::

      ----------------------------------------------------------- 
     |                       L-ANC optimizer                     |
      ----------------------------------------------------------- 
          low memory version by Sebastian Ehlert

          ...................................................
          :                      SETUP                      :
          :.................................................:
          :   energy convergence        0.5000000E-05 Eh    :
          :   grad. convergence         0.1000000E-02 Eh/a0 :
          :   optimization log               true           :
          :   writing optlog all                1     steps :
          :   Hessian reset                     8     steps :
          :   maximium step len.        1.0000000     a0    :
          :   LBFGS images                      8           :
          ...................................................
 * calculating model hessian...
Using Lindh-Hessian (1995)
 Shifting diagonal of input Hessian by   1.000000000000000E-002
 Lowest  eigenvalues of input Hessian
    0.000000    0.000000    0.000000    0.000000    0.000000    0.000000
    0.012363    0.014906    0.017052    0.021755    0.022964    0.028374
    0.042374    0.049109    0.056702    0.059288    0.065142    0.069590
 Highest eigenvalues
    1.095760    1.141322    1.195778    1.201458    1.479795    1.891272
 

........................................................................
.............................. CYCLE    1 ..............................
........................................................................
                         * ORCA takes the control...
  ------------------------------------------------------------------------

                                 *****************
                                 * O   R   C   A *
                                 *****************

                                            #,                                       
                                            ###                                      
                                            ####                                     
                                            #####                                    
                                            ######                                   
                                           ########,                                 
                                     ,,################,,,,,                         
                               ,,#################################,,                 
                          ,,##########################################,,             
                       ,#########################################, ''#####,          
                    ,#############################################,,   '####,        
                  ,##################################################,,,,####,       
                ,###########''''           ''''###############################       
              ,#####''   ,,,,##########,,,,          '''####'''          '####       
            ,##' ,,,,###########################,,,                        '##       
           ' ,,###''''                  '''############,,,                           
         ,,##''                                '''############,,,,        ,,,,,,###''
      ,#''                                            '''#######################'''  
     '                                                          ''''####''''         
             ,#######,   #######,   ,#######,      ##                                
            ,#'     '#,  ##    ##  ,#'     '#,    #''#        ,####,   ,####,        
            ##       ##  ##   ,#'  ##            #'  '#       #'       #'  '#        
            ##       ##  #######   ##           ,######,      #####,   #    #        
            '#,     ,#'  ##    ##  '#,     ,#' ,#      #,     #,   #   #,  ,#        
             '#######'   ##     ##  '#######'  #'      '#     '####' # '####'        



                #########################################################
                #                        -***-                          #
                #          Department of theory and spectroscopy        #
                #                                                       #
                #                      Frank Neese                      #
                #                                                       #
                #     Directorship, Architecture, Infrastructure        #
                #                    SHARK, DRIVERS                     #
                #        Core code/Algorithms in most modules           #
                #                                                       #
                #        Max Planck Institute fuer Kohlenforschung      #
                #                Kaiser Wilhelm Platz 1                 #
                #                 D-45470 Muelheim/Ruhr                 #
                #                      Germany                          #
                #                                                       #
                #                  All rights reserved                  #
                #                        -***-                          #
                #########################################################


                         Program Version 6.0.1  -  RELEASE   -


 With contributions from (in alphabetic order):
[Max-Planck-Institut fuer Kohlenforschung]                               
  Daniel Aravena         : Magnetic Suceptibility                        
  Michael Atanasov       : Ab Initio Ligand Field Theory (pilot matlab implementation)
  Alexander A. Auer      : GIAO ZORA, VPT2 properties, NMR spectrum      
  Ute Becker             : All parallelization in ORCA, NUMFREQ, NUMCALC 
  Giovanni Bistoni       : ED, misc. LED, open-shell LED, HFLD           
  Martin Brehm           : Molecular dynamics                            
  Dmytro Bykov           : pre 5.0 version of the SCF Hessian            
  Marcos Casanova-Páez   : Triplet and SCS-CIS(D). UHF-(DLPNO)-IP/EA/STEOM-CCSD. UHF-CVS-IP/STEOM-CCSD   
  Vijay G. Chilkuri      : MRCI spin determinant printing, contributions to CSF-ICE 
  Pauline Colinet        : FMM embedding                                 
  Dipayan Datta          : RHF DLPNO-CCSD density                        
  Achintya Kumar Dutta   : EOM-CC, STEOM-CC                              
  Nicolas Foglia         : Exact transition moments, OPA infrastructure, MCD improvements    
  Dmitry Ganyushin       : Spin-Orbit,Spin-Spin,Magnetic field MRCI      
  Miquel Garcia-Rates    : C-PCM and meta-GGA Hessian, CCSD/C-PCM, Gaussian charge scheme 
  Tiago L. C. Gouveia    : GS-ROHF, GS-ROCIS                             
  Yang Guo               : DLPNO-NEVPT2, F12-NEVPT2, CIM, IAO-localization        
  Andreas Hansen         : Spin unrestricted coupled pair/coupled cluster methods 
  Ingolf Harden          : AUTO-CI MPn and infrastructure                
  Benjamin Helmich-Paris : MC-RPA, TRAH-(SCF,CASSCF), AVAS, COSX integrals, SCF dyn. polar. 
  Lee Huntington         : MR-EOM, pCC                                   
  Robert Izsak           : Overlap fitted RIJCOSX, COSX-SCS-MP3, EOM     
  Riya Kayal             : Wick's Theorem for AUTO-CI, AUTO-CI UHF-CCSDT 
  Emily Kempfer          : AUTO-CI, RHF CISDT and CCSDT                  
  Christian Kollmar      : KDIIS, OOCD, Brueckner-CCSD(T), CCSD density, CASPT2, CASPT2-K, improved NEVPT2 
  Axel Koslowski         : Symmetry handling                             
  Simone Kossmann        : meta-GGA functionals, TD-DFT gradient, OOMP2, (MP2 Hessian; deprecated post 5.0) 
  Lucas Lang             : DCDCAS                                        
  Marvin Lechner         : AUTO-CI (C++ implementation), FIC-MRCC        
  Spencer Leger          : CASSCF response                               
  Dagmar Lenk            : GEPOL surface, SMD, ORCA-2-JSON               
  Dimitrios Liakos       : Extrapolation schemes; Compound Job, initial MDCI parallelization 
  Dimitrios Manganas     : Further ROCIS development; embedding schemes. LFT, Crystal Embedding 
  Dimitrios Pantazis     : SARC Basis sets                               
  Anastasios Papadopoulos: AUTO-CI, single reference methods and gradients 
  Taras Petrenko         : pre 6.0 DFT Hessian and TD-DFT gradient, (ASA, deprecated), ECA, 1-Electron XAS/XES, NRVS 
  Peter Pinski           : DLPNO-MP2, DLPNO-MP2 Gradient                 
  Christoph Reimann      : Effective Core Potentials                     
  Marius Retegan         : Local ZFS, SOC                                
  Christoph Riplinger    : Optimizer, TS searches, QM/MM, DLPNO-CCSD(T), (RO)-DLPNO pert. Triples 
  Michael Roemelt        : Original ROCIS implementation                 
  Masaaki Saitow         : Open-shell DLPNO-CCSD energy and density      
  Barbara Sandhoefer     : DKH picture change effects                    
  Kantharuban Sivalingam : CASSCF convergence/infrastructure, NEVPT2 and variants, FIC-MRCI 
  Bernardo de Souza      : ESD, SOC TD-DFT                               
  Georgi L. Stoychev     : AutoAux, RI-MP2 NMR, DLPNO-MP2 response, X2C  
  Van Anh Tran           : RI-MP2 g-tensors                              
  Willem Van den Heuvel  : Paramagnetic NMR                              
  Zikuan Wang            : NOTCH, Electric field optimization            
  Frank Wennmohs         : Technical directorship and infrastructure     
  Hang Xu                : AUTO-CI-Response properties                   
                                                                         
[FACCTs GmbH]                                                            
  Markus Bursch, Miquel Garcia-Rates, Christoph Riplinger, Bernardo de Souza, Georgi L. Stoychev 
                                                                 
  APM, Basis sets (HGBS, AHGBS, def-TZVP (Ac-Lr), def2-XVPD (La-Lu)), CI-OPT, improved COSX, DLPNO-Multilevel,           
  DOCKER, DRACO, updates on ESD, GOAT, IRC, LR-CPCM, MBIS, meta-GGA TD-DFT gradient, ML-optimized integration grids, 
  MM, NACMEs, nearIR, NEB, NEB-TS, NL-DFT gradient (VV10), 2- and 3-layer-ONIOM, interface openCOSMO-RS, QMMM,   
  Crystal-QMMM, SF, symmetry and pop. for TD-DFT, r2SCAN hybrids, SOLVATOR                                   
                                                                         
[Other institutions]                                                     
  V. Asgeirsson          : NEB                                           
  Christoph Bannwarth    : sTDA-DFT, sTD-DFT, PBEh-3c, B97-3c, D3        
  Sebastian Ehlert       : rSCAN, r2SCAN, r2SCAN-3c, D4, dhf basis sets  
  Marvin Friede          : D4 for Fr, Ra, Ac-Lr                          
  Lars Goerigk           : TD-DFT with DH, B97 family of functionals     
  Stefan Grimme          : VdW corrections, initial TS optimization, DFT functionals, gCP, sTDA/sTD-DF 
  Waldemar Hujo          : DFT-NL                                        
  H. Jonsson             : NEB                                           
  Holger Kruse           : gCP                                           
  Marcel Mueller         : wB97X-3c, vDZP basis set                      
  Hagen Neugebauer       : wr2SCAN                                       
  Tobias Risthaus        : range-separated hybrid DFT                    
  Lukas Wittmann         : regularized MP2, r2SCAN double-hybrids, wr2SCAN        
                                                                         
We gratefully acknowledge several colleagues who have allowed us to      
interface, adapt or use parts of their codes:                            
  Ed Valeev, F. Pavosevic, A. Kumar             : LibInt (2-el integral package), F12 methods 
  Garnet Chan, S. Sharma, J. Yang, R. Olivares  : DMRG                   
  Ulf Ekstrom                                   : XCFun DFT Library      
  Mihaly Kallay                                 : mrcc  (arbitrary order and MRCC methods)
  Frank Weinhold                                : gennbo (NPA and NBO analysis)           
  Simon Mueller                                 : openCOSMO-RS                            
  Christopher J. Cramer and Donald G. Truhlar   : smd solvation model                     
  S Lehtola, MJT Oliveira, MAL Marques          : LibXC Library                           
  Liviu Ungur et al                             : ANISO software                          


 Your calculation uses the libint2 library for the computation of 2-el integrals
 For citations please refer to: http://libint.valeyev.net

 Your ORCA version has been built with support for libXC version: 6.2.2
 For citations please refer to: https://libxc.gitlab.io

 This ORCA versions uses:
   CBLAS   interface :  Fast vector & matrix operations
   LAPACKE interface :  Fast linear algebra routines
   SCALAPACK package :  Parallel linear algebra routines
   Shared memory     :  Shared parallel matrices
   BLAS/LAPACK       :  OpenBLAS 0.3.27  USE64BITINT DYNAMIC_ARCH NO_AFFINITY Zen SINGLE_THREADED
        Core in use  :  Zen
   Copyright (c) 2011-2014, The OpenBLAS Project




***************************************
The coordinates will be read from file: xtb_opt.xyz
***************************************


Your calculation utilizes the geometrical counterpoise correction gCP
Please cite in your paper:
H.Kruse, S. Grimme J.Chem.Phys., 136, (2012), 154101 
   

Your calculation utilizes the atom-pairwise dispersion correction
based on EEQ partial charges (D4)


================================================================================

----- Orbital basis set information -----
Your calculation utilizes the basis: def2-mTZVPP
   Stefan Grimme, Andreas Hansen, Sebastian Ehlert, and Jan-Michael Mewes 
   J. Chem. Phys. 154, 064103 (2021). DOI: 10.1063/5.0040021

----- AuxJ basis set information -----
Your calculation utilizes the auxiliary basis: def2/J
   F. Weigend, Phys. Chem. Chem. Phys. 8, 1057 (2006).

================================================================================
                                        WARNINGS
                       Please study these warnings very carefully!
================================================================================

WARNING: Old DensityContainer found on disk!
         Will remove this file - 
         If you want to keep old densities, please start your calculation with a different basename. 



WARNING: SCAN, rSCAN, or r2SCAN functional requested.
  ===> : libXC variant has now been activated.



================================================================================
                                       INPUT FILE
================================================================================
NAME = xtb_opt.inp
|  1> ! r2scan-3c def2/J RI DEFGRID2 scfconv7 ENGRAD tightSCF miniprint
|  2> * xyzfile 0 1 xtb_opt.xyz
|  3> 
|  4>                          ****END OF INPUT****
================================================================================

                     *******************************
                     * Energy+Gradient Calculation *
                     *******************************

---------------------------------
CARTESIAN COORDINATES (ANGSTROEM)
---------------------------------
  C     -2.208158    0.296699    0.287799
  C     -1.008100    0.177823   -0.663363
  C      0.002626   -0.803915   -0.152402
  C      1.266996   -0.575007    0.211375
  C      2.014531    0.720289    0.168941
  H     -2.967677    0.972319   -0.117848
  H     -1.891912    0.678462    1.262935
  H     -2.676760   -0.679683    0.448520
  H     -1.368982   -0.157901   -1.645486
  H     -0.562104    1.165145   -0.817120
  H     -0.370426   -1.823293   -0.047010
  H      1.839963   -1.423812    0.584072
  H      2.947454    0.608004   -0.400172
  H      2.307081    1.036813    1.181651
  H      1.439235    1.532999   -0.282236

----------------------------
CARTESIAN COORDINATES (A.U.)
----------------------------
  NO LB      ZA    FRAG     MASS         X           Y           Z
   0 C     6.0000    0    12.011   -4.172814    0.560681    0.543861
   1 C     6.0000    0    12.011   -1.905032    0.336036   -1.253575
   2 C     6.0000    0    12.011    0.004963   -1.519179   -0.287998
   3 C     6.0000    0    12.011    2.394275   -1.086605    0.399441
   4 C     6.0000    0    12.011    3.806913    1.361149    0.319252
   5 H     1.0000    0     1.008   -5.608098    1.837418   -0.222701
   6 H     1.0000    0     1.008   -3.575196    1.282108    2.386602
   7 H     1.0000    0     1.008   -5.058343   -1.284415    0.847579
   8 H     1.0000    0     1.008   -2.587001   -0.298389   -3.109517
   9 H     1.0000    0     1.008   -1.062223    2.201806   -1.544133
  10 H     1.0000    0     1.008   -0.700004   -3.445524   -0.088835
  11 H     1.0000    0     1.008    3.477025   -2.690615    1.103737
  12 H     1.0000    0     1.008    5.569881    1.148961   -0.756216
  13 H     1.0000    0     1.008    4.359751    1.959292    2.232996
  14 H     1.0000    0     1.008    2.719760    2.896949   -0.533348

------------------------------------------------------------------------------
                   ___                                                        
                  /   \      - P O W E R E D   B Y -                         
                 /     \                                                     
                 |  |  |   _    _      __       _____    __    __             
                 |  |  |  | |  | |    /  \     |  _  \  |  |  /  |          
                  \  \/   | |  | |   /    \    | | | |  |  | /  /          
                 / \  \   | |__| |  /  /\  \   | |_| |  |  |/  /          
                |  |  |   |  __  | /  /__\  \  |    /   |      \           
                |  |  |   | |  | | |   __   |  |    \   |  |\   \          
                \     /   | |  | | |  |  |  |  | |\  \  |  | \   \       
                 \___/    |_|  |_| |__|  |__|  |_| \__\ |__|  \__/        
                                                                              
                      - O R C A' S   B I G   F R I E N D -                    
                                      &                                       
                       - I N T E G R A L  F E E D E R -                       
                                                                              
 v1 FN, 2020, v2 2021, v3 2022-2024                                           
------------------------------------------------------------------------------


----------------------
SHARK INTEGRAL PACKAGE
----------------------

Number of atoms                             ...     15
Number of basis functions                   ...    145
Number of shells                            ...     75
Maximum angular momentum                    ...      2
Integral batch strategy                     ... SHARK/LIBINT Hybrid
RI-J (if used) integral strategy            ... SPLIT-RIJ (Revised 2003 algorithm where possible)
Printlevel                                  ...      1
Contraction scheme used                     ... SEGMENTED contraction
Prescreening option                         ... SCHWARTZ
   Thresh                                   ... 3.000e-11
   Tcut                                     ... 1.000e-12
   Tpresel                                  ... 1.000e-12 
Coulomb Range Separation                    ... NOT USED
Exchange Range Separation                   ... NOT USED
Multipole approximations                    ... NOT USED
Finite Nucleus Model                        ... NOT USED
CABS basis                                  ... NOT available
Auxiliary Coulomb fitting basis             ... AVAILABLE
   # of basis functions in Aux-J            ...    355
   # of shells in Aux-J                     ...    125
   Maximum angular momentum in Aux-J        ...      4
Auxiliary J/K fitting basis                 ... NOT available
Auxiliary Correlation fitting basis         ... NOT available
Auxiliary 'external' fitting basis          ... NOT available

Checking pre-screening integrals            ... done (  0.0 sec) Dimension = 75
Check shell pair data                       ... done (  0.0 sec)
Shell pair information
Shell pair cut-off parameter TPreSel        ...   1.0e-12
Total number of shell pairs                 ...      2850
Shell pairs after pre-screening             ...      2691
Total number of primitive shell pairs       ...     10010
Primitive shell pairs kept                  ...      7138
          la=0 lb=0:    969 shell pairs
          la=1 lb=0:   1062 shell pairs
          la=1 lb=1:    308 shell pairs
          la=2 lb=0:    216 shell pairs
          la=2 lb=1:    121 shell pairs
          la=2 lb=2:     15 shell pairs

Calculating one electron integrals          ... done (  0.0 sec)
Calculating RI/J V-Matrix + Cholesky decomp.... done (  0.0 sec)
Calculating Nuclear repulsion               ... done (  0.0 sec) ENN=    171.357270047268 Eh

Diagonalization of the overlap matrix:
Smallest eigenvalue                        ... 2.349e-04
Time for diagonalization                   ...    0.002 sec
Threshold for overlap eigenvalues          ... 1.000e-07
Number of eigenvalues below threshold      ... 0
Time for construction of square roots      ...    0.005 sec
Total time needed                          ...    0.010 sec

-------------------
DFT GRID GENERATION
-------------------

General Integration Accuracy     IntAcc      ... 4.388
Radial Grid Type                 RadialGrid  ... OptM3 with GC (2021)
Angular Grid (max. ang.)         AngularGrid ... 4 (Lebedev-302)
Angular grid pruning method      GridPruning ... 4 (adaptive)
Weight generation scheme         WeightScheme... mBecke (2022)
Basis function cutoff            BFCut       ... 1.0000e-11
Integration weight cutoff        WCut        ... 1.0000e-14
Partially contracted basis set               ... off
Rotationally invariant grid construction     ... off
Angular grids for H and He will be reduced by one unit

Total number of grid points                  ...    62444
Total number of batches                      ...      983
Average number of points per batch           ...       63
Average number of grid points per atom       ...     4163
Initializing property integral containers    ... done (  0.0 sec)

SHARK setup successfully completed in   0.5 seconds

Maximum memory used throughout the entire STARTUP-calculation: 26.2 MB
Occupation numbers will be reassigned to an Aufbau configuration
             **** ENERGY FILE WAS UPDATED (xtb_opt.en.tmp) ****
Finished Guess after   0.2 sec
Maximum memory used throughout the entire GUESS-calculation: 10.4 MB
----------------------------------------D-I-I-S--------------------------------------------
Iteration    Energy (Eh)           Delta-E    RMSDP     MaxDP     DIISErr   Damp  Time(sec)
-------------------------------------------------------------------------------------------
               ***  Starting incremental Fock matrix formation  ***
    1    -196.4639501420805630     0.00e+00  4.18e-05  9.62e-04  4.68e-03  0.700   0.9
                              *** Initializing SOSCF ***
---------------------------------------S-O-S-C-F--------------------------------------
Iteration    Energy (Eh)           Delta-E    RMSDP     MaxDP     MaxGrad    Time(sec)
--------------------------------------------------------------------------------------
    2    -196.4639783660232126    -2.82e-05  1.18e-04  2.35e-03  3.04e-03     0.8
               *** Restarting incremental Fock matrix formation ***
    3    -196.4640297356766894    -5.14e-05  6.81e-05  1.56e-03  4.30e-04     1.4
    4    -196.4640247452635151     4.99e-06  4.17e-05  7.99e-04  5.99e-04     0.8
    5    -196.4640358538211160    -1.11e-05  1.97e-05  4.17e-04  2.35e-04     0.8
    6    -196.4640347401947622     1.11e-06  1.31e-05  2.76e-04  4.42e-04     0.8
    7    -196.4640362167785668    -1.48e-06  1.53e-06  2.84e-05  7.23e-06     0.8
                  *** Gradient check signals convergence ***

               *****************************************************
               *                     SUCCESS                       *
               *           SCF CONVERGED AFTER   7 CYCLES          *
               *****************************************************

             **** ENERGY FILE WAS UPDATED (xtb_opt.en.tmp) ****

----------------
TOTAL SCF ENERGY
----------------

Total Energy       :       -196.46403621677857 Eh           -5346.05821 eV

Components:
Nuclear Repulsion  :        171.35727004726826 Eh            4662.86837 eV
Electronic Energy  :       -367.82130626404683 Eh          -10008.92659 eV
One Electron Energy:       -601.92903319865695 Eh          -16379.32170 eV
Two Electron Energy:        234.10772693461013 Eh            6370.39511 eV

Virial components:
Potential Energy   :       -391.88693759665125 Eh          -10663.78571 eV
Kinetic Energy     :        195.42290137987268 Eh            5317.72749 eV
Virial Ratio       :          2.00532759891269

DFT components:
N(Alpha)           :       19.999982134195 electrons
N(Beta)            :       19.999982134195 electrons
N(Total)           :       39.999964268390 electrons
E(X)               :      -29.525876594915 Eh       
E(C)               :       -1.222878016010 Eh       
E(XC)              :      -30.748754610925 Eh       

---------------
SCF CONVERGENCE
---------------

  Last Energy change         ...    1.4766e-06  Tolerance :   1.0000e-07
  Last MAX-Density change    ...    2.8428e-05  Tolerance :   1.0000e-07
  Last RMS-Density change    ...    1.5322e-06  Tolerance :   5.0000e-09
  Last DIIS Error            ...    3.0386e-03  Tolerance :   1.0000e-07
  Last Orbital Gradient      ...    7.2279e-06  Tolerance :   1.0000e-04
  Last Orbital Rotation      ...    1.2655e-05  Tolerance :   1.0000e-04


----------------
ORBITAL ENERGIES
----------------

  NO   OCC          E(Eh)            E(eV) 
   0   2.0000     -10.030692      -272.9490 
   1   2.0000     -10.027275      -272.8560 
   2   2.0000     -10.025664      -272.8122 
   3   2.0000     -10.023782      -272.7610 
   4   2.0000     -10.020797      -272.6798 
   5   2.0000      -0.769091       -20.9280 
   6   2.0000      -0.716190       -19.4885 
   7   2.0000      -0.646729       -17.5984 
   8   2.0000      -0.582617       -15.8538 
   9   2.0000      -0.492114       -13.3911 
  10   2.0000      -0.446568       -12.1517 
  11   2.0000      -0.402238       -10.9455 
  12   2.0000      -0.393599       -10.7104 
  13   2.0000      -0.376858       -10.2548 
  14   2.0000      -0.350300        -9.5321 
  15   2.0000      -0.338017        -9.1979 
  16   2.0000      -0.334512        -9.1025 
  17   2.0000      -0.307249        -8.3607 
  18   2.0000      -0.290679        -7.9098 
  19   2.0000      -0.218081        -5.9343 
  20   0.0000      -0.001103        -0.0300 
  21   0.0000       0.089479         2.4348 
  22   0.0000       0.119505         3.2519 
  23   0.0000       0.122576         3.3355 
  24   0.0000       0.138559         3.7704 
  25   0.0000       0.147077         4.0022 
  26   0.0000       0.157369         4.2822 
  27   0.0000       0.166663         4.5351 
  28   0.0000       0.177388         4.8270 
  29   0.0000       0.185012         5.0344 
  30   0.0000       0.192690         5.2434 
*Only the first 10 virtual orbitals were printed.
Total SCF time: 0 days 0 hours 0 min 6 sec 
Finished LeanSCF after   6.7 sec

Maximum memory used throughout the entire LEANSCF-calculation: 15.9 MB


-------------------------------------------------------------------------------
                          DFT DISPERSION CORRECTION                            
                                                                               
                                DFTD4 V3.4.0                                   
-------------------------------------------------------------------------------
-------------------------   ----------------
Dispersion correction           -0.003238774
-------------------------   ----------------

------------------   -----------------
gCP correction             0.006152043
------------------   -----------------

-------------------------   --------------------
FINAL SINGLE POINT ENERGY      -196.461122948409
-------------------------   --------------------

------------------------------------------------------------------------------
                         ORCA SCF GRADIENT CALCULATION
------------------------------------------------------------------------------

Nuc. rep. gradient        (SHARK) ... done (  0.0 sec)
HCore & Overlap gradient  (SHARK) ... done (  0.1 sec)
Split-RIJ-J gradient      (SHARK) ... done (  0.5 sec)
XC gradient                       ... done (  2.6 sec)
Dispersion correction             ... done (  0.0 sec)

-------------------
DISPERSION GRADIENT
-------------------

   1   C   :   -0.000076650    0.000009374    0.000010689
   2   C   :   -0.000043179    0.000005667   -0.000026016
   3   C   :   -0.000001042   -0.000035289   -0.000007770
   4   C   :    0.000061974   -0.000024321    0.000007587
   5   C   :    0.000074753    0.000029452    0.000007018
   6   H   :   -0.000027884    0.000009468    0.000002023
   7   H   :   -0.000035763    0.000008092    0.000012182
   8   H   :   -0.000028113    0.000000147    0.000004795
   9   H   :   -0.000021604   -0.000002376   -0.000017516
  10   H   :   -0.000015928    0.000007509   -0.000010257
  11   H   :   -0.000002284   -0.000026610   -0.000002029
  12   H   :    0.000023829   -0.000017272    0.000007485
  13   H   :    0.000028896    0.000008434    0.000000895
  14   H   :    0.000030967    0.000011687    0.000010923
  15   H   :    0.000032029    0.000016037   -0.000000009

Difference to translation invariance:
           :    0.0000000000   -0.0000000000    0.0000000000

Difference to rotation invariance:
           :    0.0000000000    0.0000000000   -0.0000000000

Norm of the Dispersion gradient    ...    0.0001742654
RMS gradient                       ...    0.0000259780
MAX gradient                       ...    0.0000766501
gCP correction                   ... done

------------------
CARTESIAN GRADIENT
------------------

   1   C   :   -0.000083773   -0.000139085    0.000482411
   2   C   :    0.000032955   -0.000061281   -0.000231151
   3   C   :    0.000232458    0.000050790    0.000009696
   4   C   :   -0.000207082    0.000052204    0.000187696
   5   C   :   -0.001391043   -0.001688639   -0.000934542
   6   H   :   -0.000043024   -0.000030445   -0.000078906
   7   H   :   -0.000076194   -0.000004166   -0.000092329
   8   H   :    0.000005259    0.000041747    0.000008629
   9   H   :   -0.000228404    0.000023324   -0.000116797
  10   H   :   -0.000159921    0.000265484   -0.000099966
  11   H   :    0.000028650    0.000005791   -0.000142965
  12   H   :    0.000116833   -0.000091988   -0.000021625
  13   H   :    0.001385628   -0.000219322   -0.000425684
  14   H   :    0.000724953    0.000941562    0.001854109
  15   H   :   -0.000337297    0.000854025   -0.000398576

Difference to translation invariance:
           :   -0.0000000000    0.0000000000   -0.0000000000

Difference to rotation invariance:
           :    0.0000532691   -0.0001236396   -0.0001891302

Norm of the Cartesian gradient     ...    0.0037891064
RMS gradient                       ...    0.0005648466
MAX gradient                       ...    0.0018541086

-------
TIMINGS
-------

Total SCF gradient time     ....        3.281 sec

Densities                   ....       0.000 sec  (  0.0%)
One electron gradient       ....       0.098 sec  (  3.0%)
RI-J Coulomb gradient       ....       0.539 sec  ( 16.4%)
XC gradient                 ....       2.594 sec  ( 79.1%)

Maximum memory used throughout the entire SCFGRAD-calculation: 30.4 MB

------------------------------------------------------------------------------
                              ORCA PROPERTY CALCULATIONS
------------------------------------------------------------------------------

GBWName                                 ... xtb_opt.gbw
Number of atoms                         ...     15
Number of basis functions               ...    145
Max core memory                         ...   1024 MB

Electric properties:
Dipole moment                           ... YES
Quadrupole moment                       ...  NO
Static polarizability (Dipole/Dipole)   ...  NO
Static polarizability (Dipole/Quad.)    ...  NO
Static polarizability (Quad./Quad.)     ...  NO
Static polarizability (Velocity)        ...  NO

Atomic electric properties:
Dipole moment                           ...  NO
Quadrupole moment                       ...  NO
Static polarizability                   ...  NO

Choice of electric origin               ... Center of mass
Position of electric origin             ...    -0.013447    -0.007733    -0.043239

General magnetic properties:
Magnetizability                         ...  NO

EPR properties:
g-Tensor (aka g-matrix)                 ...  NO
Zero-Field splitting spin-orbit         ...  NO
Zero-field splitting spin-spin          ...  NO
Hyperfine couplings                     ...  NO (   0 nuclei)
Quadrupole couplings                    ...  NO (   0 nuclei)
Contact density                         ...  NO (   0 nuclei)

NMR properties:
Chemical shifts                         ...  NO (   0 nuclei)
Spin-rotation constants                 ...  NO (   0 nuclei)
Spin-spin couplings                     ...  NO (   0 nuclei,    0 pairs)

Choice of magnetic origin               ... GIAO
Position of magnetic origin             ...     0.000000     0.000000     0.000000

Properties with geometric perturbations:
SCF Hessian                             ...  NO
IR spectrum                             ...  NO
VCD spectrum                            ...  NO
X-ray spectroscopy properties:
SCF XES/XAS/RIXS spectra                ...  NO


-------------
DIPOLE MOMENT
-------------

Method             : SCF
Type of density    : Electron Density
Multiplicity       :   1
Irrep              :   0
Energy             :  -196.4640362167785668 Eh
Relativity type    : 
Basis              : AO
                                X                 Y                 Z
Electronic contribution:      1.157539862      -1.713809006      -0.380991989
Nuclear contribution   :     -1.156744985       1.829423554       0.371630000
                        -----------------------------------------
Total Dipole Moment    :      0.000794877       0.115614548      -0.009361989
                        -----------------------------------------
Magnitude (a.u.)       :      0.115995700
Magnitude (Debye)      :      0.294837639



--------------------
Rotational spectrum 
--------------------
 
Rotational constants in cm-1:             0.366562             0.086416             0.079174 
Rotational constants in MHz :         10989.238795          2590.696205          2373.574279 

Dipole components along the rotational axes: 
x,y,z [a.u.] :     0.000524    -0.115230    -0.013292 
x,y,z [Debye]:     0.001332    -0.292892    -0.033786 

 

Dipole moment calculation done in   0.9 sec 

Maximum memory used throughout the entire PROP-calculation: 8.6 MB

--------------------------------
SUGGESTED CITATIONS FOR THIS RUN
--------------------------------

Below you find a list of papers that are relevant to this ORCA run
We neither can nor want to force you to cite these papers, but we appreciate if you do
[...]
--------------------------------------------------------------------------------------
    1    -196.4641270702232987     0.00e+00  4.29e-07  6.51e-06  1.82e-06     0.9
               *** Restarting incremental Fock matrix formation ***
    2    -196.4641270704259455    -2.03e-10  3.77e-07  6.47e-06  2.54e-06     1.0
                  *** Gradient check signals convergence ***

               *****************************************************
               *                     SUCCESS                       *
               *           SCF CONVERGED AFTER   2 CYCLES          *
               *****************************************************

             **** ENERGY FILE WAS UPDATED (xtb_opt.en.tmp) ****

----------------
TOTAL SCF ENERGY
----------------

Total Energy       :       -196.46412707042595 Eh           -5346.06069 eV

Components:
Nuclear Repulsion  :        171.45968184497463 Eh            4665.65514 eV
Electronic Energy  :       -367.92380891540057 Eh          -10011.71583 eV
One Electron Energy:       -602.13156899975968 Eh          -16384.83298 eV
Two Electron Energy:        234.20776008435911 Eh            6373.11715 eV

Virial components:
Potential Energy   :       -391.89943505126109 Eh          -10664.12578 eV
Kinetic Energy     :        195.43530798083512 Eh            5318.06510 eV
Virial Ratio       :          2.00526424370407

DFT components:
N(Alpha)           :       19.999991830138 electrons
N(Beta)            :       19.999991830138 electrons
N(Total)           :       39.999983660277 electrons
E(X)               :      -29.529130953097 Eh       
E(C)               :       -1.223059738502 Eh       
E(XC)              :      -30.752190691599 Eh       

---------------
SCF CONVERGENCE
---------------

  Last Energy change         ...    2.0265e-10  Tolerance :   1.0000e-07
  Last MAX-Density change    ...    6.4691e-06  Tolerance :   1.0000e-07
  Last RMS-Density change    ...    3.7749e-07  Tolerance :   5.0000e-09
  Last DIIS Error            ...    9.1749e-06  Tolerance :   1.0000e-07
  Last Orbital Gradient      ...    2.5381e-06  Tolerance :   1.0000e-04
  Last Orbital Rotation      ...    1.1688e-05  Tolerance :   1.0000e-04


----------------
ORBITAL ENERGIES
----------------

  NO   OCC          E(Eh)            E(eV) 
   0   2.0000     -10.030377      -272.9404 
   1   2.0000     -10.027199      -272.8540 
   2   2.0000     -10.024950      -272.7928 
   3   2.0000     -10.023669      -272.7579 
   4   2.0000     -10.020658      -272.6760 
   5   2.0000      -0.769286       -20.9333 
   6   2.0000      -0.716235       -19.4898 
   7   2.0000      -0.647011       -17.6061 
   8   2.0000      -0.582661       -15.8550 
   9   2.0000      -0.492021       -13.3886 
  10   2.0000      -0.446857       -12.1596 
  11   2.0000      -0.402123       -10.9423 
  12   2.0000      -0.393596       -10.7103 
  13   2.0000      -0.377453       -10.2710 
  14   2.0000      -0.350699        -9.5430 
  15   2.0000      -0.338167        -9.2020 
  16   2.0000      -0.334544        -9.1034 
  17   2.0000      -0.307044        -8.3551 
  18   2.0000      -0.290551        -7.9063 
  19   2.0000      -0.218118        -5.9353 
  20   0.0000      -0.000965        -0.0263 
  21   0.0000       0.090007         2.4492 
  22   0.0000       0.118998         3.2381 
  23   0.0000       0.123365         3.3569 
  24   0.0000       0.139017         3.7829 
  25   0.0000       0.147244         4.0067 
  26   0.0000       0.157792         4.2937 
  27   0.0000       0.167093         4.5468 
  28   0.0000       0.177671         4.8347 
  29   0.0000       0.183809         5.0017 
  30   0.0000       0.192571         5.2401 
*Only the first 10 virtual orbitals were printed.
Total SCF time: 0 days 0 hours 0 min 2 sec 
Finished LeanSCF after   2.6 sec

Maximum memory used throughout the entire LEANSCF-calculation: 15.8 MB


-------------------------------------------------------------------------------
                          DFT DISPERSION CORRECTION                            
                                                                               
                                DFTD4 V3.4.0                                   
-------------------------------------------------------------------------------
-------------------------   ----------------
Dispersion correction           -0.003241627
-------------------------   ----------------

------------------   -----------------
gCP correction             0.006169946
------------------   -----------------

-------------------------   --------------------
FINAL SINGLE POINT ENERGY      -196.461198751511
-------------------------   --------------------

------------------------------------------------------------------------------
                         ORCA SCF GRADIENT CALCULATION
------------------------------------------------------------------------------

Nuc. rep. gradient        (SHARK) ... done (  0.0 sec)
HCore & Overlap gradient  (SHARK) ... done (  0.1 sec)
Split-RIJ-J gradient      (SHARK) ... done (  0.5 sec)
XC gradient                       ... done (  2.6 sec)
Dispersion correction             ... done (  0.0 sec)

-------------------
DISPERSION GRADIENT
-------------------

   1   C   :   -0.000076758    0.000009676    0.000010158
   2   C   :   -0.000042833    0.000005382   -0.000026009
   3   C   :   -0.000000808   -0.000035499   -0.000007250
   4   C   :    0.000061878   -0.000024234    0.000008017
   5   C   :    0.000074399    0.000029650    0.000006893
   6   H   :   -0.000028092    0.000009618    0.000001746
   7   H   :   -0.000035774    0.000008092    0.000011918
   8   H   :   -0.000028158    0.000000278    0.000004557
   9   H   :   -0.000021592   -0.000002677   -0.000017621
  10   H   :   -0.000015725    0.000007269   -0.000010231
  11   H   :   -0.000002216   -0.000026786   -0.000001694
  12   H   :    0.000023760   -0.000017167    0.000007697
  13   H   :    0.000029442    0.000008825    0.000000382
  14   H   :    0.000030380    0.000011262    0.000010720
  15   H   :    0.000032096    0.000016311    0.000000718

Difference to translation invariance:
           :   -0.0000000000    0.0000000000    0.0000000000

Difference to rotation invariance:
           :    0.0000000000    0.0000000000    0.0000000000

Norm of the Dispersion gradient    ...    0.0001740943
RMS gradient                       ...    0.0000259524
MAX gradient                       ...    0.0000767582
gCP correction                   ... done

------------------
CARTESIAN GRADIENT
------------------

   1   C   :   -0.000057202    0.000032568    0.000041520
   2   C   :    0.000007195   -0.000019473    0.000025416
   3   C   :    0.000075341   -0.000002509   -0.000107821
   4   C   :    0.000029481    0.000057045    0.000036026
   5   C   :   -0.000135277   -0.000149688    0.000012210
   6   H   :    0.000019870    0.000035805    0.000025515
   7   H   :   -0.000003005   -0.000040267    0.000004106
   8   H   :   -0.000017714    0.000035069   -0.000049211
   9   H   :   -0.000008098   -0.000042401    0.000016504
  10   H   :   -0.000031388    0.000004154   -0.000020003
  11   H   :    0.000000063   -0.000002075    0.000012390
  12   H   :    0.000007397   -0.000004792   -0.000000239
  13   H   :    0.000107511   -0.000027646   -0.000062204
  14   H   :    0.000038203    0.000040120    0.000101255
  15   H   :   -0.000032375    0.000084088   -0.000035466

Difference to translation invariance:
           :   -0.0000000000   -0.0000000000    0.0000000000

Difference to rotation invariance:
           :    0.0000622265   -0.0000350281   -0.0001389793

Norm of the Cartesian gradient     ...    0.0003483148
RMS gradient                       ...    0.0000519237
MAX gradient                       ...    0.0001496879

-------
TIMINGS
-------

Total SCF gradient time     ....        3.262 sec

Densities                   ....       0.000 sec  (  0.0%)
One electron gradient       ....       0.098 sec  (  3.0%)
RI-J Coulomb gradient       ....       0.538 sec  ( 16.5%)
XC gradient                 ....       2.578 sec  ( 79.0%)

Maximum memory used throughout the entire SCFGRAD-calculation: 30.4 MB

------------------------------------------------------------------------------
                              ORCA PROPERTY CALCULATIONS
------------------------------------------------------------------------------

GBWName                                 ... xtb_opt.gbw
Number of atoms                         ...     15
Number of basis functions               ...    145
Max core memory                         ...   1024 MB

Electric properties:
Dipole moment                           ... YES
Quadrupole moment                       ...  NO
Static polarizability (Dipole/Dipole)   ...  NO
Static polarizability (Dipole/Quad.)    ...  NO
Static polarizability (Quad./Quad.)     ...  NO
Static polarizability (Velocity)        ...  NO

Atomic electric properties:
Dipole moment                           ...  NO
Quadrupole moment                       ...  NO
Static polarizability                   ...  NO

Choice of electric origin               ... Center of mass
Position of electric origin             ...    -0.012687    -0.009881    -0.038033

General magnetic properties:
Magnetizability                         ...  NO

EPR properties:
g-Tensor (aka g-matrix)                 ...  NO
Zero-Field splitting spin-orbit         ...  NO
Zero-field splitting spin-spin          ...  NO
Hyperfine couplings                     ...  NO (   0 nuclei)
Quadrupole couplings                    ...  NO (   0 nuclei)
Contact density                         ...  NO (   0 nuclei)

NMR properties:
Chemical shifts                         ...  NO (   0 nuclei)
Spin-rotation constants                 ...  NO (   0 nuclei)
Spin-spin couplings                     ...  NO (   0 nuclei,    0 pairs)

Choice of magnetic origin               ... GIAO
Position of magnetic origin             ...     0.000000     0.000000     0.000000

Properties with geometric perturbations:
SCF Hessian                             ...  NO
IR spectrum                             ...  NO
VCD spectrum                            ...  NO
X-ray spectroscopy properties:
SCF XES/XAS/RIXS spectra                ...  NO


-------------
DIPOLE MOMENT
-------------

Method             : SCF
Type of density    : Electron Density
Multiplicity       :   1
Irrep              :   0
Energy             :  -196.4641270704259455 Eh
Relativity type    : 
Basis              : AO
                                X                 Y                 Z
Electronic contribution:      1.166920397      -1.732384251      -0.346100340
Nuclear contribution   :     -1.162921977       1.846884081       0.329311759
                        -----------------------------------------
Total Dipole Moment    :      0.003998420       0.114499830      -0.016788581
                        -----------------------------------------
Magnitude (a.u.)       :      0.115793156
Magnitude (Debye)      :      0.294322811



--------------------
Rotational spectrum 
--------------------
 
Rotational constants in cm-1:             0.365772             0.086705             0.079274 
Rotational constants in MHz :         10965.563424          2599.336194          2376.589047 

Dipole components along the rotational axes: 
x,y,z [a.u.] :     0.003173    -0.114013    -0.019974 
x,y,z [Debye]:     0.008064    -0.289799    -0.050771 

 

Dipole moment calculation done in   1.3 sec 

Maximum memory used throughout the entire PROP-calculation: 8.6 MB

--------------------------------
SUGGESTED CITATIONS FOR THIS RUN
--------------------------------

Below you find a list of papers that are relevant to this ORCA run
We neither can nor want to force you to cite these papers, but we appreciate if you do
You receive ORCA, which is the product of decades of hard work by many enthusiastic individuals, for free
The only thing we kindly ask in return is that you cite our papers,
We deeply appreciate it, if you show your appreciation for ORCA by not just citing the generic ORCA reference.

Please note that relegating all ORCA citations to the supporting information does *not* help us.
SI sections are not indexed - citations you put there will not count into any citation statistics
But we need these citations in order to attract the funding resources that allow us to do what we are doing

Therefore, if you are a happy ORCA user, please consider citing a few of the papers listed below in the main body of your paper

In addition to the list printed below, the program has created the file xtb_opt.bibtex that contains the list in bibtex format
You can import this file easily into all common literature databanks and citation aid programs


List of essential papers. We consider these as the minimum necessary citations

  1. Neese,F.
     Software update: the ORCA program system, version 5.0
     WIRES Comput. Molec. Sci., 2022 12(1)e1606
     doi.org/10.1002/wcms.1606
  2. Grimme,S.; Hansen,A.; Ehlert,S.; Mewes,J.
     r2SCAN-3c: A 'Swiss army knife' composite electronic-structure method
     J. Chem. Phys., 2021 154 064103
     doi.org/10.1063/5.0040021

List of papers to cite with high priority. The work reported in these papers was absolutely
necessary for this run to complete.
Our perspective: the developers of density functionals and basis sets usually get cited in chemistry papers
Good! But without the algorithms to do something with them, the functionals or basis sets would not do anything.
Hence, in our opinion, the algorithm design and method developments papers are equally worthy of getting cited

  1. Neese,F.
     An improvement of the resolution of the identity approximation for the formation of the Coulomb matrix
     J. Comp. Chem., 2003 24(14)1740-1747
     doi.org/10.1002/jcc.10318
  2. Neese,F.
     The SHARK Integral Generation and Digestion System
     J. Comp. Chem., 2022  1-16
     doi.org/10.1002/jcc.26942
  3. Lehtola,S.; Steigemann,C.; Oliveira,M.; Marques,M.
     Recent developments in Libxc - A comprehensive library of functionals for density functional theory
     Software X, 2018 7 
     doi.org/10.1016/j.softx.2017.11.002
  4. Caldeweyher,E.; Bannwarth,C.; Grimme,S.
     Extension of the D3 dispersion coefficient model
     J. Chem. Phys., 2017 147 034112
     doi.org/10.1063/1.4993215
  5. Caldeweyher,E.; Ehlert,S.; Hansen,A.; Neugebauer,H.; Spicher,S.; Bannwarth,C.; Grimme,S.
     A generally applicable atomic-charge dependent London dispersion correction
     J. Chem. Phys., 2019 150 154122
     doi.org/10.1063/1.5090222
  6. Caldeweyher,E.; Mewes,J.; Ehlert,S.; Grimme,S.
     Extension and evaluation of the D4 London-dispersion model for periodic systems
     Phys. Chem. Chem. Phys., 2020 22(16)8499-8512
     doi.org/10.1039/D0CP00502A
  7. Wittmann,L.; Gordiy,I.; Friede,M.; Helmich-Paris,B.; Grimme,S.; Hansen,A.; Bursch,M.
     Extension of the D3 and D4 London Dispersion Corrections to the full Actinides Series
     Phys. Chem. Chem. Phys., 2024 26(32)21379-21394
     doi.org/https://doi.org/10.1039/D4CP01514B 

List of suggested additional citations. These are papers that are important in the 'surrounding' of 
of this run, or papers that preceded the highly important papers. If you like your results we are grateful for a citation.

  1. Neese,F.
     The ORCA program system
     WIRES Comput. Molec. Sci., 2012 2(1)73-78
     doi.org/10.1002/wcms.81
  2. Neese,F.
     Software update: the ORCA program system, version 4.0
     WIRES Comput. Molec. Sci., 2018 8(1)1-6
     doi.org/10.1002/wcms.1327
  3. Neese,F.; Wennmohs,F.; Becker,U.; Riplinger,C.
     The ORCA quantum chemistry program package
     J. Chem. Phys., 2020 152 Art. No. L224108
     doi.org/10.1063/5.0004608

List of optional additional citations

  1. Neese,F.
     Approximate second-order SCF convergence for spin unrestricted wavefunctions
     Chem. Phys. Lett., 2000 325(1-3)93-98
     doi.org/10.1016/s0009-2614(00)00662-x

Timings for individual modules:

Sum of individual times          ...        8.243 sec (=   0.137 min)
Startup calculation              ...        0.548 sec (=   0.009 min)   6.6 %
SCF iterations                   ...        2.757 sec (=   0.046 min)  33.4 %
Property calculations            ...        1.333 sec (=   0.022 min)  16.2 %
SCF Gradient evaluation          ...        3.606 sec (=   0.060 min)  43.7 %
                             ****ORCA TERMINATED NORMALLY****
TOTAL RUN TIME: 0 days 0 hours 0 minutes 9 seconds 148 msec
  ------------------------------------------------------------------------
          * successful ORCA run, taking over control again...

         :::::::::::::::::::::::::::::::::::::::::::::::::::::
         ::                  ORCA SUMMARY                   ::
         :::::::::::::::::::::::::::::::::::::::::::::::::::::
         :: total energy            -196.461198751511 Eh    ::
         :: gradient norm              0.000348314795 Eh/a0 ::
         :: HOMO-LUMO gap              0.000000000000 eV    ::
         :::::::::::::::::::::::::::::::::::::::::::::::::::::

           -------------------------------------------------
          |                Property Printout                |
           -------------------------------------------------
           -------------------------------------------------
          |                Geometry Summary                 |
           -------------------------------------------------

      molecular mass/u    :       70.1330870
   center of mass at/Å    :       -0.0067130      -0.0052299      -0.0201264
  moments of inertia/u·Å² :        0.4608614E+02   0.1944203E+03   0.2126425E+03
rotational constants/cm⁻¹ :        0.3657853E+00   0.8670715E-01   0.7927689E-01

 * 12 selected distances

     #   Z          #   Z                                           value/Å
     1   6 C        2   6 C                                       1.5349060 (max)
     3   6 C        4   6 C                                       1.3354468
     1   6 C        6   1 H                                       1.0943766
     1   6 C        7   1 H                                       1.0941280
     1   6 C        8   1 H                                       1.0949083
     2   6 C        9   1 H                                       1.0986874
     2   6 C       10   1 H                                       1.0938828
     3   6 C       11   1 H                                       1.0905774
     4   6 C       12   1 H                                       1.0896143 (min)
     5   6 C       13   1 H                                       1.0969571
     5   6 C       14   1 H                                       1.0967255
     5   6 C       15   1 H                                       1.0916671

 * 2 distinct bonds (by element types)

   Z      Z             #   av. dist./Å        max./Å        min./Å
   1 H    6 C          10     1.0941525     1.0986874     1.0896143
   6 C    6 C           2     1.4351764     1.5349060     1.3354468


optimized geometry written to: xtbopt.coord


           -------------------------------------------------
          | TOTAL ENERGY             -196.461198751511 Eh   |
          | GRADIENT NORM               0.000348314795 Eh/α |
           -------------------------------------------------

------------------------------------------------------------------------
 * finished run on 2025/04/16 at 10:22:04.606     
------------------------------------------------------------------------
 total:
 * wall-time:     0 d,  0 h,  2 min,  7.049 sec
 *  cpu-time:     0 d,  0 h,  0 min, 14.982 sec
 * ratio c/w:     0.118 speedup
 SCF:
 * wall-time:     0 d,  0 h,  0 min,  9.926 sec
 *  cpu-time:     0 d,  0 h,  0 min,  2.962 sec
 * ratio c/w:     0.298 speedup
 ANC optimizer:
 * wall-time:     0 d,  0 h,  1 min, 56.518 sec
 *  cpu-time:     0 d,  0 h,  0 min,  7.717 sec
 * ratio c/w:     0.066 speedup

