      -----------------------------------------------------------      
     |                   =====================                   |     
     |                           x T B                           |     
     |                   =====================                   |     
     |                         S. Grimme                         |     
     |          Mulliken Center for Theoretical Chemistry        |     
     |                    University of Bonn                     |     
      -----------------------------------------------------------      

   * xtb version 6.7.1 (edcfbbe) compiled by 'albert@albert-system' on 2024-07-22

   xtb is free software: you can redistribute it and/or modify it under
   the terms of the GNU Lesser General Public License as published by
   the Free Software Foundation, either version 3 of the License, or
   (at your option) any later version.
   
   xtb is distributed in the hope that it will be useful,
   but WITHOUT ANY WARRANTY; without even the implied warranty of
   MERCHANTABILITY or FITNESS FOR A PARTICULAR PURPOSE.  See the
   GNU Lesser General Public License for more details.
   
   Cite this work as:
   * C. Bannwarth, E. Caldeweyher, S. Ehlert, A. Hansen, P. Pracht,
     J. Seibert, S. Spicher, S. Grimme, WIREs Comput. Mol. Sci., 2020, 11,
     e01493. DOI: 10.1002/wcms.1493
   
   for GFN2-xTB:
   * C. Bannwarth, S. Ehlert and S. Grimme., J. Chem. Theory Comput., 2019,
     15, 1652-1671. DOI: 10.1021/acs.jctc.8b01176
   for GFN1-xTB:
   * S. Grimme, C. Bannwarth, P. Shushkov, J. Chem. Theory Comput., 2017,
     13, 1989-2009. DOI: 10.1021/acs.jctc.7b00118
   for GFN0-xTB:
   * P. Pracht, E. Caldeweyher, S. Ehlert, S. Grimme, ChemRxiv, 2019, preprint.
     DOI: 10.26434/chemrxiv.8326202.v1
   for GFN-FF:
   * S. Spicher and S. Grimme, Angew. Chem. Int. Ed., 2020, 59, 15665-15673.
     DOI: 10.1002/anie.202004239
   
   for ALPB and GBSA implicit solvation:
   * S. Ehlert, M. Stahn, S. Spicher, S. Grimme, J. Chem. Theory Comput.,
     2021, 17, 4250-4261. DOI: 10.1021/acs.jctc.1c00471
   
   for ddCOSMO and CPCM-X implicit solvation:
   * M. Stahn, S. Ehlert, S. Grimme, J. Phys. Chem. A,
     2023, XX, XXXX-XXXX. DOI: 10.1021/acs.jpca.3c04382
   
   for DFT-D4:
   * E. Caldeweyher, C. Bannwarth and S. Grimme, J. Chem. Phys., 2017,
     147, 034112. DOI: 10.1063/1.4993215
   * E. Caldeweyher, S. Ehlert, A. Hansen, H. Neugebauer, S. Spicher,
     C. Bannwarth and S. Grimme, J. Chem. Phys., 2019, 150, 154122.
     DOI: 10.1063/1.5090222
   * E. Caldeweyher, J.-M. Mewes, S. Ehlert and S. Grimme, Phys. Chem. Chem. Phys.
     2020, 22, 8499-8512. DOI: 10.1039/D0CP00502A
   
   for sTDA-xTB:
   * S. Grimme and C. Bannwarth, J. Chem. Phys., 2016, 145, 054103.
     DOI: 10.1063/1.4959605
   
   in the mass-spec context:
   * V. Asgeirsson, C. Bauer and S. Grimme, Chem. Sci., 2017, 8, 4879.
     DOI: 10.1039/c7sc00601b
   * J. Koopman and S. Grimme, ACS Omega 2019, 4, 12, 15120-15133.
     DOI: 10.1021/acsomega.9b02011
   
   for metadynamics refer to:
   * S. Grimme, J. Chem. Theory Comput., 2019, 155, 2847-2862
     DOI: 10.1021/acs.jctc.9b00143
   
   for SPH calculations refer to:
   * S. Spicher and S. Grimme, J. Chem. Theory Comput., 2021, 17, 1701-1714
     DOI: 10.1021/acs.jctc.0c01306
   
   for ONIOM refer to:
   * C. Plett, A. Katbashev, S. Ehlert, S. Grimme, M. Bursch,
     Phys. Chem. Chem. Phys., 2023, 25, 17860-17868. DOI: 10.1039/D3CP02178E
   
   for DIPRO refer to:
   * J. Kohn, N. Gildemeister, S. Grimme, D. Fazzi, A. Hansen,
     J. Chem. Phys., 2023, just accepted.
   
   for PTB refer to:
   * S. Grimme, M. Mueller, A. Hansen, J. Chem. Phys., 2023, 158, 124111.
     DOI: 10.1063/5.0137838
   
   with help from (in alphabetical order)
   P. Atkinson, C. Bannwarth, F. Bohle, G. Brandenburg, E. Caldeweyher
   M. Checinski, S. Dohm, S. Ehlert, S. Ehrlich, I. Gerasimov, C. Hölzer
   A. Katbashev, J. Kohn, J. Koopman, C. Lavigne, S. Lehtola, F. März, M. Müller,
   F. Musil, H. Neugebauer, J. Pisarek, C. Plett, P. Pracht, F. Pultar,
   J. Seibert, P. Shushkov, S. Spicher, M. Stahn, M. Steiner, T. Strunk,
   J. Stückrath, T. Rose, and J. Unsleber
   
 * started run on 2025/04/15 at 19:10:50.672     
   ID    Z sym.   atoms
    1    6 C      1, 3, 5
    2    8 O      2, 4
    3    9 F      6-8
    4    1 H      9-11

           -------------------------------------------------
          |                Calculation Setup                |
           -------------------------------------------------

          program call               : /software/projects/pawsey0265/mwang1/xtb/bin/xtb xtb_opt.coord --opt normal --orca -I xtb_opt-xcontrol-inp
          hostname                   : nid002793
          coordinate file            : xtb_opt.coord
          omp threads                :                     8

           -------------------------------------------------
          |                   Orca driver                   |
           -------------------------------------------------
orca executable           : /software/projects/pawsey0265/mwang1/orca_avx2/orca
orca input file           : xtb_opt.inp
orca input line           : 
orca parallel             : true
orca number of threads    : 8
                         * ORCA takes the control...
  ------------------------------------------------------------------------

                                 *****************
                                 * O   R   C   A *
                                 *****************

                                            #,                                       
                                            ###                                      
                                            ####                                     
                                            #####                                    
                                            ######                                   
                                           ########,                                 
                                     ,,################,,,,,                         
                               ,,#################################,,                 
                          ,,##########################################,,             
                       ,#########################################, ''#####,          
                    ,#############################################,,   '####,        
                  ,##################################################,,,,####,       
                ,###########''''           ''''###############################       
              ,#####''   ,,,,##########,,,,          '''####'''          '####       
            ,##' ,,,,###########################,,,                        '##       
           ' ,,###''''                  '''############,,,                           
         ,,##''                                '''############,,,,        ,,,,,,###''
      ,#''                                            '''#######################'''  
     '                                                          ''''####''''         
             ,#######,   #######,   ,#######,      ##                                
            ,#'     '#,  ##    ##  ,#'     '#,    #''#        ,####,   ,####,        
            ##       ##  ##   ,#'  ##            #'  '#       #'       #'  '#        
            ##       ##  #######   ##           ,######,      #####,   #    #        
            '#,     ,#'  ##    ##  '#,     ,#' ,#      #,     #,   #   #,  ,#        
             '#######'   ##     ##  '#######'  #'      '#     '####' # '####'        



                #########################################################
                #                        -***-                          #
                #          Department of theory and spectroscopy        #
                #                                                       #
                #                      Frank Neese                      #
                #                                                       #
                #     Directorship, Architecture, Infrastructure        #
                #                    SHARK, DRIVERS                     #
                #        Core code/Algorithms in most modules           #
                #                                                       #
                #        Max Planck Institute fuer Kohlenforschung      #
                #                Kaiser Wilhelm Platz 1                 #
                #                 D-45470 Muelheim/Ruhr                 #
                #                      Germany                          #
                #                                                       #
                #                  All rights reserved                  #
                #                        -***-                          #
                #########################################################


                         Program Version 6.0.1  -  RELEASE   -


 With contributions from (in alphabetic order):
[Max-Planck-Institut fuer Kohlenforschung]                               
  Daniel Aravena         : Magnetic Suceptibility                        
  Michael Atanasov       : Ab Initio Ligand Field Theory (pilot matlab implementation)
  Alexander A. Auer      : GIAO ZORA, VPT2 properties, NMR spectrum      
  Ute Becker             : All parallelization in ORCA, NUMFREQ, NUMCALC 
  Giovanni Bistoni       : ED, misc. LED, open-shell LED, HFLD           
  Martin Brehm           : Molecular dynamics                            
  Dmytro Bykov           : pre 5.0 version of the SCF Hessian            
  Marcos Casanova-Páez   : Triplet and SCS-CIS(D). UHF-(DLPNO)-IP/EA/STEOM-CCSD. UHF-CVS-IP/STEOM-CCSD   
  Vijay G. Chilkuri      : MRCI spin determinant printing, contributions to CSF-ICE 
  Pauline Colinet        : FMM embedding                                 
  Dipayan Datta          : RHF DLPNO-CCSD density                        
  Achintya Kumar Dutta   : EOM-CC, STEOM-CC                              
  Nicolas Foglia         : Exact transition moments, OPA infrastructure, MCD improvements    
  Dmitry Ganyushin       : Spin-Orbit,Spin-Spin,Magnetic field MRCI      
  Miquel Garcia-Rates    : C-PCM and meta-GGA Hessian, CCSD/C-PCM, Gaussian charge scheme 
  Tiago L. C. Gouveia    : GS-ROHF, GS-ROCIS                             
  Yang Guo               : DLPNO-NEVPT2, F12-NEVPT2, CIM, IAO-localization        
  Andreas Hansen         : Spin unrestricted coupled pair/coupled cluster methods 
  Ingolf Harden          : AUTO-CI MPn and infrastructure                
  Benjamin Helmich-Paris : MC-RPA, TRAH-(SCF,CASSCF), AVAS, COSX integrals, SCF dyn. polar. 
  Lee Huntington         : MR-EOM, pCC                                   
  Robert Izsak           : Overlap fitted RIJCOSX, COSX-SCS-MP3, EOM     
  Riya Kayal             : Wick's Theorem for AUTO-CI, AUTO-CI UHF-CCSDT 
  Emily Kempfer          : AUTO-CI, RHF CISDT and CCSDT                  
  Christian Kollmar      : KDIIS, OOCD, Brueckner-CCSD(T), CCSD density, CASPT2, CASPT2-K, improved NEVPT2 
  Axel Koslowski         : Symmetry handling                             
  Simone Kossmann        : meta-GGA functionals, TD-DFT gradient, OOMP2, (MP2 Hessian; deprecated post 5.0) 
  Lucas Lang             : DCDCAS                                        
  Marvin Lechner         : AUTO-CI (C++ implementation), FIC-MRCC        
  Spencer Leger          : CASSCF response                               
  Dagmar Lenk            : GEPOL surface, SMD, ORCA-2-JSON               
  Dimitrios Liakos       : Extrapolation schemes; Compound Job, initial MDCI parallelization 
  Dimitrios Manganas     : Further ROCIS development; embedding schemes. LFT, Crystal Embedding 
  Dimitrios Pantazis     : SARC Basis sets                               
  Anastasios Papadopoulos: AUTO-CI, single reference methods and gradients 
  Taras Petrenko         : pre 6.0 DFT Hessian and TD-DFT gradient, (ASA, deprecated), ECA, 1-Electron XAS/XES, NRVS 
  Peter Pinski           : DLPNO-MP2, DLPNO-MP2 Gradient                 
  Christoph Reimann      : Effective Core Potentials                     
  Marius Retegan         : Local ZFS, SOC                                
  Christoph Riplinger    : Optimizer, TS searches, QM/MM, DLPNO-CCSD(T), (RO)-DLPNO pert. Triples 
  Michael Roemelt        : Original ROCIS implementation                 
  Masaaki Saitow         : Open-shell DLPNO-CCSD energy and density      
  Barbara Sandhoefer     : DKH picture change effects                    
  Kantharuban Sivalingam : CASSCF convergence/infrastructure, NEVPT2 and variants, FIC-MRCI 
  Bernardo de Souza      : ESD, SOC TD-DFT                               
  Georgi L. Stoychev     : AutoAux, RI-MP2 NMR, DLPNO-MP2 response, X2C  
  Van Anh Tran           : RI-MP2 g-tensors                              
  Willem Van den Heuvel  : Paramagnetic NMR                              
  Zikuan Wang            : NOTCH, Electric field optimization            
  Frank Wennmohs         : Technical directorship and infrastructure     
  Hang Xu                : AUTO-CI-Response properties                   
                                                                         
[FACCTs GmbH]                                                            
  Markus Bursch, Miquel Garcia-Rates, Christoph Riplinger, Bernardo de Souza, Georgi L. Stoychev 
                                                                 
  APM, Basis sets (HGBS, AHGBS, def-TZVP (Ac-Lr), def2-XVPD (La-Lu)), CI-OPT, improved COSX, DLPNO-Multilevel,           
  DOCKER, DRACO, updates on ESD, GOAT, IRC, LR-CPCM, MBIS, meta-GGA TD-DFT gradient, ML-optimized integration grids, 
  MM, NACMEs, nearIR, NEB, NEB-TS, NL-DFT gradient (VV10), 2- and 3-layer-ONIOM, interface openCOSMO-RS, QMMM,   
  Crystal-QMMM, SF, symmetry and pop. for TD-DFT, r2SCAN hybrids, SOLVATOR                                   
                                                                         
[Other institutions]                                                     
  V. Asgeirsson          : NEB                                           
  Christoph Bannwarth    : sTDA-DFT, sTD-DFT, PBEh-3c, B97-3c, D3        
  Sebastian Ehlert       : rSCAN, r2SCAN, r2SCAN-3c, D4, dhf basis sets  
  Marvin Friede          : D4 for Fr, Ra, Ac-Lr                          
  Lars Goerigk           : TD-DFT with DH, B97 family of functionals     
  Stefan Grimme          : VdW corrections, initial TS optimization, DFT functionals, gCP, sTDA/sTD-DF 
  Waldemar Hujo          : DFT-NL                                        
  H. Jonsson             : NEB                                           
  Holger Kruse           : gCP                                           
  Marcel Mueller         : wB97X-3c, vDZP basis set                      
  Hagen Neugebauer       : wr2SCAN                                       
  Tobias Risthaus        : range-separated hybrid DFT                    
  Lukas Wittmann         : regularized MP2, r2SCAN double-hybrids, wr2SCAN        
                                                                         
We gratefully acknowledge several colleagues who have allowed us to      
interface, adapt or use parts of their codes:                            
  Ed Valeev, F. Pavosevic, A. Kumar             : LibInt (2-el integral package), F12 methods 
  Garnet Chan, S. Sharma, J. Yang, R. Olivares  : DMRG                   
  Ulf Ekstrom                                   : XCFun DFT Library      
  Mihaly Kallay                                 : mrcc  (arbitrary order and MRCC methods)
  Frank Weinhold                                : gennbo (NPA and NBO analysis)           
  Simon Mueller                                 : openCOSMO-RS                            
  Christopher J. Cramer and Donald G. Truhlar   : smd solvation model                     
  S Lehtola, MJT Oliveira, MAL Marques          : LibXC Library                           
  Liviu Ungur et al                             : ANISO software                          


 Your calculation uses the libint2 library for the computation of 2-el integrals
 For citations please refer to: http://libint.valeyev.net

 Your ORCA version has been built with support for libXC version: 6.2.2
 For citations please refer to: https://libxc.gitlab.io

 This ORCA versions uses:
   CBLAS   interface :  Fast vector & matrix operations
   LAPACKE interface :  Fast linear algebra routines
   SCALAPACK package :  Parallel linear algebra routines
   Shared memory     :  Shared parallel matrices
   BLAS/LAPACK       :  OpenBLAS 0.3.27  USE64BITINT DYNAMIC_ARCH NO_AFFINITY Zen SINGLE_THREADED
        Core in use  :  Zen
   Copyright (c) 2011-2014, The OpenBLAS Project




***************************************
The coordinates will be read from file: xtb_opt.xyz
***************************************


Your calculation utilizes the geometrical counterpoise correction gCP
Please cite in your paper:
H.Kruse, S. Grimme J.Chem.Phys., 136, (2012), 154101 
   

Your calculation utilizes the atom-pairwise dispersion correction
based on EEQ partial charges (D4)


================================================================================

----- Orbital basis set information -----
Your calculation utilizes the basis: def2-mTZVPP
   Stefan Grimme, Andreas Hansen, Sebastian Ehlert, and Jan-Michael Mewes 
   J. Chem. Phys. 154, 064103 (2021). DOI: 10.1063/5.0040021

----- AuxJ basis set information -----
Your calculation utilizes the auxiliary basis: def2/J
   F. Weigend, Phys. Chem. Chem. Phys. 8, 1057 (2006).

================================================================================
                                        WARNINGS
                       Please study these warnings very carefully!
================================================================================



WARNING: SCAN, rSCAN, or r2SCAN functional requested.
  ===> : libXC variant has now been activated.



================================================================================
                                       INPUT FILE
================================================================================
NAME = xtb_opt.inp
|  1> ! r2scan-3c def2/J RI DEFGRID2 scfconv7 ENGRAD tightSCF miniprint
|  2> * xyzfile 0 1 xtb_opt.xyz
|  3> 
|  4>                          ****END OF INPUT****
================================================================================

                     *******************************
                     * Energy+Gradient Calculation *
                     *******************************

---------------------------------
CARTESIAN COORDINATES (ANGSTROEM)
---------------------------------
  C     -2.713985    0.804168   -0.121390
  O     -1.286688    0.854495   -0.150704
  C     -0.657444   -0.277197    0.068126
  O     -1.141395   -1.346768    0.288770
  C      0.885304   -0.059289   -0.000342
  F      1.216734    1.218328   -0.192457
  F      1.470819   -0.460341    1.131175
  F      1.416409   -0.766372   -1.002682
  H     -3.056660    0.480791    0.862520
  H     -3.079448    0.104074   -0.874017
  H     -3.051319    1.814229   -0.335643

----------------------------
CARTESIAN COORDINATES (A.U.)
----------------------------
  NO LB      ZA    FRAG     MASS         X           Y           Z
   0 C     6.0000    0    12.011   -5.128689    1.519658   -0.229394
   1 O     8.0000    0    15.999   -2.431488    1.614762   -0.284790
   2 C     6.0000    0    12.011   -1.242389   -0.523827    0.128740
   3 O     8.0000    0    15.999   -2.156924   -2.545024    0.545695
   4 C     6.0000    0    12.011    1.672983   -0.112041   -0.000646
   5 F     9.0000    0    18.998    2.299295    2.302307   -0.363691
   6 F     9.0000    0    18.998    2.779446   -0.869919    2.137612
   7 F     9.0000    0    18.998    2.676625   -1.448234   -1.894795
   8 H     1.0000    0     1.008   -5.776250    0.908564    1.629927
   9 H     1.0000    0     1.008   -5.819314    0.196672   -1.651653
  10 H     1.0000    0     1.008   -5.766158    3.428396   -0.634273

------------------------------------------------------------------------------
                   ___                                                        
                  /   \      - P O W E R E D   B Y -                         
                 /     \                                                     
                 |  |  |   _    _      __       _____    __    __             
                 |  |  |  | |  | |    /  \     |  _  \  |  |  /  |          
                  \  \/   | |  | |   /    \    | | | |  |  | /  /          
                 / \  \   | |__| |  /  /\  \   | |_| |  |  |/  /          
                |  |  |   |  __  | /  /__\  \  |    /   |      \           
                |  |  |   | |  | | |   __   |  |    \   |  |\   \          
                \     /   | |  | | |  |  |  |  | |\  \  |  | \   \       
                 \___/    |_|  |_| |__|  |__|  |_| \__\ |__|  \__/        
                                                                              
                      - O R C A' S   B I G   F R I E N D -                    
                                      &                                       
                       - I N T E G R A L  F E E D E R -                       
                                                                              
 v1 FN, 2020, v2 2021, v3 2022-2024                                           
------------------------------------------------------------------------------


----------------------
SHARK INTEGRAL PACKAGE
----------------------

Number of atoms                             ...     11
Number of basis functions                   ...    192
Number of shells                            ...     86
Maximum angular momentum                    ...      2
Integral batch strategy                     ... SHARK/LIBINT Hybrid
RI-J (if used) integral strategy            ... SPLIT-RIJ (Revised 2003 algorithm where possible)
Printlevel                                  ...      1
Contraction scheme used                     ... SEGMENTED contraction
Prescreening option                         ... SCHWARTZ
   Thresh                                   ... 3.000e-11
   Tcut                                     ... 1.000e-12
   Tpresel                                  ... 1.000e-12 
Coulomb Range Separation                    ... NOT USED
Exchange Range Separation                   ... NOT USED
Multipole approximations                    ... NOT USED
Finite Nucleus Model                        ... NOT USED
CABS basis                                  ... NOT available
Auxiliary Coulomb fitting basis             ... AVAILABLE
   # of basis functions in Aux-J            ...    425
   # of shells in Aux-J                     ...    135
   Maximum angular momentum in Aux-J        ...      4
Auxiliary J/K fitting basis                 ... NOT available
Auxiliary Correlation fitting basis         ... NOT available
Auxiliary 'external' fitting basis          ... NOT available

Checking pre-screening integrals            ... done (  0.0 sec) Dimension = 86
Check shell pair data                       ... done (  0.0 sec)
Shell pair information
Shell pair cut-off parameter TPreSel        ...   1.0e-12
Total number of shell pairs                 ...      3741
Shell pairs after pre-screening             ...      3364
Total number of primitive shell pairs       ...     13715
Primitive shell pairs kept                  ...      8818
          la=0 lb=0:    898 shell pairs
          la=1 lb=0:   1126 shell pairs
          la=1 lb=1:    359 shell pairs
          la=2 lb=0:    555 shell pairs
          la=2 lb=1:    337 shell pairs
          la=2 lb=2:     89 shell pairs

Calculating one electron integrals          ... done (  0.0 sec)
Calculating RI/J V-Matrix + Cholesky decomp.... done (  0.0 sec)
Calculating Nuclear repulsion               ... done (  0.0 sec) ENN=    419.311356702832 Eh

Diagonalization of the overlap matrix:
Smallest eigenvalue                        ... 2.927e-04
Time for diagonalization                   ...    0.004 sec
Threshold for overlap eigenvalues          ... 1.000e-07
Number of eigenvalues below threshold      ... 0
Time for construction of square roots      ...    0.004 sec
Total time needed                          ...    0.008 sec

-------------------
DFT GRID GENERATION
-------------------

General Integration Accuracy     IntAcc      ... 4.388
Radial Grid Type                 RadialGrid  ... OptM3 with GC (2021)
Angular Grid (max. ang.)         AngularGrid ... 4 (Lebedev-302)
Angular grid pruning method      GridPruning ... 4 (adaptive)
Weight generation scheme         WeightScheme... mBecke (2022)
Basis function cutoff            BFCut       ... 1.0000e-11
Integration weight cutoff        WCut        ... 1.0000e-14
Partially contracted basis set               ... off
Rotationally invariant grid construction     ... off
Angular grids for H and He will be reduced by one unit
Diffuse basis detected: some atoms will have their outermost
                        angular grid increased by 1.

Total number of grid points                  ...    59007
Total number of batches                      ...      928
Average number of points per batch           ...       63
Average number of grid points per atom       ...     5364
Initializing property integral containers    ... done (  0.0 sec)

SHARK setup successfully completed in   0.5 seconds

Maximum memory used throughout the entire STARTUP-calculation: 28.5 MB
Occupation numbers will be reassigned to an Aufbau configuration
             **** ENERGY FILE WAS UPDATED (xtb_opt.en.tmp) ****
Finished Guess after   0.1 sec
Maximum memory used throughout the entire GUESS-calculation: 13.5 MB
----------------------------------------D-I-I-S--------------------------------------------
Iteration    Energy (Eh)           Delta-E    RMSDP     MaxDP     DIISErr   Damp  Time(sec)
-------------------------------------------------------------------------------------------
               ***  Starting incremental Fock matrix formation  ***
                              *** Initializing SOSCF ***
---------------------------------------S-O-S-C-F--------------------------------------
Iteration    Energy (Eh)           Delta-E    RMSDP     MaxDP     MaxGrad    Time(sec)
--------------------------------------------------------------------------------------
    1    -566.0756761969179252     0.00e+00  7.69e-07  2.79e-05  5.75e-06     1.4
               *** Restarting incremental Fock matrix formation ***
    2    -566.0756761953352907     1.58e-09  1.45e-06  5.91e-05  1.48e-05     1.7
                  *** Gradient check signals convergence ***

               *****************************************************
               *                     SUCCESS                       *
               *           SCF CONVERGED AFTER   2 CYCLES          *
               *****************************************************

             **** ENERGY FILE WAS UPDATED (xtb_opt.en.tmp) ****

----------------
TOTAL SCF ENERGY
----------------

Total Energy       :       -566.07567619533529 Eh          -15403.70226 eV

Components:
Nuclear Repulsion  :        419.31135670283186 Eh           11410.04209 eV
Electronic Energy  :       -985.38703289816715 Eh          -26813.74435 eV
One Electron Energy:      -1614.12386010729938 Eh          -43922.54321 eV
Two Electron Energy:        628.73682720913223 Eh           17108.79886 eV

Virial components:
Potential Energy   :      -1130.30233742915561 Eh          -30757.09026 eV
Kinetic Energy     :        564.22666123382032 Eh           15353.38800 eV
Virial Ratio       :          2.00327707832429

DFT components:
N(Alpha)           :       31.999979056105 electrons
N(Beta)            :       31.999979056105 electrons
N(Total)           :       63.999958112209 electrons
E(X)               :      -63.617325428473 Eh       
E(C)               :       -2.176615216027 Eh       
E(XC)              :      -65.793940644499 Eh       

---------------
SCF CONVERGENCE
---------------

  Last Energy change         ...   -1.5826e-09  Tolerance :   1.0000e-07
  Last MAX-Density change    ...    5.9092e-05  Tolerance :   1.0000e-07
  Last RMS-Density change    ...    1.4467e-06  Tolerance :   5.0000e-09
  Last DIIS Error            ...    3.4961e-05  Tolerance :   1.0000e-07
  Last Orbital Gradient      ...    1.4790e-05  Tolerance :   1.0000e-04
  Last Orbital Rotation      ...    5.6984e-05  Tolerance :   1.0000e-04


----------------
ORBITAL ENERGIES
----------------

  NO   OCC          E(Eh)            E(eV) 
   0   2.0000     -24.532234      -667.5560 
   1   2.0000     -24.532040      -667.5507 
   2   2.0000     -24.530609      -667.5118 
   3   2.0000     -19.040527      -518.1191 
   4   2.0000     -18.974608      -516.3253 
   5   2.0000     -10.300380      -280.2876 
   6   2.0000     -10.197151      -277.4786 
   7   2.0000     -10.113553      -275.2038 
   8   2.0000      -1.292642       -35.1746 
   9   2.0000      -1.201921       -32.7059 
  10   2.0000      -1.201715       -32.7003 
  11   2.0000      -1.117630       -30.4122 
  12   2.0000      -1.027748       -27.9664 
  13   2.0000      -0.757871       -20.6227 
  14   2.0000      -0.690534       -18.7904 
  15   2.0000      -0.605798       -16.4846 
  16   2.0000      -0.571912       -15.5625 
  17   2.0000      -0.571666       -15.5558 
  18   2.0000      -0.550845       -14.9893 
  19   2.0000      -0.485214       -13.2033 
  20   2.0000      -0.475207       -12.9310 
  21   2.0000      -0.449814       -12.2400 
  22   2.0000      -0.441112       -12.0033 
  23   2.0000      -0.437943       -11.9170 
  24   2.0000      -0.411009       -11.1841 
  25   2.0000      -0.401660       -10.9297 
  26   2.0000      -0.390715       -10.6319 
  27   2.0000      -0.386967       -10.5299 
  28   2.0000      -0.379428       -10.3248 
  29   2.0000      -0.354761        -9.6535 
  30   2.0000      -0.312144        -8.4939 
  31   2.0000      -0.279828        -7.6145 
  32   0.0000      -0.066497        -1.8095 
  33   0.0000       0.039965         1.0875 
  34   0.0000       0.075330         2.0498 
  35   0.0000       0.108311         2.9473 
  36   0.0000       0.126648         3.4463 
  37   0.0000       0.133049         3.6204 
  38   0.0000       0.144036         3.9194 
  39   0.0000       0.158618         4.3162 
  40   0.0000       0.174228         4.7410 
  41   0.0000       0.176732         4.8091 
  42   0.0000       0.190443         5.1822 
*Only the first 10 virtual orbitals were printed.
Total SCF time: 0 days 0 hours 0 min 4 sec 
Finished LeanSCF after   7.7 sec

Maximum memory used throughout the entire LEANSCF-calculation: 19.4 MB


-------------------------------------------------------------------------------
                          DFT DISPERSION CORRECTION                            
                                                                               
                                DFTD4 V3.4.0                                   
-------------------------------------------------------------------------------
-------------------------   ----------------
Dispersion correction           -0.002402295
-------------------------   ----------------

------------------   -----------------
gCP correction             0.012998244
------------------   -----------------

-------------------------   --------------------
FINAL SINGLE POINT ENERGY      -566.065080245529
-------------------------   --------------------

------------------------------------------------------------------------------
                         ORCA SCF GRADIENT CALCULATION
------------------------------------------------------------------------------

Nuc. rep. gradient        (SHARK) ... done (  0.0 sec)
HCore & Overlap gradient  (SHARK) ... done (  0.1 sec)
Split-RIJ-J gradient      (SHARK) ... done (  1.0 sec)
XC gradient                       ... done (  3.5 sec)
Dispersion correction             ... done (  0.0 sec)

-------------------
DISPERSION GRADIENT
-------------------

   1   C   :   -0.000055344    0.000011959   -0.000001565
   2   O   :   -0.000025860    0.000013642   -0.000002267
   3   C   :    0.000014289   -0.000003099    0.000000412
   4   O   :   -0.000014583   -0.000038528    0.000008007
   5   C   :    0.000033173   -0.000008635    0.000001217
   6   F   :    0.000041388    0.000016619   -0.000002939
   7   F   :    0.000036072   -0.000007248    0.000014343
   8   F   :    0.000036188   -0.000011215   -0.000012854
   9   H   :   -0.000021736    0.000006325    0.000003755
  10   H   :   -0.000021833    0.000004325   -0.000005125
  11   H   :   -0.000021754    0.000015856   -0.000002984

Difference to translation invariance:
           :   -0.0000000000   -0.0000000000   -0.0000000000

Difference to rotation invariance:
           :    0.0000000000    0.0000000000    0.0000000000

Norm of the Dispersion gradient    ...    0.0001189944
RMS gradient                       ...    0.0000207143
MAX gradient                       ...    0.0000553440
gCP correction                   ... done

------------------
CARTESIAN GRADIENT
------------------

   1   C   :    0.009619300    0.003452716   -0.000657535
   2   O   :   -0.003997963   -0.016494208    0.003415464
   3   C   :   -0.013608856    0.001904722   -0.000317130
   4   O   :    0.004110244    0.012213046   -0.002540759
   5   C   :   -0.000735416   -0.002401024    0.000136420
   6   F   :   -0.000169938   -0.010256071    0.001436989
   7   F   :    0.001506750    0.004842140   -0.009153793
   8   F   :    0.001604478    0.007304765    0.007643564
   9   H   :    0.000683169    0.000275221   -0.001406756
  10   H   :    0.000755336    0.000766569    0.001115438
  11   H   :    0.000232896   -0.001607877    0.000328098

Difference to translation invariance:
           :    0.0000000000    0.0000000000    0.0000000000

Difference to rotation invariance:
           :    0.0001422778    0.0001506710   -0.0001336056

Norm of the Cartesian gradient     ...    0.0333342583
RMS gradient                       ...    0.0058027496
MAX gradient                       ...    0.0164942078

-------
TIMINGS
-------

Total SCF gradient time     ....        4.617 sec

Densities                   ....       0.000 sec  (  0.0%)
One electron gradient       ....       0.122 sec  (  2.6%)
RI-J Coulomb gradient       ....       0.987 sec  ( 21.4%)
XC gradient                 ....       3.470 sec  ( 75.2%)

Maximum memory used throughout the entire SCFGRAD-calculation: 33.7 MB

------------------------------------------------------------------------------
                              ORCA PROPERTY CALCULATIONS
------------------------------------------------------------------------------

GBWName                                 ... xtb_opt.gbw
Number of atoms                         ...     11
Number of basis functions               ...    192
Max core memory                         ...   1024 MB

Electric properties:
Dipole moment                           ... YES
Quadrupole moment                       ...  NO
Static polarizability (Dipole/Dipole)   ...  NO
Static polarizability (Dipole/Quad.)    ...  NO
Static polarizability (Quad./Quad.)     ...  NO
Static polarizability (Velocity)        ...  NO

Atomic electric properties:
Dipole moment                           ...  NO
Quadrupole moment                       ...  NO
Static polarizability                   ...  NO

Choice of electric origin               ... Center of mass
Position of electric origin             ...    -0.000023     0.000006    -0.000001

General magnetic properties:
Magnetizability                         ...  NO

EPR properties:
g-Tensor (aka g-matrix)                 ...  NO
Zero-Field splitting spin-orbit         ...  NO
Zero-field splitting spin-spin          ...  NO
Hyperfine couplings                     ...  NO (   0 nuclei)
Quadrupole couplings                    ...  NO (   0 nuclei)
Contact density                         ...  NO (   0 nuclei)

NMR properties:
Chemical shifts                         ...  NO (   0 nuclei)
Spin-rotation constants                 ...  NO (   0 nuclei)
Spin-spin couplings                     ...  NO (   0 nuclei,    0 pairs)

Choice of magnetic origin               ... GIAO
Position of magnetic origin             ...     0.000000     0.000000     0.000000

Properties with geometric perturbations:
SCF Hessian                             ...  NO
IR spectrum                             ...  NO
VCD spectrum                            ...  NO
X-ray spectroscopy properties:
SCF XES/XAS/RIXS spectra                ...  NO


-------------
DIPOLE MOMENT
-------------

Method             : SCF
Type of density    : Electron Density
Multiplicity       :   1
Irrep              :   0
Energy             :  -566.0756761953352907 Eh
Relativity type    : 
Basis              : AO
                                X                 Y                 Z
Electronic contribution:     11.418674193      -1.533317955       0.138694490
Nuclear contribution   :    -12.457796489       2.251262561      -0.264371744
                        -----------------------------------------
Total Dipole Moment    :     -1.039122297       0.717944606      -0.125677254
                        -----------------------------------------
Magnitude (a.u.)       :      1.269257412
Magnitude (Debye)      :      3.226195951



--------------------
Rotational spectrum 
--------------------
 
Rotational constants in cm-1:             0.121061             0.050071             0.043855 
Rotational constants in MHz :          3629.311001          1501.104832          1314.727630 

Dipole components along the rotational axes: 
x,y,z [a.u.] :    -1.139752     0.558544     0.003008 
x,y,z [Debye]:    -2.897018     1.419707     0.007645 

 

Dipole moment calculation done in   0.8 sec 

Maximum memory used throughout the entire PROP-calculation: 12.0 MB

--------------------------------
SUGGESTED CITATIONS FOR THIS RUN
--------------------------------

Below you find a list of papers that are relevant to this ORCA run
We neither can nor want to force you to cite these papers, but we appreciate if you do
You receive ORCA, which is the product of decades of hard work by many enthusiastic individuals, for free
The only thing we kindly ask in return is that you cite our papers,
We deeply appreciate it, if you show your appreciation for ORCA by not just citing the generic ORCA reference.

Please note that relegating all ORCA citations to the supporting information does *not* help us.
SI sections are not indexed - citations you put there will not count into any citation statistics
But we need these citations in order to attract the funding resources that allow us to do what we are doing

Therefore, if you are a happy ORCA user, please consider citing a few of the papers listed below in the main body of your paper

In addition to the list printed below, the program has created the file xtb_opt.bibtex that contains the list in bibtex format
You can import this file easily into all common literature databanks and citation aid programs


List of essential papers. We consider these as the minimum necessary citations

  1. Neese,F.
     Software update: the ORCA program system, version 5.0
     WIRES Comput. Molec. Sci., 2022 12(1)e1606
     doi.org/10.1002/wcms.1606
  2. Grimme,S.; Hansen,A.; Ehlert,S.; Mewes,J.
     r2SCAN-3c: A 'Swiss army knife' composite electronic-structure method
     J. Chem. Phys., 2021 154 064103
     doi.org/10.1063/5.0040021

List of papers to cite with high priority. The work reported in these papers was absolutely
necessary for this run to complete.
Our perspective: the developers of density functionals and basis sets usually get cited in chemistry papers
Good! But without the algorithms to do something with them, the functionals or basis sets would not do anything.
Hence, in our opinion, the algorithm design and method developments papers are equally worthy of getting cited

  1. Neese,F.
     An improvement of the resolution of the identity approximation for the formation of the Coulomb matrix
     J. Comp. Chem., 2003 24(14)1740-1747
     doi.org/10.1002/jcc.10318
  2. Neese,F.
     The SHARK Integral Generation and Digestion System
     J. Comp. Chem., 2022  1-16
     doi.org/10.1002/jcc.26942
  3. Lehtola,S.; Steigemann,C.; Oliveira,M.; Marques,M.
     Recent developments in Libxc - A comprehensive library of functionals for density functional theory
     Software X, 2018 7 
     doi.org/10.1016/j.softx.2017.11.002
  4. Caldeweyher,E.; Bannwarth,C.; Grimme,S.
     Extension of the D3 dispersion coefficient model
     J. Chem. Phys., 2017 147 034112
     doi.org/10.1063/1.4993215
  5. Caldeweyher,E.; Ehlert,S.; Hansen,A.; Neugebauer,H.; Spicher,S.; Bannwarth,C.; Grimme,S.
     A generally applicable atomic-charge dependent London dispersion correction
     J. Chem. Phys., 2019 150 154122
     doi.org/10.1063/1.5090222
  6. Caldeweyher,E.; Mewes,J.; Ehlert,S.; Grimme,S.
     Extension and evaluation of the D4 London-dispersion model for periodic systems
     Phys. Chem. Chem. Phys., 2020 22(16)8499-8512
     doi.org/10.1039/D0CP00502A
  7. Wittmann,L.; Gordiy,I.; Friede,M.; Helmich-Paris,B.; Grimme,S.; Hansen,A.; Bursch,M.
     Extension of the D3 and D4 London Dispersion Corrections to the full Actinides Series
     Phys. Chem. Chem. Phys., 2024 26(32)21379-21394
     doi.org/https://doi.org/10.1039/D4CP01514B 

List of suggested additional citations. These are papers that are important in the 'surrounding' of 
of this run, or papers that preceded the highly important papers. If you like your results we are grateful for a citation.

  1. Neese,F.
     The ORCA program system
     WIRES Comput. Molec. Sci., 2012 2(1)73-78
     doi.org/10.1002/wcms.81
  2. Neese,F.
     Software update: the ORCA program system, version 4.0
     WIRES Comput. Molec. Sci., 2018 8(1)1-6
     doi.org/10.1002/wcms.1327
  3. Neese,F.; Wennmohs,F.; Becker,U.; Riplinger,C.
     The ORCA quantum chemistry program package
     J. Chem. Phys., 2020 152 Art. No. L224108
     doi.org/10.1063/5.0004608

List of optional additional citations

  1. Neese,F.
     Approximate second-order SCF convergence for spin unrestricted wavefunctions
     Chem. Phys. Lett., 2000 325(1-3)93-98
     doi.org/10.1016/s0009-2614(00)00662-x

Timings for individual modules:

Sum of individual times          ...       14.777 sec (=   0.246 min)
Startup calculation              ...        0.566 sec (=   0.009 min)   3.8 %
SCF iterations                   ...        7.834 sec (=   0.131 min)  53.0 %
Property calculations            ...        0.905 sec (=   0.015 min)   6.1 %
SCF Gradient evaluation          ...        5.471 sec (=   0.091 min)  37.0 %
                             ****ORCA TERMINATED NORMALLY****
TOTAL RUN TIME: 0 days 0 hours 0 minutes 17 seconds 259 msec
  ------------------------------------------------------------------------
          * successful ORCA run, taking over control again...

         :::::::::::::::::::::::::::::::::::::::::::::::::::::
         ::                  ORCA SUMMARY                   ::
         :::::::::::::::::::::::::::::::::::::::::::::::::::::
         :: total energy            -566.065080245529 Eh    ::
         :: gradient norm              0.033334258333 Eh/a0 ::
         :: HOMO-LUMO gap              0.000000000000 eV    ::
         :::::::::::::::::::::::::::::::::::::::::::::::::::::

      ----------------------------------------------------------- 
     |                       L-ANC optimizer                     |
      ----------------------------------------------------------- 
          low memory version by Sebastian Ehlert

          ...................................................
          :                      SETUP                      :
          :.................................................:
          :   energy convergence        0.5000000E-05 Eh    :
          :   grad. convergence         0.1000000E-02 Eh/a0 :
          :   optimization log               true           :
          :   writing optlog all                1     steps :
          :   Hessian reset                     8     steps :
          :   maximium step len.        1.0000000     a0    :
          :   LBFGS images                      8           :
          ...................................................
 * calculating model hessian...
Using Lindh-Hessian (1995)
 Shifting diagonal of input Hessian by   1.000000000000000E-002
 Lowest  eigenvalues of input Hessian
    0.000000    0.000000    0.000000    0.000000    0.000000    0.000000
    0.015284    0.018609    0.028788    0.042738    0.046548    0.072635
    0.084016    0.108498    0.124076    0.142097    0.152018    0.157157
 Highest eigenvalues
    1.213130    1.360479    1.742194    1.771526    1.822666    2.452672
 

........................................................................
.............................. CYCLE    1 ..............................
........................................................................
                         * ORCA takes the control...
  ------------------------------------------------------------------------

                                 *****************
                                 * O   R   C   A *
                                 *****************

                                            #,                                       
                                            ###                                      
                                            ####                                     
                                            #####                                    
                                            ######                                   
                                           ########,                                 
                                     ,,################,,,,,                         
                               ,,#################################,,                 
                          ,,##########################################,,             
                       ,#########################################, ''#####,          
                    ,#############################################,,   '####,        
                  ,##################################################,,,,####,       
                ,###########''''           ''''###############################       
              ,#####''   ,,,,##########,,,,          '''####'''          '####       
            ,##' ,,,,###########################,,,                        '##       
           ' ,,###''''                  '''############,,,                           
         ,,##''                                '''############,,,,        ,,,,,,###''
      ,#''                                            '''#######################'''  
     '                                                          ''''####''''         
             ,#######,   #######,   ,#######,      ##                                
            ,#'     '#,  ##    ##  ,#'     '#,    #''#        ,####,   ,####,        
            ##       ##  ##   ,#'  ##            #'  '#       #'       #'  '#        
            ##       ##  #######   ##           ,######,      #####,   #    #        
            '#,     ,#'  ##    ##  '#,     ,#' ,#      #,     #,   #   #,  ,#        
             '#######'   ##     ##  '#######'  #'      '#     '####' # '####'        



                #########################################################
                #                        -***-                          #
                #          Department of theory and spectroscopy        #
                #                                                       #
                #                      Frank Neese                      #
                #                                                       #
                #     Directorship, Architecture, Infrastructure        #
                #                    SHARK, DRIVERS                     #
                #        Core code/Algorithms in most modules           #
                #                                                       #
                #        Max Planck Institute fuer Kohlenforschung      #
                #                Kaiser Wilhelm Platz 1                 #
                #                 D-45470 Muelheim/Ruhr                 #
                #                      Germany                          #
                #                                                       #
                #                  All rights reserved                  #
                #                        -***-                          #
                #########################################################


                         Program Version 6.0.1  -  RELEASE   -


 With contributions from (in alphabetic order):
[Max-Planck-Institut fuer Kohlenforschung]                               
  Daniel Aravena         : Magnetic Suceptibility                        
  Michael Atanasov       : Ab Initio Ligand Field Theory (pilot matlab implementation)
  Alexander A. Auer      : GIAO ZORA, VPT2 properties, NMR spectrum      
  Ute Becker             : All parallelization in ORCA, NUMFREQ, NUMCALC 
  Giovanni Bistoni       : ED, misc. LED, open-shell LED, HFLD           
  Martin Brehm           : Molecular dynamics                            
  Dmytro Bykov           : pre 5.0 version of the SCF Hessian            
  Marcos Casanova-Páez   : Triplet and SCS-CIS(D). UHF-(DLPNO)-IP/EA/STEOM-CCSD. UHF-CVS-IP/STEOM-CCSD   
  Vijay G. Chilkuri      : MRCI spin determinant printing, contributions to CSF-ICE 
  Pauline Colinet        : FMM embedding                                 
  Dipayan Datta          : RHF DLPNO-CCSD density                        
  Achintya Kumar Dutta   : EOM-CC, STEOM-CC                              
  Nicolas Foglia         : Exact transition moments, OPA infrastructure, MCD improvements    
  Dmitry Ganyushin       : Spin-Orbit,Spin-Spin,Magnetic field MRCI      
  Miquel Garcia-Rates    : C-PCM and meta-GGA Hessian, CCSD/C-PCM, Gaussian charge scheme 
  Tiago L. C. Gouveia    : GS-ROHF, GS-ROCIS                             
  Yang Guo               : DLPNO-NEVPT2, F12-NEVPT2, CIM, IAO-localization        
  Andreas Hansen         : Spin unrestricted coupled pair/coupled cluster methods 
  Ingolf Harden          : AUTO-CI MPn and infrastructure                
  Benjamin Helmich-Paris : MC-RPA, TRAH-(SCF,CASSCF), AVAS, COSX integrals, SCF dyn. polar. 
  Lee Huntington         : MR-EOM, pCC                                   
  Robert Izsak           : Overlap fitted RIJCOSX, COSX-SCS-MP3, EOM     
  Riya Kayal             : Wick's Theorem for AUTO-CI, AUTO-CI UHF-CCSDT 
  Emily Kempfer          : AUTO-CI, RHF CISDT and CCSDT                  
  Christian Kollmar      : KDIIS, OOCD, Brueckner-CCSD(T), CCSD density, CASPT2, CASPT2-K, improved NEVPT2 
  Axel Koslowski         : Symmetry handling                             
  Simone Kossmann        : meta-GGA functionals, TD-DFT gradient, OOMP2, (MP2 Hessian; deprecated post 5.0) 
  Lucas Lang             : DCDCAS                                        
  Marvin Lechner         : AUTO-CI (C++ implementation), FIC-MRCC        
  Spencer Leger          : CASSCF response                               
  Dagmar Lenk            : GEPOL surface, SMD, ORCA-2-JSON               
  Dimitrios Liakos       : Extrapolation schemes; Compound Job, initial MDCI parallelization 
  Dimitrios Manganas     : Further ROCIS development; embedding schemes. LFT, Crystal Embedding 
  Dimitrios Pantazis     : SARC Basis sets                               
  Anastasios Papadopoulos: AUTO-CI, single reference methods and gradients 
  Taras Petrenko         : pre 6.0 DFT Hessian and TD-DFT gradient, (ASA, deprecated), ECA, 1-Electron XAS/XES, NRVS 
  Peter Pinski           : DLPNO-MP2, DLPNO-MP2 Gradient                 
  Christoph Reimann      : Effective Core Potentials                     
  Marius Retegan         : Local ZFS, SOC                                
  Christoph Riplinger    : Optimizer, TS searches, QM/MM, DLPNO-CCSD(T), (RO)-DLPNO pert. Triples 
  Michael Roemelt        : Original ROCIS implementation                 
  Masaaki Saitow         : Open-shell DLPNO-CCSD energy and density      
  Barbara Sandhoefer     : DKH picture change effects                    
  Kantharuban Sivalingam : CASSCF convergence/infrastructure, NEVPT2 and variants, FIC-MRCI 
  Bernardo de Souza      : ESD, SOC TD-DFT                               
  Georgi L. Stoychev     : AutoAux, RI-MP2 NMR, DLPNO-MP2 response, X2C  
  Van Anh Tran           : RI-MP2 g-tensors                              
  Willem Van den Heuvel  : Paramagnetic NMR                              
  Zikuan Wang            : NOTCH, Electric field optimization            
  Frank Wennmohs         : Technical directorship and infrastructure     
  Hang Xu                : AUTO-CI-Response properties                   
                                                                         
[FACCTs GmbH]                                                            
  Markus Bursch, Miquel Garcia-Rates, Christoph Riplinger, Bernardo de Souza, Georgi L. Stoychev 
                                                                 
  APM, Basis sets (HGBS, AHGBS, def-TZVP (Ac-Lr), def2-XVPD (La-Lu)), CI-OPT, improved COSX, DLPNO-Multilevel,           
  DOCKER, DRACO, updates on ESD, GOAT, IRC, LR-CPCM, MBIS, meta-GGA TD-DFT gradient, ML-optimized integration grids, 
  MM, NACMEs, nearIR, NEB, NEB-TS, NL-DFT gradient (VV10), 2- and 3-layer-ONIOM, interface openCOSMO-RS, QMMM,   
  Crystal-QMMM, SF, symmetry and pop. for TD-DFT, r2SCAN hybrids, SOLVATOR                                   
                                                                         
[Other institutions]                                                     
  V. Asgeirsson          : NEB                                           
  Christoph Bannwarth    : sTDA-DFT, sTD-DFT, PBEh-3c, B97-3c, D3        
  Sebastian Ehlert       : rSCAN, r2SCAN, r2SCAN-3c, D4, dhf basis sets  
  Marvin Friede          : D4 for Fr, Ra, Ac-Lr                          
  Lars Goerigk           : TD-DFT with DH, B97 family of functionals     
  Stefan Grimme          : VdW corrections, initial TS optimization, DFT functionals, gCP, sTDA/sTD-DF 
  Waldemar Hujo          : DFT-NL                                        
  H. Jonsson             : NEB                                           
  Holger Kruse           : gCP                                           
  Marcel Mueller         : wB97X-3c, vDZP basis set                      
  Hagen Neugebauer       : wr2SCAN                                       
  Tobias Risthaus        : range-separated hybrid DFT                    
  Lukas Wittmann         : regularized MP2, r2SCAN double-hybrids, wr2SCAN        
                                                                         
We gratefully acknowledge several colleagues who have allowed us to      
interface, adapt or use parts of their codes:                            
  Ed Valeev, F. Pavosevic, A. Kumar             : LibInt (2-el integral package), F12 methods 
  Garnet Chan, S. Sharma, J. Yang, R. Olivares  : DMRG                   
  Ulf Ekstrom                                   : XCFun DFT Library      
  Mihaly Kallay                                 : mrcc  (arbitrary order and MRCC methods)
  Frank Weinhold                                : gennbo (NPA and NBO analysis)           
  Simon Mueller                                 : openCOSMO-RS                            
  Christopher J. Cramer and Donald G. Truhlar   : smd solvation model                     
  S Lehtola, MJT Oliveira, MAL Marques          : LibXC Library                           
  Liviu Ungur et al                             : ANISO software                          


 Your calculation uses the libint2 library for the computation of 2-el integrals
 For citations please refer to: http://libint.valeyev.net

 Your ORCA version has been built with support for libXC version: 6.2.2
 For citations please refer to: https://libxc.gitlab.io

 This ORCA versions uses:
   CBLAS   interface :  Fast vector & matrix operations
   LAPACKE interface :  Fast linear algebra routines
   SCALAPACK package :  Parallel linear algebra routines
   Shared memory     :  Shared parallel matrices
   BLAS/LAPACK       :  OpenBLAS 0.3.27  USE64BITINT DYNAMIC_ARCH NO_AFFINITY Zen SINGLE_THREADED
        Core in use  :  Zen
   Copyright (c) 2011-2014, The OpenBLAS Project




***************************************
The coordinates will be read from file: xtb_opt.xyz
***************************************


Your calculation utilizes the geometrical counterpoise correction gCP
Please cite in your paper:
H.Kruse, S. Grimme J.Chem.Phys., 136, (2012), 154101 
   

Your calculation utilizes the atom-pairwise dispersion correction
based on EEQ partial charges (D4)


================================================================================

----- Orbital basis set information -----
Your calculation utilizes the basis: def2-mTZVPP
   Stefan Grimme, Andreas Hansen, Sebastian Ehlert, and Jan-Michael Mewes 
   J. Chem. Phys. 154, 064103 (2021). DOI: 10.1063/5.0040021

----- AuxJ basis set information -----
Your calculation utilizes the auxiliary basis: def2/J
   F. Weigend, Phys. Chem. Chem. Phys. 8, 1057 (2006).

================================================================================
                                        WARNINGS
                       Please study these warnings very carefully!
================================================================================

WARNING: Old DensityContainer found on disk!
         Will remove this file - 
         If you want to keep old densities, please start your calculation with a different basename. 



WARNING: SCAN, rSCAN, or r2SCAN functional requested.
  ===> : libXC variant has now been activated.



================================================================================
                                       INPUT FILE
================================================================================
NAME = xtb_opt.inp
|  1> ! r2scan-3c def2/J RI DEFGRID2 scfconv7 ENGRAD tightSCF miniprint
|  2> * xyzfile 0 1 xtb_opt.xyz
|  3> 
|  4>                          ****END OF INPUT****
================================================================================

                     *******************************
                     * Energy+Gradient Calculation *
                     *******************************

---------------------------------
CARTESIAN COORDINATES (ANGSTROEM)
---------------------------------
  C     -2.720426    0.800810   -0.121137
  O     -1.283512    0.871846   -0.154085
  C     -0.646109   -0.267014    0.067091
  O     -1.130322   -1.343869    0.289233
  C      0.894685   -0.053333   -0.001460
  F      1.237454    1.227147   -0.193389
  F      1.455339   -0.473462    1.142080
  F      1.401105   -0.780753   -1.009628
  H     -3.059267    0.475602    0.865517
  H     -3.081834    0.098349   -0.876017
  H     -3.064786    1.810798   -0.334850

----------------------------
CARTESIAN COORDINATES (A.U.)
----------------------------
  NO LB      ZA    FRAG     MASS         X           Y           Z
   0 C     6.0000    0    12.011   -5.140860    1.513312   -0.228916
   1 O     8.0000    0    15.999   -2.425486    1.647551   -0.291178
   2 C     6.0000    0    12.011   -1.220969   -0.504584    0.126784
   3 O     8.0000    0    15.999   -2.135998   -2.539545    0.546571
   4 C     6.0000    0    12.011    1.690710   -0.100785   -0.002759
   5 F     9.0000    0    18.998    2.338448    2.318971   -0.365452
   6 F     9.0000    0    18.998    2.750192   -0.894713    2.158219
   7 F     9.0000    0    18.998    2.647705   -1.475410   -1.907920
   8 H     1.0000    0     1.008   -5.781176    0.898757    1.635589
   9 H     1.0000    0     1.008   -5.823822    0.185852   -1.655433
  10 H     1.0000    0     1.008   -5.791607    3.421911   -0.632776

------------------------------------------------------------------------------
                   ___                                                        
                  /   \      - P O W E R E D   B Y -                         
                 /     \                                                     
                 |  |  |   _    _      __       _____    __    __             
                 |  |  |  | |  | |    /  \     |  _  \  |  |  /  |          
                  \  \/   | |  | |   /    \    | | | |  |  | /  /          
                 / \  \   | |__| |  /  /\  \   | |_| |  |  |/  /          
                |  |  |   |  __  | /  /__\  \  |    /   |      \           
                |  |  |   | |  | | |   __   |  |    \   |  |\   \          
                \     /   | |  | | |  |  |  |  | |\  \  |  | \   \       
                 \___/    |_|  |_| |__|  |__|  |_| \__\ |__|  \__/        
                                                                              
                      - O R C A' S   B I G   F R I E N D -                    
                                      &                                       
                       - I N T E G R A L  F E E D E R -                       
                                                                              
 v1 FN, 2020, v2 2021, v3 2022-2024                                           
------------------------------------------------------------------------------


----------------------
SHARK INTEGRAL PACKAGE
----------------------

Number of atoms                             ...     11
Number of basis functions                   ...    192
Number of shells                            ...     86
Maximum angular momentum                    ...      2
Integral batch strategy                     ... SHARK/LIBINT Hybrid
RI-J (if used) integral strategy            ... SPLIT-RIJ (Revised 2003 algorithm where possible)
Printlevel                                  ...      1
Contraction scheme used                     ... SEGMENTED contraction
Prescreening option                         ... SCHWARTZ
   Thresh                                   ... 3.000e-11
   Tcut                                     ... 1.000e-12
   Tpresel                                  ... 1.000e-12 
Coulomb Range Separation                    ... NOT USED
Exchange Range Separation                   ... NOT USED
Multipole approximations                    ... NOT USED
Finite Nucleus Model                        ... NOT USED
CABS basis                                  ... NOT available
Auxiliary Coulomb fitting basis             ... AVAILABLE
   # of basis functions in Aux-J            ...    425
   # of shells in Aux-J                     ...    135
   Maximum angular momentum in Aux-J        ...      4
Auxiliary J/K fitting basis                 ... NOT available
Auxiliary Correlation fitting basis         ... NOT available
Auxiliary 'external' fitting basis          ... NOT available

Checking pre-screening integrals            ... done (  0.0 sec) Dimension = 86
Check shell pair data                       ... done (  0.0 sec)
Shell pair information
Shell pair cut-off parameter TPreSel        ...   1.0e-12
Total number of shell pairs                 ...      3741
Shell pairs after pre-screening             ...      3365
Total number of primitive shell pairs       ...     13715
Primitive shell pairs kept                  ...      8814
          la=0 lb=0:    898 shell pairs
          la=1 lb=0:   1126 shell pairs
          la=1 lb=1:    359 shell pairs
          la=2 lb=0:    556 shell pairs
          la=2 lb=1:    337 shell pairs
          la=2 lb=2:     89 shell pairs

Calculating one electron integrals          ... done (  0.0 sec)
Calculating RI/J V-Matrix + Cholesky decomp.... done (  0.0 sec)
Calculating Nuclear repulsion               ... done (  0.0 sec) ENN=    417.976274437881 Eh

Diagonalization of the overlap matrix:
Smallest eigenvalue                        ... 2.896e-04
Time for diagonalization                   ...    0.003 sec
Threshold for overlap eigenvalues          ... 1.000e-07
Number of eigenvalues below threshold      ... 0
Time for construction of square roots      ...    0.004 sec
Total time needed                          ...    0.008 sec

-------------------
DFT GRID GENERATION
-------------------

General Integration Accuracy     IntAcc      ... 4.388
Radial Grid Type                 RadialGrid  ... OptM3 with GC (2021)
Angular Grid (max. ang.)         AngularGrid ... 4 (Lebedev-302)
Angular grid pruning method      GridPruning ... 4 (adaptive)
Weight generation scheme         WeightScheme... mBecke (2022)
Basis function cutoff            BFCut       ... 1.0000e-11
Integration weight cutoff        WCut        ... 1.0000e-14
Partially contracted basis set               ... off
Rotationally invariant grid construction     ... off
Angular grids for H and He will be reduced by one unit
Diffuse basis detected: some atoms will have their outermost
                        angular grid increased by 1.

Total number of grid points                  ...    59022
Total number of batches                      ...      927
Average number of points per batch           ...       63
Average number of grid points per atom       ...     5366
Initializing property integral containers    ... done (  0.0 sec)

SHARK setup successfully completed in   0.6 seconds

Maximum memory used throughout the entire STARTUP-calculation: 28.5 MB
Occupation numbers will be reassigned to an Aufbau configuration
             **** ENERGY FILE WAS UPDATED (xtb_opt.en.tmp) ****
Finished Guess after   0.1 sec
Maximum memory used throughout the entire GUESS-calculation: 13.5 MB
----------------------------------------D-I-I-S--------------------------------------------
Iteration    Energy (Eh)           Delta-E    RMSDP     MaxDP     DIISErr   Damp  Time(sec)
-------------------------------------------------------------------------------------------
               ***  Starting incremental Fock matrix formation  ***
    1    -566.0757730899681519     0.00e+00  8.29e-05  1.55e-03  9.73e-03  0.700   1.2
    2    -566.0760022891017798    -2.29e-04  7.38e-05  1.30e-03  7.45e-03  0.700   1.0
                               ***Turning on AO-DIIS***
    3    -566.0761716273366346    -1.69e-04  5.54e-05  9.25e-04  5.37e-03  0.700   1.0
    4    -566.0762895788309379    -1.18e-04  1.34e-04  2.22e-03  3.79e-03  0.000   1.0
                              *** Initializing SOSCF ***
---------------------------------------S-O-S-C-F--------------------------------------
Iteration    Energy (Eh)           Delta-E    RMSDP     MaxDP     MaxGrad    Time(sec)
--------------------------------------------------------------------------------------
    5    -566.0765657583049233    -2.76e-04  5.69e-06  1.39e-04  1.95e-04     1.1
               *** Restarting incremental Fock matrix formation ***
    6    -566.0765658743518998    -1.16e-07  5.04e-06  1.37e-04  5.05e-05     1.3
    7    -566.0765657567965263     1.18e-07  3.28e-06  1.06e-04  1.49e-04     1.2
    8    -566.0765659167393551    -1.60e-07  2.54e-06  6.47e-05  2.97e-05     0.9
    9    -566.0765659018657061     1.49e-08  1.57e-06  4.04e-05  2.79e-05     0.9
                 **** Energy Check signals convergence ****

               *****************************************************
               *                     SUCCESS                       *
               *           SCF CONVERGED AFTER   9 CYCLES          *
               *****************************************************

             **** ENERGY FILE WAS UPDATED (xtb_opt.en.tmp) ****

----------------
TOTAL SCF ENERGY
----------------

Total Energy       :       -566.07656590186571 Eh          -15403.72647 eV

Components:
Nuclear Repulsion  :        417.97627443788070 Eh           11373.71266 eV
Electronic Energy  :       -984.05284033974635 Eh          -26777.43912 eV
One Electron Energy:      -1611.50069133516490 Eh          -43851.16316 eV
Two Electron Energy:        627.44785099541855 Eh           17073.72404 eV

Virial components:
Potential Energy   :      -1130.17877925681705 Eh          -30753.72807 eV
Kinetic Energy     :        564.10221335495135 Eh           15350.00160 eV
Virial Ratio       :          2.00349999078212

DFT components:
N(Alpha)           :       31.999977191800 electrons
N(Beta)            :       31.999977191800 electrons
N(Total)           :       63.999954383601 electrons
E(X)               :      -63.587858803067 Eh       
E(C)               :       -2.175030965352 Eh       
E(XC)              :      -65.762889768419 Eh       

---------------
SCF CONVERGENCE
---------------

  Last Energy change         ...   -1.4874e-08  Tolerance :   1.0000e-07
  Last MAX-Density change    ...    4.0373e-05  Tolerance :   1.0000e-07
  Last RMS-Density change    ...    1.5699e-06  Tolerance :   5.0000e-09
  Last DIIS Error            ...    1.9500e-04  Tolerance :   1.0000e-07
  Last Orbital Gradient      ...    2.7909e-05  Tolerance :   1.0000e-04
  Last Orbital Rotation      ...    2.8556e-05  Tolerance :   1.0000e-04


----------------
ORBITAL ENERGIES
----------------

  NO   OCC          E(Eh)            E(eV) 
   0   2.0000     -24.533637      -667.5942 
   1   2.0000     -24.533635      -667.5942 
   2   2.0000     -24.533390      -667.5875 
   3   2.0000     -19.040295      -518.1128 
   4   2.0000     -18.975325      -516.3449 
   5   2.0000     -10.302894      -280.3560 
   6   2.0000     -10.197930      -277.4998 
   7   2.0000     -10.114031      -275.2168 
   8   2.0000      -1.289610       -35.0921 
   9   2.0000      -1.202580       -32.7239 
  10   2.0000      -1.201965       -32.7071 
  11   2.0000      -1.111323       -30.2406 
  12   2.0000      -1.023845       -27.8602 
  13   2.0000      -0.755116       -20.5478 
  14   2.0000      -0.690555       -18.7909 
  15   2.0000      -0.605078       -16.4650 
  16   2.0000      -0.571881       -15.5617 
  17   2.0000      -0.571668       -15.5559 
  18   2.0000      -0.548079       -14.9140 
  19   2.0000      -0.481583       -13.1045 
  20   2.0000      -0.473454       -12.8833 
  21   2.0000      -0.447860       -12.1869 
  22   2.0000      -0.441169       -12.0048 
  23   2.0000      -0.438001       -11.9186 
  24   2.0000      -0.412179       -11.2160 
  25   2.0000      -0.404064       -10.9951 
  26   2.0000      -0.388727       -10.5778 
  27   2.0000      -0.386040       -10.5047 
  28   2.0000      -0.381694       -10.3864 
  29   2.0000      -0.355404        -9.6710 
  30   2.0000      -0.311367        -8.4727 
  31   2.0000      -0.279541        -7.6067 
  32   0.0000      -0.068517        -1.8645 
  33   0.0000       0.037497         1.0203 
  34   0.0000       0.074635         2.0309 
  35   0.0000       0.105742         2.8774 
  36   0.0000       0.120144         3.2693 
  37   0.0000       0.131928         3.5899 
  38   0.0000       0.142505         3.8778 
  39   0.0000       0.158865         4.3229 
  40   0.0000       0.172410         4.6915 
  41   0.0000       0.175526         4.7763 
  42   0.0000       0.189058         5.1445 
*Only the first 10 virtual orbitals were printed.
Total SCF time: 0 days 0 hours 0 min 10 sec 
Finished LeanSCF after  13.4 sec

Maximum memory used throughout the entire LEANSCF-calculation: 19.4 MB


-------------------------------------------------------------------------------
                          DFT DISPERSION CORRECTION                            
                                                                               
                                DFTD4 V3.4.0                                   
-------------------------------------------------------------------------------
-------------------------   ----------------
Dispersion correction           -0.002399797
-------------------------   ----------------

------------------   -----------------
gCP correction             0.012752586
------------------   -----------------

-------------------------   --------------------
FINAL SINGLE POINT ENERGY      -566.066213112175
-------------------------   --------------------

------------------------------------------------------------------------------
                         ORCA SCF GRADIENT CALCULATION
------------------------------------------------------------------------------

Nuc. rep. gradient        (SHARK) ... done (  0.0 sec)
HCore & Overlap gradient  (SHARK) ... done (  0.1 sec)
Split-RIJ-J gradient      (SHARK) ... done (  1.0 sec)
XC gradient                       ... done (  3.0 sec)
Dispersion correction             ... done (  0.0 sec)

-------------------
DISPERSION GRADIENT
-------------------

   1   C   :   -0.000055105    0.000012152   -0.000001603
   2   O   :   -0.000027051    0.000014135   -0.000002347
   3   C   :    0.000014417   -0.000003295    0.000000453
   4   O   :   -0.000013939   -0.000038472    0.000008025
   5   C   :    0.000034282   -0.000008634    0.000001195
   6   F   :    0.000041227    0.000016790   -0.000002957
   7   F   :    0.000035624   -0.000007550    0.000014434
   8   F   :    0.000035768   -0.000011503   -0.000012842
   9   H   :   -0.000021743    0.000006409    0.000003491
  10   H   :   -0.000021848    0.000004513   -0.000004942
  11   H   :   -0.000021633    0.000015455   -0.000002906

Difference to translation invariance:
           :   -0.0000000000   -0.0000000000    0.0000000000

Difference to rotation invariance:
           :    0.0000000000    0.0000000000    0.0000000000

Norm of the Dispersion gradient    ...    0.0001191534
RMS gradient                       ...    0.0000207420
MAX gradient                       ...    0.0000551046
gCP correction                   ... done

------------------
CARTESIAN GRADIENT
------------------

   1   C   :    0.005927227    0.001669276   -0.000392313
   2   O   :   -0.002162739   -0.006620509    0.001416149
   3   C   :   -0.004020174    0.003693924   -0.000650657
   4   O   :   -0.000430747    0.000204622   -0.000116998
   5   C   :    0.003000295    0.000055240   -0.000405210
   6   F   :   -0.000983033   -0.001743613    0.000271342
   7   F   :   -0.000353171    0.001055119   -0.002513449
   8   F   :   -0.000290940    0.001764067    0.002334745
   9   H   :   -0.000361221    0.000088170   -0.000182426
  10   H   :   -0.000380453    0.000131439    0.000172516
  11   H   :    0.000054956   -0.000297734    0.000066300

Difference to translation invariance:
           :    0.0000000000   -0.0000000000   -0.0000000000

Difference to rotation invariance:
           :    0.0001447304    0.0001649018    0.0000820393

Norm of the Cartesian gradient     ...    0.0122053027
RMS gradient                       ...    0.0021246705
MAX gradient                       ...    0.0066205094

-------
TIMINGS
-------

Total SCF gradient time     ....        4.151 sec

Densities                   ....       0.000 sec  (  0.0%)
One electron gradient       ....       0.121 sec  (  2.9%)
RI-J Coulomb gradient       ....       0.984 sec  ( 23.7%)
XC gradient                 ....       3.008 sec  ( 72.5%)

Maximum memory used throughout the entire SCFGRAD-calculation: 33.7 MB

------------------------------------------------------------------------------
                              ORCA PROPERTY CALCULATIONS
------------------------------------------------------------------------------

GBWName                                 ... xtb_opt.gbw
Number of atoms                         ...     11
Number of basis functions               ...    192
Max core memory                         ...   1024 MB

Electric properties:
Dipole moment                           ... YES
Quadrupole moment                       ...  NO
Static polarizability (Dipole/Dipole)   ...  NO
Static polarizability (Dipole/Quad.)    ...  NO
Static polarizability (Quad./Quad.)     ...  NO
Static polarizability (Velocity)        ...  NO

Atomic electric properties:
Dipole moment                           ...  NO
Quadrupole moment                       ...  NO
Static polarizability                   ...  NO

Choice of electric origin               ... Center of mass
Position of electric origin             ...     0.002775     0.001601    -0.000151

General magnetic properties:
Magnetizability                         ...  NO

EPR properties:
g-Tensor (aka g-matrix)                 ...  NO
Zero-Field splitting spin-orbit         ...  NO
Zero-field splitting spin-spin          ...  NO
Hyperfine couplings                     ...  NO (   0 nuclei)
Quadrupole couplings                    ...  NO (   0 nuclei)
Contact density                         ...  NO (   0 nuclei)

NMR properties:
Chemical shifts                         ...  NO (   0 nuclei)
Spin-rotation constants                 ...  NO (   0 nuclei)
Spin-spin couplings                     ...  NO (   0 nuclei,    0 pairs)

Choice of magnetic origin               ... GIAO
Position of magnetic origin             ...     0.000000     0.000000     0.000000

Properties with geometric perturbations:
SCF Hessian                             ...  NO
IR spectrum                             ...  NO
VCD spectrum                            ...  NO
X-ray spectroscopy properties:
SCF XES/XAS/RIXS spectra                ...  NO


-------------
DIPOLE MOMENT
-------------

Method             : SCF
Type of density    : Electron Density
Multiplicity       :   1
Irrep              :   0
Energy             :  -566.0765659018657061 Eh
Relativity type    : 
Basis              : AO
                                X                 Y                 Z
Electronic contribution:     11.449804842      -1.537081231       0.139680578
Nuclear contribution   :    -12.465674186       2.255358591      -0.265536924
                        -----------------------------------------
Total Dipole Moment    :     -1.015869344       0.718277360      -0.125856346
                        -----------------------------------------
Magnitude (a.u.)       :      1.250500984
Magnitude (Debye)      :      3.178520899



--------------------
Rotational spectrum 
--------------------
 
Rotational constants in cm-1:             0.119442             0.050042             0.043786 
Rotational constants in MHz :          3580.774918          1500.223332          1312.685525 

Dipole components along the rotational axes: 
x,y,z [a.u.] :    -1.118550     0.559095     0.003486 
x,y,z [Debye]:    -2.843128     1.421106     0.008861 

 

Dipole moment calculation done in   1.1 sec 

Maximum memory used throughout the entire PROP-calculation: 12.0 MB

--------------------------------
SUGGESTED CITATIONS FOR THIS RUN
--------------------------------

Below you find a list of papers that are relevant to this ORCA run
We neither can nor want to force you to cite these papers, but we appreciate if you do
You receive ORCA, which is the product of decades of hard work by many enthusiastic individuals, for free
The only thing we kindly ask in return is that you cite our papers,
We deeply appreciate it, if you show your appreciation for ORCA by not just citing the generic ORCA reference.

Please note that relegating all ORCA citations to the supporting information does *not* help us.
[...]
Iteration    Energy (Eh)           Delta-E    RMSDP     MaxDP     MaxGrad    Time(sec)
--------------------------------------------------------------------------------------
    1    -566.0767523151016576     0.00e+00  5.16e-07  1.24e-05  2.86e-06     1.3
               *** Restarting incremental Fock matrix formation ***
    2    -566.0767523156623611    -5.61e-10  6.79e-07  2.21e-05  7.29e-06     1.2
                  *** Gradient check signals convergence ***

               *****************************************************
               *                     SUCCESS                       *
               *           SCF CONVERGED AFTER   2 CYCLES          *
               *****************************************************

             **** ENERGY FILE WAS UPDATED (xtb_opt.en.tmp) ****

----------------
TOTAL SCF ENERGY
----------------

Total Energy       :       -566.07675231566236 Eh          -15403.73154 eV

Components:
Nuclear Repulsion  :        417.48324626519479 Eh           11360.29668 eV
Electronic Energy  :       -983.55999858085715 Eh          -26764.02822 eV
One Electron Energy:      -1610.54656141237888 Eh          -43825.19997 eV
Two Electron Energy:        626.98656283152172 Eh           17061.17175 eV

Virial components:
Potential Energy   :      -1130.13586759440386 Eh          -30752.56039 eV
Kinetic Energy     :        564.05911527874139 Eh           15348.82885 eV
Virial Ratio       :          2.00357699571245

DFT components:
N(Alpha)           :       31.999973951088 electrons
N(Beta)            :       31.999973951088 electrons
N(Total)           :       63.999947902175 electrons
E(X)               :      -63.576828000427 Eh       
E(C)               :       -2.174364088340 Eh       
E(XC)              :      -65.751192088767 Eh       

---------------
SCF CONVERGENCE
---------------

  Last Energy change         ...    5.6070e-10  Tolerance :   1.0000e-07
  Last MAX-Density change    ...    2.2120e-05  Tolerance :   1.0000e-07
  Last RMS-Density change    ...    6.7877e-07  Tolerance :   5.0000e-09
  Last DIIS Error            ...    1.8892e-05  Tolerance :   1.0000e-07
  Last Orbital Gradient      ...    7.2894e-06  Tolerance :   1.0000e-04
  Last Orbital Rotation      ...    1.7791e-05  Tolerance :   1.0000e-04


----------------
ORBITAL ENERGIES
----------------

  NO   OCC          E(Eh)            E(eV) 
   0   2.0000     -24.534366      -667.6140 
   1   2.0000     -24.533545      -667.5917 
   2   2.0000     -24.533456      -667.5893 
   3   2.0000     -19.039907      -518.1022 
   4   2.0000     -18.975986      -516.3628 
   5   2.0000     -10.303716      -280.3784 
   6   2.0000     -10.197986      -277.5013 
   7   2.0000     -10.114095      -275.2185 
   8   2.0000      -1.288223       -35.0543 
   9   2.0000      -1.202325       -32.7169 
  10   2.0000      -1.201097       -32.6835 
  11   2.0000      -1.107747       -30.1433 
  12   2.0000      -1.022870       -27.8337 
  13   2.0000      -0.752770       -20.4839 
  14   2.0000      -0.690502       -18.7895 
  15   2.0000      -0.605125       -16.4663 
  16   2.0000      -0.571580       -15.5535 
  17   2.0000      -0.571172       -15.5424 
  18   2.0000      -0.545863       -14.8537 
  19   2.0000      -0.479612       -13.0509 
  20   2.0000      -0.472285       -12.8515 
  21   2.0000      -0.447164       -12.1680 
  22   2.0000      -0.441001       -12.0003 
  23   2.0000      -0.437654       -11.9092 
  24   2.0000      -0.412302       -11.2193 
  25   2.0000      -0.404424       -11.0049 
  26   2.0000      -0.388265       -10.5652 
  27   2.0000      -0.385748       -10.4967 
  28   2.0000      -0.381862       -10.3910 
  29   2.0000      -0.357150        -9.7186 
  30   2.0000      -0.311544        -8.4776 
  31   2.0000      -0.280208        -7.6248 
  32   0.0000      -0.069888        -1.9017 
  33   0.0000       0.034021         0.9258 
  34   0.0000       0.074052         2.0150 
  35   0.0000       0.103343         2.8121 
  36   0.0000       0.118294         3.2190 
  37   0.0000       0.132026         3.5926 
  38   0.0000       0.141538         3.8514 
  39   0.0000       0.158885         4.3235 
  40   0.0000       0.171727         4.6729 
  41   0.0000       0.174622         4.7517 
  42   0.0000       0.189586         5.1589 
*Only the first 10 virtual orbitals were printed.
Total SCF time: 0 days 0 hours 0 min 3 sec 
Finished LeanSCF after   5.1 sec

Maximum memory used throughout the entire LEANSCF-calculation: 19.4 MB


-------------------------------------------------------------------------------
                          DFT DISPERSION CORRECTION                            
                                                                               
                                DFTD4 V3.4.0                                   
-------------------------------------------------------------------------------
-------------------------   ----------------
Dispersion correction           -0.002398869
-------------------------   ----------------

------------------   -----------------
gCP correction             0.012677217
------------------   -----------------

-------------------------   --------------------
FINAL SINGLE POINT ENERGY      -566.066473967831
-------------------------   --------------------

------------------------------------------------------------------------------
                         ORCA SCF GRADIENT CALCULATION
------------------------------------------------------------------------------

Nuc. rep. gradient        (SHARK) ... done (  0.0 sec)
HCore & Overlap gradient  (SHARK) ... done (  0.1 sec)
Split-RIJ-J gradient      (SHARK) ... done (  1.0 sec)
XC gradient                       ... done (  3.0 sec)
Dispersion correction             ... done (  0.0 sec)

-------------------
DISPERSION GRADIENT
-------------------

   1   C   :   -0.000053690    0.000011923   -0.000001597
   2   O   :   -0.000028604    0.000014695   -0.000002443
   3   C   :    0.000013194   -0.000003216    0.000000469
   4   O   :   -0.000013701   -0.000037281    0.000007997
   5   C   :    0.000035717   -0.000008759    0.000001191
   6   F   :    0.000041165    0.000016564   -0.000002907
   7   F   :    0.000035342   -0.000007932    0.000014384
   8   F   :    0.000035534   -0.000011809   -0.000012748
   9   H   :   -0.000021665    0.000006225    0.000003404
  10   H   :   -0.000021831    0.000004418   -0.000004879
  11   H   :   -0.000021460    0.000015171   -0.000002871

Difference to translation invariance:
           :   -0.0000000000   -0.0000000000   -0.0000000000

Difference to rotation invariance:
           :    0.0000000000    0.0000000000    0.0000000000

Norm of the Dispersion gradient    ...    0.0001185202
RMS gradient                       ...    0.0000206317
MAX gradient                       ...    0.0000536904
gCP correction                   ... done

------------------
CARTESIAN GRADIENT
------------------

   1   C   :   -0.000079560   -0.000011314   -0.000005137
   2   O   :    0.000040554    0.000055000    0.000054773
   3   C   :   -0.000003835   -0.000091683    0.000017425
   4   O   :    0.000023453    0.000036813   -0.000085604
   5   C   :   -0.000055686    0.000004200   -0.000048353
   6   F   :   -0.000000687   -0.000045120   -0.000008634
   7   F   :    0.000000653    0.000048065   -0.000008923
   8   F   :    0.000022899    0.000012727    0.000049252
   9   H   :    0.000023797    0.000012916   -0.000002785
  10   H   :    0.000024746    0.000004333    0.000029644
  11   H   :    0.000003666   -0.000025937    0.000008341

Difference to translation invariance:
           :    0.0000000000   -0.0000000000    0.0000000000

Difference to rotation invariance:
           :    0.0001198455    0.0001193146    0.0001739584

Norm of the Cartesian gradient     ...    0.0002195168
RMS gradient                       ...    0.0000382130
MAX gradient                       ...    0.0000916833

-------
TIMINGS
-------

Total SCF gradient time     ....        4.172 sec

Densities                   ....       0.000 sec  (  0.0%)
One electron gradient       ....       0.120 sec  (  2.9%)
RI-J Coulomb gradient       ....       0.981 sec  ( 23.5%)
XC gradient                 ....       3.027 sec  ( 72.5%)

Maximum memory used throughout the entire SCFGRAD-calculation: 33.7 MB

------------------------------------------------------------------------------
                              ORCA PROPERTY CALCULATIONS
------------------------------------------------------------------------------

GBWName                                 ... xtb_opt.gbw
Number of atoms                         ...     11
Number of basis functions               ...    192
Max core memory                         ...   1024 MB

Electric properties:
Dipole moment                           ... YES
Quadrupole moment                       ...  NO
Static polarizability (Dipole/Dipole)   ...  NO
Static polarizability (Dipole/Quad.)    ...  NO
Static polarizability (Quad./Quad.)     ...  NO
Static polarizability (Velocity)        ...  NO

Atomic electric properties:
Dipole moment                           ...  NO
Quadrupole moment                       ...  NO
Static polarizability                   ...  NO

Choice of electric origin               ... Center of mass
Position of electric origin             ...     0.005133     0.007792    -0.000336

General magnetic properties:
Magnetizability                         ...  NO

EPR properties:
g-Tensor (aka g-matrix)                 ...  NO
Zero-Field splitting spin-orbit         ...  NO
Zero-field splitting spin-spin          ...  NO
Hyperfine couplings                     ...  NO (   0 nuclei)
Quadrupole couplings                    ...  NO (   0 nuclei)
Contact density                         ...  NO (   0 nuclei)

NMR properties:
Chemical shifts                         ...  NO (   0 nuclei)
Spin-rotation constants                 ...  NO (   0 nuclei)
Spin-spin couplings                     ...  NO (   0 nuclei,    0 pairs)

Choice of magnetic origin               ... GIAO
Position of magnetic origin             ...     0.000000     0.000000     0.000000

Properties with geometric perturbations:
SCF Hessian                             ...  NO
IR spectrum                             ...  NO
VCD spectrum                            ...  NO
X-ray spectroscopy properties:
SCF XES/XAS/RIXS spectra                ...  NO


-------------
DIPOLE MOMENT
-------------

Method             : SCF
Type of density    : Electron Density
Multiplicity       :   1
Irrep              :   0
Energy             :  -566.0767523156623611 Eh
Relativity type    : 
Basis              : AO
                                X                 Y                 Z
Electronic contribution:     11.460421466      -1.552183175       0.143734405
Nuclear contribution   :    -12.481545452       2.252051601      -0.266742683
                        -----------------------------------------
Total Dipole Moment    :     -1.021123985       0.699868427      -0.123008278
                        -----------------------------------------
Magnitude (a.u.)       :      1.244042220
Magnitude (Debye)      :      3.162104026



--------------------
Rotational spectrum 
--------------------
 
Rotational constants in cm-1:             0.119633             0.049836             0.043717 
Rotational constants in MHz :          3586.495677          1494.041714          1310.612266 

Dipole components along the rotational axes: 
x,y,z [a.u.] :    -1.123076     0.535088     0.004688 
x,y,z [Debye]:    -2.854632     1.360086     0.011916 

 

Dipole moment calculation done in   0.3 sec 

Maximum memory used throughout the entire PROP-calculation: 12.0 MB

--------------------------------
SUGGESTED CITATIONS FOR THIS RUN
--------------------------------

Below you find a list of papers that are relevant to this ORCA run
We neither can nor want to force you to cite these papers, but we appreciate if you do
You receive ORCA, which is the product of decades of hard work by many enthusiastic individuals, for free
The only thing we kindly ask in return is that you cite our papers,
We deeply appreciate it, if you show your appreciation for ORCA by not just citing the generic ORCA reference.

Please note that relegating all ORCA citations to the supporting information does *not* help us.
SI sections are not indexed - citations you put there will not count into any citation statistics
But we need these citations in order to attract the funding resources that allow us to do what we are doing

Therefore, if you are a happy ORCA user, please consider citing a few of the papers listed below in the main body of your paper

In addition to the list printed below, the program has created the file xtb_opt.bibtex that contains the list in bibtex format
You can import this file easily into all common literature databanks and citation aid programs


List of essential papers. We consider these as the minimum necessary citations

  1. Neese,F.
     Software update: the ORCA program system, version 5.0
     WIRES Comput. Molec. Sci., 2022 12(1)e1606
     doi.org/10.1002/wcms.1606
  2. Grimme,S.; Hansen,A.; Ehlert,S.; Mewes,J.
     r2SCAN-3c: A 'Swiss army knife' composite electronic-structure method
     J. Chem. Phys., 2021 154 064103
     doi.org/10.1063/5.0040021

List of papers to cite with high priority. The work reported in these papers was absolutely
necessary for this run to complete.
Our perspective: the developers of density functionals and basis sets usually get cited in chemistry papers
Good! But without the algorithms to do something with them, the functionals or basis sets would not do anything.
Hence, in our opinion, the algorithm design and method developments papers are equally worthy of getting cited

  1. Neese,F.
     An improvement of the resolution of the identity approximation for the formation of the Coulomb matrix
     J. Comp. Chem., 2003 24(14)1740-1747
     doi.org/10.1002/jcc.10318
  2. Neese,F.
     The SHARK Integral Generation and Digestion System
     J. Comp. Chem., 2022  1-16
     doi.org/10.1002/jcc.26942
  3. Lehtola,S.; Steigemann,C.; Oliveira,M.; Marques,M.
     Recent developments in Libxc - A comprehensive library of functionals for density functional theory
     Software X, 2018 7 
     doi.org/10.1016/j.softx.2017.11.002
  4. Caldeweyher,E.; Bannwarth,C.; Grimme,S.
     Extension of the D3 dispersion coefficient model
     J. Chem. Phys., 2017 147 034112
     doi.org/10.1063/1.4993215
  5. Caldeweyher,E.; Ehlert,S.; Hansen,A.; Neugebauer,H.; Spicher,S.; Bannwarth,C.; Grimme,S.
     A generally applicable atomic-charge dependent London dispersion correction
     J. Chem. Phys., 2019 150 154122
     doi.org/10.1063/1.5090222
  6. Caldeweyher,E.; Mewes,J.; Ehlert,S.; Grimme,S.
     Extension and evaluation of the D4 London-dispersion model for periodic systems
     Phys. Chem. Chem. Phys., 2020 22(16)8499-8512
     doi.org/10.1039/D0CP00502A
  7. Wittmann,L.; Gordiy,I.; Friede,M.; Helmich-Paris,B.; Grimme,S.; Hansen,A.; Bursch,M.
     Extension of the D3 and D4 London Dispersion Corrections to the full Actinides Series
     Phys. Chem. Chem. Phys., 2024 26(32)21379-21394
     doi.org/https://doi.org/10.1039/D4CP01514B 

List of suggested additional citations. These are papers that are important in the 'surrounding' of 
of this run, or papers that preceded the highly important papers. If you like your results we are grateful for a citation.

  1. Neese,F.
     The ORCA program system
     WIRES Comput. Molec. Sci., 2012 2(1)73-78
     doi.org/10.1002/wcms.81
  2. Neese,F.
     Software update: the ORCA program system, version 4.0
     WIRES Comput. Molec. Sci., 2018 8(1)1-6
     doi.org/10.1002/wcms.1327
  3. Neese,F.; Wennmohs,F.; Becker,U.; Riplinger,C.
     The ORCA quantum chemistry program package
     J. Chem. Phys., 2020 152 Art. No. L224108
     doi.org/10.1063/5.0004608

List of optional additional citations

  1. Neese,F.
     Approximate second-order SCF convergence for spin unrestricted wavefunctions
     Chem. Phys. Lett., 2000 325(1-3)93-98
     doi.org/10.1016/s0009-2614(00)00662-x

Timings for individual modules:

Sum of individual times          ...       11.134 sec (=   0.186 min)
Startup calculation              ...        0.795 sec (=   0.013 min)   7.1 %
SCF iterations                   ...        5.196 sec (=   0.087 min)  46.7 %
Property calculations            ...        0.348 sec (=   0.006 min)   3.1 %
SCF Gradient evaluation          ...        4.794 sec (=   0.080 min)  43.1 %
                             ****ORCA TERMINATED NORMALLY****
TOTAL RUN TIME: 0 days 0 hours 0 minutes 13 seconds 738 msec
  ------------------------------------------------------------------------
          * successful ORCA run, taking over control again...

         :::::::::::::::::::::::::::::::::::::::::::::::::::::
         ::                  ORCA SUMMARY                   ::
         :::::::::::::::::::::::::::::::::::::::::::::::::::::
         :: total energy            -566.066473967831 Eh    ::
         :: gradient norm              0.000219516782 Eh/a0 ::
         :: HOMO-LUMO gap              0.000000000000 eV    ::
         :::::::::::::::::::::::::::::::::::::::::::::::::::::

           -------------------------------------------------
          |                Property Printout                |
           -------------------------------------------------
           -------------------------------------------------
          |                Geometry Summary                 |
           -------------------------------------------------

      molecular mass/u    :      128.0500493
   center of mass at/Å    :        0.0027308       0.0041195      -0.0001773
  moments of inertia/u·Å² :        0.1409146E+03   0.3382634E+03   0.3856068E+03
rotational constants/cm⁻¹ :        0.1196302E+00   0.4983581E-01   0.4371715E-01

 * 8 selected distances

     #   Z          #   Z                                           value/Å
     2   8 O        3   6 C                                       1.3314096
     3   6 C        4   8 O                                       1.2014120
     5   6 C        6   9 F                                       1.3407299
     5   6 C        7   9 F                                       1.3441275
     5   6 C        8   9 F                                       1.3461237 (max)
     1   6 C        9   1 H                                       1.0921795
     1   6 C       10   1 H                                       1.0921082
     1   6 C       11   1 H                                       1.0884554 (min)

 * 3 distinct bonds (by element types)

   Z      Z             #   av. dist./Å        max./Å        min./Å
   1 H    6 C           3     1.0909144     1.0921795     1.0884554
   6 C    8 O           2     1.2664108     1.3314096     1.2014120
   6 C    9 F           3     1.3436604     1.3461237     1.3407299


optimized geometry written to: xtbopt.coord


           -------------------------------------------------
          | TOTAL ENERGY             -566.066473967831 Eh   |
          | GRADIENT NORM               0.000219516782 Eh/α |
           -------------------------------------------------

------------------------------------------------------------------------
 * finished run on 2025/04/15 at 19:13:24.936     
------------------------------------------------------------------------
 total:
 * wall-time:     0 d,  0 h,  2 min, 34.264 sec
 *  cpu-time:     0 d,  0 h,  0 min,  1.931 sec
 * ratio c/w:     0.013 speedup
 SCF:
 * wall-time:     0 d,  0 h,  0 min, 17.371 sec
 *  cpu-time:     0 d,  0 h,  0 min,  0.724 sec
 * ratio c/w:     0.042 speedup
 ANC optimizer:
 * wall-time:     0 d,  0 h,  2 min, 16.877 sec
 *  cpu-time:     0 d,  0 h,  0 min,  1.170 sec
 * ratio c/w:     0.009 speedup

