16
 energy: -400.832859941637 gnorm: 0.001349799502 xtb: 6.7.1 (edcfbbe)
C            2.49215777387524        1.17805281963168       -0.29030191208135
C            1.70011445462159       -0.08462814822185       -0.03511616217790
O            2.25589174569192       -1.14985705827307        0.15942423617442
C            0.20757286034880        0.00740811887292       -0.02549682805065
C           -0.49161445231900        1.20009399146133       -0.21965788587927
C           -1.87918166914969        1.18002774279929       -0.18992044055406
C           -2.52061490144507       -0.03434489393246        0.03313714657076
N           -1.87251606521283       -1.19090899553176        0.22004118630361
C           -0.54126440048613       -1.15839934220193        0.18900621222743
H            2.27652504816358        1.92958673607794        0.47716189351936
H            2.22633519450792        1.61532368079807       -1.25849296699882
H            3.55485450148681        0.93783387265461       -0.27663886403689
H            0.03316819162039        2.13402946112431       -0.39140163756204
H           -2.45594151732351        2.08714114240009       -0.33654784829336
H           -3.60794109417228       -0.08341025676500        0.06404789080944
H           -0.01526452820381       -2.09825035509776        0.34011040630079
16
 energy: -400.832861845657 gnorm: 0.000632215083 xtb: 6.7.1 (edcfbbe)
C            2.49243814238386        1.17844619523672       -0.29018857769656
C            1.69955521048741       -0.08405715246443       -0.03540647768026
O            2.25564513082709       -1.15002493272196        0.15837215554509
C            0.20688980940049        0.00770703847153       -0.02585039081856
C           -0.49178197140113        1.20051906988358       -0.21984366796409
C           -1.87938919972391        1.17980926114513       -0.18947808037198
C           -2.52044412694105       -0.03471656249757        0.03312191471647
N           -1.87298849195839       -1.19157649213380        0.21987950474904
C           -0.54180660320065       -1.15796364304204        0.18936751334142
H            2.27784609520007        1.93064337849591        0.47694064247258
H            2.22792025381724        1.61476218131694       -1.25954508775219
H            3.55494337907962        0.93725311842857       -0.27569090396965
H            0.03372172678021        2.13420820644485       -0.39114824981950
H           -2.45677083100757        2.08639601200882       -0.33519464338173
H           -3.60769319157865       -0.08408811353426        0.06284019126212
H           -0.01580415289018       -2.09761904656216        0.34117848351274
16
 energy: -400.832861845657 gnorm: 0.000632215083 xtb: 6.7.1 (edcfbbe)
C            2.49243814238386        1.17844619523672       -0.29018857769656
C            1.69955521048741       -0.08405715246443       -0.03540647768026
O            2.25564513082709       -1.15002493272196        0.15837215554509
C            0.20688980940049        0.00770703847153       -0.02585039081856
C           -0.49178197140113        1.20051906988358       -0.21984366796409
C           -1.87938919972391        1.17980926114513       -0.18947808037198
C           -2.52044412694105       -0.03471656249757        0.03312191471647
N           -1.87298849195839       -1.19157649213380        0.21987950474904
C           -0.54180660320065       -1.15796364304204        0.18936751334142
H            2.27784609520007        1.93064337849591        0.47694064247258
H            2.22792025381724        1.61476218131694       -1.25954508775219
H            3.55494337907962        0.93725311842857       -0.27569090396965
H            0.03372172678021        2.13420820644485       -0.39114824981950
H           -2.45677083100757        2.08639601200882       -0.33519464338173
H           -3.60769319157865       -0.08408811353426        0.06284019126212
H           -0.01580415289018       -2.09761904656216        0.34117848351274
