
                                 *****************
                                 * O   R   C   A *
                                 *****************

                                            #,                                       
                                            ###                                      
                                            ####                                     
                                            #####                                    
                                            ######                                   
                                           ########,                                 
                                     ,,################,,,,,                         
                               ,,#################################,,                 
                          ,,##########################################,,             
                       ,#########################################, ''#####,          
                    ,#############################################,,   '####,        
                  ,##################################################,,,,####,       
                ,###########''''           ''''###############################       
              ,#####''   ,,,,##########,,,,          '''####'''          '####       
            ,##' ,,,,###########################,,,                        '##       
           ' ,,###''''                  '''############,,,                           
         ,,##''                                '''############,,,,        ,,,,,,###''
      ,#''                                            '''#######################'''  
     '                                                          ''''####''''         
             ,#######,   #######,   ,#######,      ##                                
            ,#'     '#,  ##    ##  ,#'     '#,    #''#        ,####,   ,####,        
            ##       ##  ##   ,#'  ##            #'  '#       #'       #'  '#        
            ##       ##  #######   ##           ,######,      #####,   #    #        
            '#,     ,#'  ##    ##  '#,     ,#' ,#      #,     #,   #   #,  ,#        
             '#######'   ##     ##  '#######'  #'      '#     '####' # '####'        



                #########################################################
                #                        -***-                          #
                #          Department of theory and spectroscopy        #
                #                                                       #
                #                      Frank Neese                      #
                #                                                       #
                #     Directorship, Architecture, Infrastructure        #
                #                    SHARK, DRIVERS                     #
                #        Core code/Algorithms in most modules           #
                #                                                       #
                #        Max Planck Institute fuer Kohlenforschung      #
                #                Kaiser Wilhelm Platz 1                 #
                #                 D-45470 Muelheim/Ruhr                 #
                #                      Germany                          #
                #                                                       #
                #                  All rights reserved                  #
                #                        -***-                          #
                #########################################################


                         Program Version 6.0.0  -   RELEASE  -


 With contributions from (in alphabetic order):
   Daniel Aravena         : Magnetic Suceptibility
   Michael Atanasov       : Ab Initio Ligand Field Theory (pilot matlab implementation)
   Alexander A. Auer      : GIAO ZORA, VPT2 properties, NMR spectrum
   Ute Becker             : All parallelization in ORCA, NUMFREQ, NUMCALC
   Giovanni Bistoni       : ED, misc. LED, open-shell LED, HFLD
   Martin Brehm           : Molecular dynamics
   Dmytro Bykov           : pre 5.0 version of the SCF Hessian
   Marcos Casanova-Páez   : Triplet and SCS-CIS(D). UHF-(DLPNO)-IP/EA/STEOM-CCSD. UHF-CVS-IP/STEOM-CCSD
   Vijay G. Chilkuri      : MRCI spin determinant printing, contributions to CSF-ICE
   Pauline Colinet        : FMM embedding
   Dipayan Datta          : RHF DLPNO-CCSD density
   Achintya Kumar Dutta   : EOM-CC, STEOM-CC
   Nicolas Foglia         : Exact transition moments, OPA infrastructure, MCD improvements
   Dmitry Ganyushin       : Spin-Orbit,Spin-Spin,Magnetic field MRCI
   Miquel Garcia          : C-PCM and meta-GGA Hessian, CCSD/C-PCM, Gaussian charge scheme
   Tiago L. C. Gouveia    : GS-ROHF, GS-ROCIS
   Yang Guo               : DLPNO-NEVPT2, F12-NEVPT2, CIM, IAO-localization
   Andreas Hansen         : Spin unrestricted coupled pair/coupled cluster methods
   Ingolf Harden          : AUTO-CI MPn and infrastructure 
   Benjamin Helmich-Paris : MC-RPA, TRAH-(SCF,CASSCF), AVAS, COSX integrals, SCF dyn. polar.
   Lee Huntington         : MR-EOM, pCC
   Robert Izsak           : Overlap fitted RIJCOSX, COSX-SCS-MP3, EOM
   Riya Kayal             : Wick's Theorem for AUTO-CI, AUTO-CI UHF-CCSDT
   Emily Kempfer          : AUTO-CI, RHF CISDT and CCSDT
   Christian Kollmar      : KDIIS, OOCD, Brueckner-CCSD(T), CCSD density, CASPT2, CASPT2-K, improved NEVPT2
   Axel Koslowski         : Symmetry handling
   Simone Kossmann        : Meta GGA functionals, TD-DFT gradient, OOMP2, (MP2 Hessian; deprecated post 5.0)
   Lucas Lang             : DCDCAS
   Marvin Lechner         : AUTO-CI (C++ implementation), FIC-MRCC
   Spencer Leger          : CASSCF response
   Dagmar Lenk            : GEPOL surface, SMD, ORCA-2-JSON
   Dimitrios Liakos       : Extrapolation schemes; Compound Job, initial MDCI parallelization
   Dimitrios Manganas     : Further ROCIS development; embedding schemes. LFT, Crystal Embedding
   Dimitrios Pantazis     : SARC Basis sets
   Anastasios Papadopoulos: AUTO-CI, single reference methods and gradients
   Taras Petrenko         : pre 6.0 DFT Hessian and TD-DFT gradient, (ASA, deprecated), ECA, 1-Electron XAS/XES, NRVS
   Peter Pinski           : DLPNO-MP2, DLPNO-MP2 Gradient
   Christoph Reimann      : Effective Core Potentials
   Marius Retegan         : Local ZFS, SOC
   Christoph Riplinger    : Optimizer, TS searches, QM/MM, DLPNO-CCSD(T), (RO)-DLPNO pert. Triples
   Michael Roemelt        : Original ROCIS implementation
   Masaaki Saitow         : Open-shell DLPNO-CCSD energy and density
   Barbara Sandhoefer     : DKH picture change effects
   Kantharuban Sivalingam : CASSCF convergence/infrastructure, NEVPT2 and variants, FIC-MRCI
   Bernardo de Souza      : ESD, SOC TD-DFT
   Georgi Stoychev        : AutoAux, RI-MP2 NMR, DLPNO-MP2 response, X2C
   Van Anh Tran           : RI-MP2 g-tensors
   Willem Van den Heuvel  : Paramagnetic NMR
   Zikuan Wang            : NOTCH, Electric field optimization 
   Frank Wennmohs         : Technical directorship and infrastructure
   Hang Xu                : AUTO-CI-Response properties 


 We gratefully acknowledge several colleagues who have allowed us to
 interface, adapt or use parts of their codes:
   Stefan Grimme, W. Hujo, H. Kruse, P. Pracht,  : VdW corrections, initial TS optimization,
                  C. Bannwarth, S. Ehlert,         DFT functionals, gCP, sTDA/sTD-DF
                  L. Wittmann, M. Mueller
   Ed Valeev, F. Pavosevic, A. Kumar             : LibInt (2-el integral package), F12 methods
   Garnet Chan, S. Sharma, J. Yang, R. Olivares  : DMRG
   Ulf Ekstrom                                   : XCFun DFT Library
   Mihaly Kallay                                 : mrcc  (arbitrary order and MRCC methods)
   Frank Weinhold                                : gennbo (NPA and NBO analysis)
   Simon Mueller                                 : openCOSMO-RS
   Christopher J. Cramer and Donald G. Truhlar   : smd solvation model
   Lars Goerigk                                  : TD-DFT with DH, B97 family of functionals
   V. Asgeirsson, H. Jonsson                     : NEB implementation
   FAccTs GmbH                                   : IRC, NEB, NEB-TS, DLPNO-Multilevel, CI-OPT
                                                   MM, QMMM, 2- and 3-layer-ONIOM, Crystal-QMMM,
                                                   LR-CPCM, SF, NACMEs, symmetry and pop. for TD-DFT,
                                                   nearIR, NL-DFT gradient (VV10), updates on ESD,
                                                   ML-optimized integration grids, MBIS, APM,
                                                   GOAT, DOCKER, SOLVATOR, interface openCOSMO-RS
   S Lehtola, MJT Oliveira, MAL Marques          : LibXC Library
   Liviu Ungur et al                             : ANISO software


 Your calculation uses the libint2 library for the computation of 2-el integrals
 For citations please refer to: http://libint.valeyev.net

 Your ORCA version has been built with support for libXC version: 6.2.2
 For citations please refer to: https://libxc.gitlab.io

 This ORCA versions uses:
   CBLAS   interface :  Fast vector & matrix operations
   LAPACKE interface :  Fast linear algebra routines
   SCALAPACK package :  Parallel linear algebra routines
   Shared memory     :  Shared parallel matrices
   BLAS/LAPACK       :  OpenBLAS 0.3.27  USE64BITINT DYNAMIC_ARCH NO_AFFINITY SkylakeX SINGLE_THREADED
        Core in use  :  SkylakeX
   Copyright (c) 2011-2014, The OpenBLAS Project




***************************************
The coordinates will be read from file: vacuum_censo.xyz
***************************************


Your calculation utilizes the geometrical counterpoise correction gCP
Please cite in your paper:
H.Kruse, S. Grimme J.Chem.Phys., 136, (2012), 154101 
   

Your calculation utilizes the atom-pairwise dispersion correction
based on EEQ partial charges (D4)


================================================================================

----- Orbital basis set information -----
Your calculation utilizes the basis: def2-TZVP
   F. Weigend and R. Ahlrichs, Phys. Chem. Chem. Phys. 7, 3297 (2005).

----- AuxJ basis set information -----
Your calculation utilizes the basis: def2-mTZVPP/J
   Stefan Grimme, Andreas Hansen, Sebastian Ehlert, and Jan-Michael Mewes 
   J. Chem. Phys. 154, 000000 (2021). DOI: 10.1063/5.0040021

================================================================================
                                        WARNINGS
                       Please study these warnings very carefully!
================================================================================

Using LibXC functional ID 497 : Re-regularized SCAN exchange by Furness et al
[ 1]  J. W. Furness, A. D. Kaplan, J. Ning, J. P. Perdew, and J. Sun.,  J. Phys. Chem. Lett. 11, 8208-8215 (2020)
[ 2]  J. W. Furness, A. D. Kaplan, J. Ning, J. P. Perdew, and J. Sun.,  J. Phys. Chem. Lett. 11, 9248-9248 (2020)
Using LibXC functional ID 498 : Re-regularized SCAN correlation by Furness et al
[ 1]  J. W. Furness, A. D. Kaplan, J. Ning, J. P. Perdew, and J. Sun.,  J. Phys. Chem. Lett. 11, 8208-8215 (2020)
[ 2]  J. W. Furness, A. D. Kaplan, J. Ning, J. P. Perdew, and J. Sun.,  J. Phys. Chem. Lett. 11, 9248-9248 (2020)
Using LibXC functional ID 497 : Re-regularized SCAN exchange by Furness et al
[ 1]  J. W. Furness, A. D. Kaplan, J. Ning, J. P. Perdew, and J. Sun.,  J. Phys. Chem. Lett. 11, 8208-8215 (2020)
[ 2]  J. W. Furness, A. D. Kaplan, J. Ning, J. P. Perdew, and J. Sun.,  J. Phys. Chem. Lett. 11, 9248-9248 (2020)
Using LibXC functional ID 498 : Re-regularized SCAN correlation by Furness et al
[ 1]  J. W. Furness, A. D. Kaplan, J. Ning, J. P. Perdew, and J. Sun.,  J. Phys. Chem. Lett. 11, 8208-8215 (2020)
[ 2]  J. W. Furness, A. D. Kaplan, J. Ning, J. P. Perdew, and J. Sun.,  J. Phys. Chem. Lett. 11, 9248-9248 (2020)

================================================================================
                                       INPUT FILE
================================================================================
NAME = vacuum_censo.inp
|  1> ! r2SCAN-3c DEF2-TZVP FREQ
|  2> * xyzfile 0 1 vacuum_censo.xyz
|  3> 
|  4>                          ****END OF INPUT****
================================================================================

                       ****************************
                       * Single Point Calculation *
                       ****************************

---------------------------------
CARTESIAN COORDINATES (ANGSTROEM)
---------------------------------
  C     -3.666511   -0.033565   -0.013670
  C     -2.164688   -0.020432    0.009609
  C     -1.433473   -1.210210    0.007978
  C     -0.043968   -1.195051    0.001399
  C      0.653729    0.016804   -0.001409
  C     -0.076936    1.211467    0.002011
  C     -1.461038    1.190748    0.009062
  C      2.144333    0.091031   -0.002338
  O      2.715951    1.168331   -0.005676
  C      2.932203   -1.202007   -0.002235
  H     -4.063865   -0.987504    0.341807
  H     -4.079535    0.767322    0.606282
  H     -4.036840    0.121088   -1.034237
  H     -1.960452   -2.160309    0.013236
  H      0.492447   -2.137943    0.002555
  H      0.471301    2.147579    0.003835
  H     -2.013897    2.126433    0.015585
  H      2.691795   -1.803519    0.881150
  H      3.996054   -0.965868   -0.003734
  H      2.689855   -1.805881   -0.883522

----------------------------
CARTESIAN COORDINATES (A.U.)
----------------------------
  NO LB      ZA    FRAG     MASS         X           Y           Z
   0 C     6.0000    0    12.011   -6.928701   -0.063429   -0.025832
   1 C     6.0000    0    12.011   -4.090667   -0.038612    0.018158
   2 C     6.0000    0    12.011   -2.708872   -2.286965    0.015077
   3 C     6.0000    0    12.011   -0.083088   -2.258318    0.002644
   4 C     6.0000    0    12.011    1.235369    0.031755   -0.002662
   5 C     6.0000    0    12.011   -0.145389    2.289340    0.003801
   6 C     6.0000    0    12.011   -2.760962    2.250187    0.017125
   7 C     6.0000    0    12.011    4.052202    0.172024   -0.004419
   8 O     8.0000    0    15.999    5.132403    2.207825   -0.010726
   9 C     6.0000    0    12.011    5.541060   -2.271465   -0.004224
  10 H     1.0000    0     1.008   -7.679591   -1.866111    0.645921
  11 H     1.0000    0     1.008   -7.709203    1.450028    1.145708
  12 H     1.0000    0     1.008   -7.628523    0.228823   -1.954426
  13 H     1.0000    0     1.008   -3.704717   -4.082392    0.025013
  14 H     1.0000    0     1.008    0.930589   -4.040127    0.004828
  15 H     1.0000    0     1.008    0.890631    4.058336    0.007247
  16 H     1.0000    0     1.008   -3.805714    4.018377    0.029451
  17 H     1.0000    0     1.008    5.086755   -3.408157    1.665131
  18 H     1.0000    0     1.008    7.551448   -1.825227   -0.007055
  19 H     1.0000    0     1.008    5.083089   -3.412620   -1.669614

--------------------------------
INTERNAL COORDINATES (ANGSTROEM)
--------------------------------
 C      0   0   0     0.000000000000     0.00000000     0.00000000
 C      1   0   0     1.502061211214     0.00000000     0.00000000
 C      2   1   0     1.396512247432   121.06769917     0.00000000
 C      3   2   1     1.389603325547   120.94898981   178.64679405
 C      4   3   2     1.398349196947   120.55543392     0.11121716
 C      5   4   3     1.400393847321   118.61903917   359.97507267
 C      6   5   4     1.384274760101   120.59295761     0.04891717
 C      5   4   3     1.492451205711   122.78099709   179.72128374
 O      8   5   4     1.219562110866   120.80131043   179.95259896
 C      8   5   4     1.514162432353   118.50383668     0.09002051
 H      1   2   3     1.092818503139   111.47760817    21.44934248
 H      1   2   3     1.093777440693   111.24559784   142.71717172
 H      1   2   3     1.096640127146   110.53813658   261.76918275
 H      3   2   1     1.086472566354   119.40992336   358.56696911
 H      4   3   2     1.084798915816   119.00994775   179.86447351
 H      6   5   4     1.084838479773   118.19430521   179.75830074
 H      7   6   5     1.086831956568   119.72051073   179.76065657
 H     10   8   5     1.095436543657   110.77983445   300.44384739
 H     10   8   5     1.089744599191   108.83979039   179.95818209
 H     10   8   5     1.095472980126   110.82873717    59.44443663

---------------------------
INTERNAL COORDINATES (A.U.)
---------------------------
 C      0   0   0     0.000000000000     0.00000000     0.00000000
 C      1   0   0     2.838484325580     0.00000000     0.00000000
 C      2   1   0     2.639025690314   121.06769917     0.00000000
 C      3   2   1     2.625969720070   120.94898981   178.64679405
 C      4   3   2     2.642497021819   120.55543392     0.11121716
 C      5   4   3     2.646360851066   118.61903917   359.97507267
 C      6   5   4     2.615900190691   120.59295761     0.04891717
 C      5   4   3     2.820324047034   122.78099709   179.72128374
 O      8   5   4     2.304638392843   120.80131043   179.95259896
 C      8   5   4     2.861352319420   118.50383668     0.09002051
 H      1   2   3     2.065127685014   111.47760817    21.44934248
 H      1   2   3     2.066939814370   111.24559784   142.71717172
 H      1   2   3     2.072349507774   110.53813658   261.76918275
 H      3   2   1     2.053135602428   119.40992336   358.56696911
 H      4   3   2     2.049972861268   119.00994775   179.86447351
 H      6   5   4     2.050047626311   118.19430521   179.75830074
 H      7   6   5     2.053814751507   119.72051073   179.76065657
 H     10   8   5     2.070075064601   110.77983445   300.44384739
 H     10   8   5     2.059318848392   108.83979039   179.95818209
 H     10   8   5     2.070143919548   110.82873717    59.44443663

---------------------
BASIS SET INFORMATION
---------------------
There are 3 groups of distinct atoms

 Group   1 Type C   : 11s6p2d1f contracted to 5s3p2d1f pattern {62111/411/11/1}
 Group   2 Type O   : 11s6p2d1f contracted to 5s3p2d1f pattern {62111/411/11/1}
 Group   3 Type H   : 5s1p contracted to 3s1p pattern {311/1}

Atom   0C    basis set group =>   1
Atom   1C    basis set group =>   1
Atom   2C    basis set group =>   1
Atom   3C    basis set group =>   1
Atom   4C    basis set group =>   1
Atom   5C    basis set group =>   1
Atom   6C    basis set group =>   1
Atom   7C    basis set group =>   1
Atom   8O    basis set group =>   2
Atom   9C    basis set group =>   1
Atom  10H    basis set group =>   3
Atom  11H    basis set group =>   3
Atom  12H    basis set group =>   3
Atom  13H    basis set group =>   3
Atom  14H    basis set group =>   3
Atom  15H    basis set group =>   3
Atom  16H    basis set group =>   3
Atom  17H    basis set group =>   3
Atom  18H    basis set group =>   3
Atom  19H    basis set group =>   3
---------------------------------
AUXILIARY/J BASIS SET INFORMATION
---------------------------------
There are 3 groups of distinct atoms

 Group   1 Type C   : 8s3p3d contracted to 6s3p3d pattern {311111/111/111}
 Group   2 Type O   : 8s3p3d contracted to 6s3p3d pattern {311111/111/111}
 Group   3 Type H   : 5s2p1d contracted to 3s1p1d pattern {311/2/1}

Atom   0C    basis set group =>   1
Atom   1C    basis set group =>   1
Atom   2C    basis set group =>   1
Atom   3C    basis set group =>   1
Atom   4C    basis set group =>   1
Atom   5C    basis set group =>   1
Atom   6C    basis set group =>   1
Atom   7C    basis set group =>   1
Atom   8O    basis set group =>   2
Atom   9C    basis set group =>   1
Atom  10H    basis set group =>   3
Atom  11H    basis set group =>   3
Atom  12H    basis set group =>   3
Atom  13H    basis set group =>   3
Atom  14H    basis set group =>   3
Atom  15H    basis set group =>   3
Atom  16H    basis set group =>   3
Atom  17H    basis set group =>   3
Atom  18H    basis set group =>   3
Atom  19H    basis set group =>   3
------------------------------------------------------------------------------
                             ORCA STARTUP CALCULATIONS
                           -- RI-GTO INTEGRALS CHOSEN --
------------------------------------------------------------------------------
------------------------------------------------------------------------------
                   ___                                                        
                  /   \      - P O W E R E D   B Y -                         
                 /     \                                                     
                 |  |  |   _    _      __       _____    __    __             
                 |  |  |  | |  | |    /  \     |  _  \  |  |  /  |          
                  \  \/   | |  | |   /    \    | | | |  |  | /  /          
                 / \  \   | |__| |  /  /\  \   | |_| |  |  |/  /          
                |  |  |   |  __  | /  /__\  \  |    /   |      \           
                |  |  |   | |  | | |   __   |  |    \   |  |\   \          
                \     /   | |  | | |  |  |  |  | |\  \  |  | \   \       
                 \___/    |_|  |_| |__|  |__|  |_| \__\ |__|  \__/        
                                                                              
                      - O R C A' S   B I G   F R I E N D -                    
                                      &                                       
                       - I N T E G R A L  F E E D E R -                       
                                                                              
 v1 FN, 2020, v2 2021, v3 2022-2024                                           
------------------------------------------------------------------------------


----------------------
SHARK INTEGRAL PACKAGE
----------------------

Number of atoms                             ...     20
Number of basis functions                   ...    370
Number of shells                            ...    150
Maximum angular momentum                    ...      3
Integral batch strategy                     ... SHARK/LIBINT Hybrid
RI-J (if used) integral strategy            ... SPLIT-RIJ (Revised 2003 algorithm where possible)
Printlevel                                  ...      1
Contraction scheme used                     ... SEGMENTED contraction
Prescreening option                         ... SCHWARTZ
   Thresh                                   ... 1.000e-10
   Tcut                                     ... 1.000e-11
   Tpresel                                  ... 1.000e-11 
Coulomb Range Separation                    ... NOT USED
Exchange Range Separation                   ... NOT USED
Multipole approximations                    ... NOT USED
Finite Nucleus Model                        ... NOT USED
CABS basis                                  ... NOT available
Auxiliary Coulomb fitting basis             ... AVAILABLE
   # of basis functions in Aux-J            ...    410
   # of shells in Aux-J                     ...    170
   Maximum angular momentum in Aux-J        ...      2
Auxiliary J/K fitting basis                 ... NOT available
Auxiliary Correlation fitting basis         ... NOT available
Auxiliary 'external' fitting basis          ... NOT available

Checking pre-screening integrals            ... done (  0.0 sec) Dimension = 150
Check shell pair data                       ... done (  0.0 sec)
Shell pair information
Shell pair cut-off parameter TPreSel        ...   1.0e-11
Total number of shell pairs                 ...     11325
Shell pairs after pre-screening             ...      9700
Total number of primitive shell pairs       ...     34180
Primitive shell pairs kept                  ...     21427
          la=0 lb=0:   2650 shell pairs
          la=1 lb=0:   2771 shell pairs
          la=1 lb=1:    733 shell pairs
          la=2 lb=0:   1387 shell pairs
          la=2 lb=1:    719 shell pairs
          la=2 lb=2:    191 shell pairs
          la=3 lb=0:    665 shell pairs
          la=3 lb=1:    355 shell pairs
          la=3 lb=2:    180 shell pairs
          la=3 lb=3:     49 shell pairs

Calculating one electron integrals          ... done (  0.1 sec)
Calculating RI/J V-Matrix + Cholesky decomp.... done (  0.1 sec)
Calculating Nuclear repulsion               ... done (  0.0 sec) ENN=    481.311750254112 Eh

Diagonalization of the overlap matrix:
Smallest eigenvalue                        ... 7.388e-06
Time for diagonalization                   ...    0.014 sec
Threshold for overlap eigenvalues          ... 1.000e-07
Number of eigenvalues below threshold      ... 0
Time for construction of square roots      ...    0.022 sec
Total time needed                          ...    0.045 sec

-------------------
DFT GRID GENERATION
-------------------

General Integration Accuracy     IntAcc      ... 4.388
Radial Grid Type                 RadialGrid  ... OptM3 with GC (2021)
Angular Grid (max. ang.)         AngularGrid ... 4 (Lebedev-302)
Angular grid pruning method      GridPruning ... 4 (adaptive)
Weight generation scheme         WeightScheme... mBecke (2022)
Basis function cutoff            BFCut       ... 1.0000e-10
Integration weight cutoff        WCut        ... 1.0000e-14
Partially contracted basis set               ... off
Rotationally invariant grid construction     ... off
Angular grids for H and He will be reduced by one unit

Total number of grid points                  ...    92172
Total number of batches                      ...     1449
Average number of points per batch           ...       63
Average number of grid points per atom       ...     4609
Initializing property integral containers    ... done (  0.0 sec)

SHARK setup successfully completed in   1.5 seconds

Maximum memory used throughout the entire STARTUP-calculation: 55.8 MB
-------------------------------------------------------------------------------
                                 ORCA GUESS
                   Start orbitals & Density for SCF / CASSCF
-------------------------------------------------------------------------------

------------
SCF SETTINGS
------------
Hamiltonian:
 Density Functional     Method          .... DFT(GTOs)
  Functional kind                       .... Exchange
  Functional name                       .... Re-regularized SCAN exchange by Furness et al
  Functional family                     .... MGGA
  Functional refs                              
    [ 0] J. W. Furness, A. D. Kaplan, J. Ning, J. P. Perdew, and J. Sun.,  J. Phys. Chem. Lett. 11, 8208-8215 (2020), doi: 10.1021/acs.jpclett.0c02405
    [ 1] J. W. Furness, A. D. Kaplan, J. Ning, J. P. Perdew, and J. Sun.,  J. Phys. Chem. Lett. 11, 9248-9248 (2020), doi: 10.1021/acs.jpclett.0c03077
  Functional external parameters        .... 6
    Parameter  0 _c1        =  6.670000e-01 : c1 parameter        
    Parameter  1 _c2        =  8.000000e-01 : c2 parameter        
    Parameter  2 _d         =  1.240000e+00 : d parameter         
    Parameter  3 _k1        =  6.500000e-02 : k1 parameter        
    Parameter  4 _eta       =  1.000000e-03 : eta parameter       
    Parameter  5 _dp2       =  3.610000e-01 : dp2 parameter       
  Functional kind                       .... Correlation
  Functional name                       .... Re-regularized SCAN correlation by Furness et al
  Functional family                     .... MGGA
  Functional refs                              
    [ 0] J. W. Furness, A. D. Kaplan, J. Ning, J. P. Perdew, and J. Sun.,  J. Phys. Chem. Lett. 11, 8208-8215 (2020), doi: 10.1021/acs.jpclett.0c02405
    [ 1] J. W. Furness, A. D. Kaplan, J. Ning, J. P. Perdew, and J. Sun.,  J. Phys. Chem. Lett. 11, 9248-9248 (2020), doi: 10.1021/acs.jpclett.0c03077
  Functional external parameters        .... 1
    Parameter  0 _eta       =  1.000000e-03 : Regularization parameter
 Gradients option       PostSCFGGA      .... off
 RI-approximation to the Coulomb term is turned on
   Number of AuxJ basis functions       .... 410


General Settings:
 Integral files         IntName         .... vacuum_censo
 Hartree-Fock type      HFTyp           .... RHF
 Total Charge           Charge          ....    0
 Multiplicity           Mult            ....    1
 Number of Electrons    NEL             ....   72
 Basis Dimension        Dim             ....  370
 Nuclear Repulsion      ENuc            ....    481.3117502541 Eh

Convergence Acceleration:
 AO-DIIS                CNVDIIS         .... on
   Start iteration      DIISMaxIt       ....    12
   Startup error        DIISStart       ....  0.200000
   # of expansion vecs  DIISMaxEq       ....     5
   Bias factor          DIISBfac        ....   1.050
   Max. coefficient     DIISMaxC        ....  10.000
 MO-DIIS                CNVKDIIS        .... off
 Trust-Rad. Augm. Hess. CNVTRAH         .... auto
   Auto Start mean grad. ratio tolernc. ....  1.125000
   Auto Start start iteration           ....    50
   Auto Start num. interpolation iter.  ....    10
   Max. Number of Micro iterations      ....    24
   Max. Number of Macro iterations      .... Maxiter - #DIIS iter
   Number of Davidson start vectors     ....     2
   Converg. threshold    (grad. norm)   ....   5.000e-05
   Grad. Scal. Fac. for Micro threshold ....   0.100
   Minimum threshold for Micro iter.    ....   1.000e-02
   NR start threshold (gradient norm)   ....   1.000e-04
   Initial trust radius                 ....   0.400
   Minimum AH scaling param. (alpha)    ....   1.000
   Maximum AH scaling param. (alpha)    .... 1000.000
   Quad. conv. algorithm                .... NR
   White noise on init. David. guess    .... on
   Maximum white noise                  ....   0.010
   Pseudo random numbers                .... off
   Inactive MOs                         .... canonical
   Orbital update algorithm             .... Taylor
   Preconditioner                       .... Diag
   Full preconditioner red. dimension   ....   250
   COSX micro iterations for RIJONX calc.... off
 SOSCF                  CNVSOSCF        .... on
   Start iteration      SOSCFMaxIt      ....   150
   Startup grad/error   SOSCFStart      ....  0.003300
   Hessian update       SOSCFHessUp     .... L-BFGS
 Level Shifting         CNVShift        .... on
   Level shift para.    LevelShift      ....    0.2500
   Turn off err/grad.   ShiftErr        ....    0.0010
 Zerner damping         CNVZerner       .... off
 Static damping         CNVDamp         .... on
   Fraction old density DampFac         ....    0.7000
   Max. Damping (<1)    DampMax         ....    0.9800
   Min. Damping (>=0)   DampMin         ....    0.0000
   Turn off err/grad.   DampErr         ....    0.1000

SCF Procedure:
 Maximum # iterations   MaxIter         ....   125
 SCF integral mode      SCFMode         .... Direct
   Integral package                     .... SHARK and LIBINT hybrid scheme
 Reset frequency        DirectResetFreq ....    20
 Integral Threshold     Thresh          ....  1.000e-10 Eh
 Primitive CutOff       TCut            ....  1.000e-11 Eh

Convergence Tolerance:
 Convergence Check Mode ConvCheckMode   .... Total+1el-Energy
 Convergence forced     ConvForced      .... 0
 Energy Change          TolE            ....  1.000e-06 Eh
 1-El. energy change                    ....  1.000e-03 Eh
 Orbital Gradient       TolG            ....  5.000e-05
 Orbital Rotation angle TolX            ....  5.000e-05
 DIIS Error             TolErr          ....  1.000e-06

------------------------------
INITIAL GUESS: MODEL POTENTIAL
------------------------------
Loading Hartree-Fock densities                     ... done
Calculating cut-offs                               ... done
Initializing the effective Hamiltonian             ... done
Setting up the integral package (SHARK)            ... done
Starting the Coulomb interaction                   ... done (   0.6 sec)
Making the grid                                    ... done (   0.3 sec)
Mapping shells                                     ... done
Starting the XC term evaluation                    ... done (   0.6 sec)
  promolecular density results
     # of electrons  =     71.997477033
     EX              =    -57.105248927
     EC              =     -2.375252890
     EX+EC           =    -59.480501817
Transforming the Hamiltonian                       ... done (   0.0 sec)
Diagonalizing the Hamiltonian                      ... done (   0.0 sec)
Back transforming the eigenvectors                 ... done (   0.0 sec)
Now organizing SCF variables                       ... done
                      ------------------
                      INITIAL GUESS DONE (   1.5 sec)
                      ------------------
             **** ENERGY FILE WAS UPDATED (vacuum_censo.en.tmp) ****
Finished Guess after   1.8 sec
Maximum memory used throughout the entire GUESS-calculation: 37.6 MB

-------------------------------------------------------------------------------------------
                                      ORCA LEAN-SCF
                              memory conserving SCF solver
-------------------------------------------------------------------------------------------

----------------------------------------D-I-I-S--------------------------------------------
Iteration    Energy (Eh)           Delta-E    RMSDP     MaxDP     DIISErr   Damp  Time(sec)
-------------------------------------------------------------------------------------------
               ***  Starting incremental Fock matrix formation  ***
    1    -423.8625921653820683     0.00e+00  2.53e-03  2.74e-01  2.62e-01  0.700   5.4
    2    -423.9920402006002291    -1.29e-01  1.86e-03  1.90e-01  9.70e-02  0.700   4.7
                               ***Turning on AO-DIIS***
    3    -424.0403821536393139    -4.83e-02  5.52e-04  2.08e-02  4.08e-02  0.700   4.6
    4    -424.0699858607867441    -2.96e-02  1.19e-03  1.04e-01  1.75e-02  0.000   4.4
    5    -424.1349841725069041    -6.50e-02  3.51e-04  2.96e-02  8.04e-03  0.000   4.5
                              *** Initializing SOSCF ***
---------------------------------------S-O-S-C-F--------------------------------------
Iteration    Energy (Eh)           Delta-E    RMSDP     MaxDP     MaxGrad    Time(sec)
--------------------------------------------------------------------------------------
    6    -424.1355248638422495    -5.41e-04  1.12e-04  8.21e-03  1.61e-03     4.2
               *** Restarting incremental Fock matrix formation ***
    7    -424.1355542298976502    -2.94e-05  9.79e-05  7.60e-03  4.34e-04     5.2
    8    -424.1355468281424805     7.40e-06  3.18e-05  3.54e-03  1.02e-03     3.9
    9    -424.1355584963703791    -1.17e-05  1.83e-05  1.18e-03  1.22e-04     3.8
   10    -424.1355580557320195     4.41e-07  7.46e-06  4.43e-04  1.24e-04     3.7
                 **** Energy Check signals convergence ****

               *****************************************************
               *                     SUCCESS                       *
               *           SCF CONVERGED AFTER  10 CYCLES          *
               *****************************************************

             **** ENERGY FILE WAS UPDATED (vacuum_censo.en.tmp) ****

----------------
TOTAL SCF ENERGY
----------------

Total Energy       :       -424.13555805573202 Eh          -11541.31528 eV

Components:
Nuclear Repulsion  :        481.31175025411170 Eh           13097.15857 eV
Electronic Energy  :       -905.44730830984372 Eh          -24638.47385 eV
One Electron Energy:      -1527.25393693946580 Eh          -41558.69243 eV
Two Electron Energy:        621.80662862962208 Eh           16920.21857 eV

Virial components:
Potential Energy   :       -846.27015697860224 Eh          -23028.18170 eV
Kinetic Energy     :        422.13459892287017 Eh           11486.86642 eV
Virial Ratio       :          2.00474009744278

DFT components:
N(Alpha)           :       36.000020328737 electrons
N(Beta)            :       36.000020328737 electrons
N(Total)           :       72.000040657475 electrons
E(X)               :      -58.678028544299 Eh       
E(C)               :       -2.307001683072 Eh       
E(XC)              :      -60.985030227372 Eh       

---------------
SCF CONVERGENCE
---------------

  Last Energy change         ...   -4.4064e-07  Tolerance :   1.0000e-06
  Last MAX-Density change    ...    4.4270e-04  Tolerance :   1.0000e-05
  Last RMS-Density change    ...    7.4610e-06  Tolerance :   1.0000e-06
  Last DIIS Error            ...    1.6115e-03  Tolerance :   1.0000e-06
  Last Orbital Gradient      ...    1.2436e-04  Tolerance :   5.0000e-05
  Last Orbital Rotation      ...    2.1015e-04  Tolerance :   5.0000e-05


----------------
ORBITAL ENERGIES
----------------

  NO   OCC          E(Eh)            E(eV) 
   0   2.0000     -18.932767      -515.1868 
   1   2.0000     -10.119002      -275.3521 
   2   2.0000     -10.061146      -273.7777 
   3   2.0000     -10.051639      -273.5190 
   4   2.0000     -10.047675      -273.4111 
   5   2.0000     -10.045679      -273.3568 
   6   2.0000     -10.044003      -273.3112 
   7   2.0000     -10.043427      -273.2955 
   8   2.0000     -10.041329      -273.2385 
   9   2.0000     -10.035826      -273.0887 
  10   2.0000      -0.997954       -27.1557 
  11   2.0000      -0.836979       -22.7754 
  12   2.0000      -0.760782       -20.7019 
  13   2.0000      -0.725782       -19.7495 
  14   2.0000      -0.709870       -19.3165 
  15   2.0000      -0.666526       -18.1371 
  16   2.0000      -0.585565       -15.9340 
  17   2.0000      -0.578805       -15.7501 
  18   2.0000      -0.523767       -14.2524 
  19   2.0000      -0.467445       -12.7198 
  20   2.0000      -0.447120       -12.1668 
  21   2.0000      -0.426708       -11.6113 
  22   2.0000      -0.415792       -11.3143 
  23   2.0000      -0.412508       -11.2249 
  24   2.0000      -0.402378       -10.9493 
  25   2.0000      -0.397828       -10.8254 
  26   2.0000      -0.388382       -10.5684 
  27   2.0000      -0.362495        -9.8640 
  28   2.0000      -0.357986        -9.7413 
  29   2.0000      -0.350497        -9.5375 
  30   2.0000      -0.329770        -8.9735 
  31   2.0000      -0.323838        -8.8121 
  32   2.0000      -0.314817        -8.5666 
  33   2.0000      -0.247942        -6.7468 
  34   2.0000      -0.237782        -6.4704 
  35   2.0000      -0.216409        -5.8888 
  36   0.0000      -0.084500        -2.2994 
  37   0.0000      -0.044530        -1.2117 
  38   0.0000       0.005836         0.1588 
  39   0.0000       0.045284         1.2322 
  40   0.0000       0.057799         1.5728 
  41   0.0000       0.077299         2.1034 
  42   0.0000       0.087485         2.3806 
  43   0.0000       0.104588         2.8460 
  44   0.0000       0.114485         3.1153 
  45   0.0000       0.117535         3.1983 
  46   0.0000       0.119178         3.2430 
*Only the first 10 virtual orbitals were printed.

                    ********************************
                    * MULLIKEN POPULATION ANALYSIS *
                    ********************************

-----------------------
MULLIKEN ATOMIC CHARGES
-----------------------
   0 C :   -0.349763
   1 C :    0.188646
   2 C :   -0.205183
   3 C :   -0.147194
   4 C :    0.059812
   5 C :   -0.123881
   6 C :   -0.170649
   7 C :    0.210655
   8 O :   -0.333902
   9 C :   -0.329315
  10 H :    0.114583
  11 H :    0.119857
  12 H :    0.127210
  13 H :    0.103123
  14 H :    0.111515
  15 H :    0.136465
  16 H :    0.106394
  17 H :    0.123628
  18 H :    0.134465
  19 H :    0.123534
Sum of atomic charges:   -0.0000000

--------------------------------
MULLIKEN REDUCED ORBITAL CHARGES
--------------------------------
  0 C s       :     3.304693  s :     3.304693
      pz      :     1.050206  p :     2.997195
      px      :     0.884570
      py      :     1.062420
      dz2     :     0.002235  d :     0.044086
      dxz     :     0.019093
      dyz     :     0.002010
      dx2y2   :     0.003704
      dxy     :     0.017043
      f0      :     0.000728  f :     0.003788
      f+1     :     0.000402
      f-1     :     0.000184
      f+2     :     0.000646
      f-2     :    -0.000136
      f+3     :     0.001014
      f-3     :     0.000951

  1 C s       :     3.191952  s :     3.191952
      pz      :     0.881100  p :     2.479909
      px      :     0.777745
      py      :     0.821065
      dz2     :     0.004706  d :     0.127752
      dxz     :     0.025916
      dyz     :     0.023414
      dx2y2   :     0.032068
      dxy     :     0.041648
      f0      :     0.001871  f :     0.011740
      f+1     :     0.000837
      f-1     :     0.000595
      f+2     :     0.001021
      f-2     :     0.001230
      f+3     :     0.002230
      f-3     :     0.003957

  2 C s       :     3.260829  s :     3.260829
      pz      :     0.987074  p :     2.859855
      px      :     0.958886
      py      :     0.913895
      dz2     :     0.003074  d :     0.075732
      dxz     :     0.018103
      dyz     :     0.008007
      dx2y2   :     0.019982
      dxy     :     0.026565
      f0      :     0.001750  f :     0.008767
      f+1     :     0.000634
      f-1     :     0.000612
      f+2     :     0.000898
      f-2     :     0.000474
      f+3     :     0.001783
      f-3     :     0.002616

  3 C s       :     3.238263  s :     3.238263
      pz      :     0.951855  p :     2.817670
      px      :     0.947103
      py      :     0.918712
      dz2     :     0.003305  d :     0.082397
      dxz     :     0.021186
      dyz     :     0.009043
      dx2y2   :     0.021768
      dxy     :     0.027095
      f0      :     0.001718  f :     0.008864
      f+1     :     0.000650
      f-1     :     0.000612
      f+2     :     0.000970
      f-2     :     0.000468
      f+3     :     0.001817
      f-3     :     0.002629

  4 C s       :     3.249635  s :     3.249635
      pz      :     0.968037  p :     2.568057
      px      :     0.787976
      py      :     0.812044
      dz2     :     0.004324  d :     0.110894
      dxz     :     0.013992
      dyz     :     0.023747
      dx2y2   :     0.037713
      dxy     :     0.031118
      f0      :     0.001992  f :     0.011602
      f+1     :     0.000812
      f-1     :     0.000631
      f+2     :     0.000472
      f-2     :     0.001280
      f+3     :     0.002405
      f-3     :     0.004010

  5 C s       :     3.249438  s :     3.249438
      pz      :     0.909136  p :     2.784215
      px      :     0.928885
      py      :     0.946194
      dz2     :     0.002749  d :     0.081368
      dxz     :     0.020230
      dyz     :     0.009023
      dx2y2   :     0.021154
      dxy     :     0.028213
      f0      :     0.001738  f :     0.008860
      f+1     :     0.000639
      f-1     :     0.000601
      f+2     :     0.000927
      f-2     :     0.000544
      f+3     :     0.001789
      f-3     :     0.002622

  6 C s       :     3.257279  s :     3.257279
      pz      :     0.982091  p :     2.830543
      px      :     0.938255
      py      :     0.910197
      dz2     :     0.003265  d :     0.074164
      dxz     :     0.016483
      dyz     :     0.008386
      dx2y2   :     0.019371
      dxy     :     0.026659
      f0      :     0.001730  f :     0.008663
      f+1     :     0.000637
      f-1     :     0.000612
      f+2     :     0.000867
      f-2     :     0.000426
      f+3     :     0.001768
      f-3     :     0.002623

  7 C s       :     3.176043  s :     3.176043
      pz      :     0.737399  p :     2.385394
      px      :     0.844875
      py      :     0.803120
      dz2     :     0.004586  d :     0.208895
      dxz     :     0.026099
      dyz     :     0.040754
      dx2y2   :     0.079439
      dxy     :     0.058016
      f0      :     0.002398  f :     0.019013
      f+1     :     0.000769
      f-1     :     0.001119
      f+2     :     0.001536
      f-2     :     0.002017
      f+3     :     0.003659
      f-3     :     0.007515

  8 O s       :     3.847915  s :     3.847915
      pz      :     1.323730  p :     4.451526
      px      :     1.699245
      py      :     1.428551
      dz2     :     0.002600  d :     0.032456
      dxz     :     0.002613
      dyz     :     0.008481
      dx2y2   :     0.009387
      dxy     :     0.009375
      f0      :     0.000205  f :     0.002004
      f+1     :     0.000064
      f-1     :     0.000149
      f+2     :     0.000147
      f-2     :     0.000319
      f+3     :     0.000502
      f-3     :     0.000619

  9 C s       :     3.251383  s :     3.251383
      pz      :     1.026257  p :     3.036966
      px      :     1.040008
      py      :     0.970701
      dz2     :     0.002677  d :     0.037396
      dxz     :     0.003208
      dyz     :     0.011313
      dx2y2   :     0.012437
      dxy     :     0.007760
      f0      :     0.000224  f :     0.003570
      f+1     :     0.000089
      f-1     :     0.001146
      f+2     :     0.000001
      f-2     :     0.000194
      f+3     :     0.000918
      f-3     :     0.000998

 10 H s       :     0.862236  s :     0.862236
      pz      :     0.006006  p :     0.023181
      px      :     0.006418
      py      :     0.010756

 11 H s       :     0.857099  s :     0.857099
      pz      :     0.007545  p :     0.023044
      px      :     0.006469
      py      :     0.009030

 12 H s       :     0.849550  s :     0.849550
      pz      :     0.011498  p :     0.023241
      px      :     0.006283
      py      :     0.005460

 13 H s       :     0.873340  s :     0.873340
      pz      :     0.005639  p :     0.023537
      px      :     0.006513
      py      :     0.011385

 14 H s       :     0.864545  s :     0.864545
      pz      :     0.005422  p :     0.023940
      px      :     0.007106
      py      :     0.011412

 15 H s       :     0.839536  s :     0.839536
      pz      :     0.004947  p :     0.024000
      px      :     0.007868
      py      :     0.011184

 16 H s       :     0.870172  s :     0.870172
      pz      :     0.005526  p :     0.023434
      px      :     0.006700
      py      :     0.011207

 17 H s       :     0.853124  s :     0.853124
      pz      :     0.009864  p :     0.023248
      px      :     0.005449
      py      :     0.007935

 18 H s       :     0.842394  s :     0.842394
      pz      :     0.005106  p :     0.023141
      px      :     0.012863
      py      :     0.005172

 19 H s       :     0.853223  s :     0.853223
      pz      :     0.009842  p :     0.023243
      px      :     0.005452
      py      :     0.007950



                     *******************************
                     * LOEWDIN POPULATION ANALYSIS *
                     *******************************

----------------------
LOEWDIN ATOMIC CHARGES
----------------------
   0 C :   -0.249557
   1 C :   -0.157580
   2 C :   -0.114706
   3 C :   -0.097357
   4 C :   -0.133143
   5 C :   -0.073484
   6 C :   -0.108345
   7 C :   -0.316486
   8 O :    0.120106
   9 C :   -0.262405
  10 H :    0.127589
  11 H :    0.130274
  12 H :    0.134783
  13 H :    0.145930
  14 H :    0.148819
  15 H :    0.157000
  16 H :    0.147316
  17 H :    0.134610
  18 H :    0.132011
  19 H :    0.134626

-------------------------------
LOEWDIN REDUCED ORBITAL CHARGES
-------------------------------
  0 C s       :     2.825289  s :     2.825289
      pz      :     1.068089  p :     3.151340
      px      :     1.018963
      py      :     1.064287
      dz2     :     0.035582  d :     0.248290
      dxz     :     0.066553
      dyz     :     0.024086
      dx2y2   :     0.050305
      dxy     :     0.071764
      f0      :     0.003577  f :     0.024639
      f+1     :     0.003451
      f-1     :     0.000849
      f+2     :     0.003927
      f-2     :     0.002621
      f+3     :     0.004641
      f-3     :     0.005573

  1 C s       :     2.721673  s :     2.721673
      pz      :     0.804820  p :     2.842505
      px      :     0.987528
      py      :     1.050156
      dz2     :     0.033490  d :     0.534669
      dxz     :     0.075420
      dyz     :     0.077763
      dx2y2   :     0.183249
      dxy     :     0.164746
      f0      :     0.004131  f :     0.058733
      f+1     :     0.004059
      f-1     :     0.004304
      f+2     :     0.006131
      f-2     :     0.007661
      f+3     :     0.009370
      f-3     :     0.023077

  2 C s       :     2.763350  s :     2.763350
      pz      :     0.898178  p :     2.925244
      px      :     1.035483
      py      :     0.991582
      dz2     :     0.026302  d :     0.383164
      dxz     :     0.058120
      dyz     :     0.024894
      dx2y2   :     0.123135
      dxy     :     0.150713
      f0      :     0.003176  f :     0.042949
      f+1     :     0.004153
      f-1     :     0.003479
      f+2     :     0.005587
      f-2     :     0.002845
      f+3     :     0.008341
      f-3     :     0.015369

  3 C s       :     2.762218  s :     2.762218
      pz      :     0.866496  p :     2.901762
      px      :     1.038332
      py      :     0.996934
      dz2     :     0.025464  d :     0.389952
      dxz     :     0.065820
      dyz     :     0.029109
      dx2y2   :     0.118412
      dxy     :     0.151147
      f0      :     0.003155  f :     0.043424
      f+1     :     0.004041
      f-1     :     0.003481
      f+2     :     0.006329
      f-2     :     0.002943
      f+3     :     0.008234
      f-3     :     0.015241

  4 C s       :     2.714619  s :     2.714619
      pz      :     0.863739  p :     2.868277
      px      :     0.968446
      py      :     1.036092
      dz2     :     0.036429  d :     0.494738
      dxz     :     0.042934
      dyz     :     0.077450
      dx2y2   :     0.186361
      dxy     :     0.151565
      f0      :     0.003988  f :     0.055509
      f+1     :     0.004231
      f-1     :     0.004359
      f+2     :     0.003310
      f-2     :     0.007729
      f+3     :     0.010056
      f-3     :     0.021836

  5 C s       :     2.763087  s :     2.763087
      pz      :     0.838566  p :     2.880822
      px      :     1.039332
      py      :     1.002924
      dz2     :     0.025460  d :     0.385861
      dxz     :     0.064212
      dyz     :     0.027586
      dx2y2   :     0.117807
      dxy     :     0.150796
      f0      :     0.003263  f :     0.043715
      f+1     :     0.004119
      f-1     :     0.003352
      f+2     :     0.005941
      f-2     :     0.003235
      f+3     :     0.008327
      f-3     :     0.015479

  6 C s       :     2.763075  s :     2.763075
      pz      :     0.891461  p :     2.920188
      px      :     1.037873
      py      :     0.990853
      dz2     :     0.026140  d :     0.382131
      dxz     :     0.054201
      dyz     :     0.026255
      dx2y2   :     0.118637
      dxy     :     0.156897
      f0      :     0.003155  f :     0.042951
      f+1     :     0.004129
      f-1     :     0.003479
      f+2     :     0.005723
      f-2     :     0.002594
      f+3     :     0.008311
      f-3     :     0.015560

  7 C s       :     2.763421  s :     2.763421
      pz      :     0.699702  p :     2.675006
      px      :     0.986919
      py      :     0.988385
      dz2     :     0.049138  d :     0.768835
      dxz     :     0.078378
      dyz     :     0.112369
      dx2y2   :     0.283022
      dxy     :     0.245927
      f0      :     0.007099  f :     0.109224
      f+1     :     0.005106
      f-1     :     0.008460
      f+2     :     0.009237
      f-2     :     0.013184
      f+3     :     0.017985
      f-3     :     0.048154

  8 O s       :     3.405665  s :     3.405665
      pz      :     1.254386  p :     4.399150
      px      :     1.615594
      py      :     1.529170
      dz2     :     0.007541  d :     0.069095
      dxz     :     0.003181
      dyz     :     0.010043
      dx2y2   :     0.023687
      dxy     :     0.024643
      f0      :     0.000404  f :     0.005985
      f+1     :     0.000296
      f-1     :     0.000710
      f+2     :     0.000223
      f-2     :     0.000521
      f+3     :     0.001759
      f-3     :     0.002072

  9 C s       :     2.840132  s :     2.840132
      pz      :     1.061809  p :     3.175450
      px      :     1.061230
      py      :     1.052411
      dz2     :     0.033219  d :     0.223570
      dxz     :     0.010655
      dyz     :     0.064900
      dx2y2   :     0.066952
      dxy     :     0.047845
      f0      :     0.001412  f :     0.023253
      f+1     :     0.002706
      f-1     :     0.004171
      f+2     :     0.001645
      f-2     :     0.003066
      f+3     :     0.004656
      f-3     :     0.005599

 10 H s       :     0.810001  s :     0.810001
      pz      :     0.016512  p :     0.062410
      px      :     0.015106
      py      :     0.030792

 11 H s       :     0.807132  s :     0.807132
      pz      :     0.021312  p :     0.062593
      px      :     0.015455
      py      :     0.025826

 12 H s       :     0.802463  s :     0.802463
      pz      :     0.032946  p :     0.062754
      px      :     0.015171
      py      :     0.014637

 13 H s       :     0.793642  s :     0.793642
      pz      :     0.014616  p :     0.060428
      px      :     0.016590
      py      :     0.029223

 14 H s       :     0.789881  s :     0.789881
      pz      :     0.014093  p :     0.061300
      px      :     0.017667
      py      :     0.029540

 15 H s       :     0.780418  s :     0.780418
      pz      :     0.012895  p :     0.062582
      px      :     0.019733
      py      :     0.029954

 16 H s       :     0.792466  s :     0.792466
      pz      :     0.014312  p :     0.060218
      px      :     0.017043
      py      :     0.028863

 17 H s       :     0.801629  s :     0.801629
      pz      :     0.028470  p :     0.063761
      px      :     0.015001
      py      :     0.020290

 18 H s       :     0.804384  s :     0.804384
      pz      :     0.013575  p :     0.063605
      px      :     0.036063
      py      :     0.013967

 19 H s       :     0.801618  s :     0.801618
      pz      :     0.028401  p :     0.063755
      px      :     0.015013
      py      :     0.020341



                      *****************************
                      * MAYER POPULATION ANALYSIS *
                      *****************************

  NA   - Mulliken gross atomic population
  ZA   - Total nuclear charge
  QA   - Mulliken gross atomic charge
  VA   - Mayer's total valence
  BVA  - Mayer's bonded valence
  FA   - Mayer's free valence

  ATOM       NA         ZA         QA         VA         BVA        FA
  0 C      6.3498     6.0000    -0.3498     3.8616     3.8616    -0.0000
  1 C      5.8114     6.0000     0.1886     3.6033     3.6033    -0.0000
  2 C      6.2052     6.0000    -0.2052     3.9302     3.9302    -0.0000
  3 C      6.1472     6.0000    -0.1472     3.8682     3.8682     0.0000
  4 C      5.9402     6.0000     0.0598     3.4652     3.4652    -0.0000
  5 C      6.1239     6.0000    -0.1239     3.9202     3.9202     0.0000
  6 C      6.1706     6.0000    -0.1706     3.8323     3.8323     0.0000
  7 C      5.7893     6.0000     0.2107     4.0058     4.0058    -0.0000
  8 O      8.3339     8.0000    -0.3339     2.1298     2.1298     0.0000
  9 C      6.3293     6.0000    -0.3293     3.8020     3.8020    -0.0000
 10 H      0.8854     1.0000     0.1146     0.9809     0.9809     0.0000
 11 H      0.8801     1.0000     0.1199     0.9767     0.9767     0.0000
 12 H      0.8728     1.0000     0.1272     0.9699     0.9699     0.0000
 13 H      0.8969     1.0000     0.1031     0.9797     0.9797     0.0000
 14 H      0.8885     1.0000     0.1115     0.9791     0.9791     0.0000
 15 H      0.8635     1.0000     0.1365     0.9980     0.9980    -0.0000
 16 H      0.8936     1.0000     0.1064     0.9791     0.9791    -0.0000
 17 H      0.8764     1.0000     0.1236     0.9792     0.9792     0.0000
 18 H      0.8655     1.0000     0.1345     1.0024     1.0024    -0.0000
 19 H      0.8765     1.0000     0.1235     0.9792     0.9792     0.0000

  Mayer bond orders larger than 0.100000
B(  0-C ,  1-C ) :   0.9156 B(  0-C , 10-H ) :   0.9857 B(  0-C , 11-H ) :   0.9772 
B(  0-C , 12-H ) :   0.9510 B(  1-C ,  2-C ) :   1.3423 B(  1-C ,  6-C ) :   1.2868 
B(  2-C ,  3-C ) :   1.4442 B(  2-C , 13-H ) :   0.9776 B(  3-C ,  4-C ) :   1.2722 
B(  3-C , 14-H ) :   0.9704 B(  4-C ,  5-C ) :   1.3324 B(  4-C ,  7-C ) :   0.9415 
B(  4-C ,  8-O ) :  -0.1032 B(  5-C ,  6-C ) :   1.4288 B(  5-C , 15-H ) :   0.9592 
B(  6-C , 16-H ) :   0.9867 B(  7-C ,  8-O ) :   2.0278 B(  7-C ,  9-C ) :   0.9964 
B(  9-C , 17-H ) :   0.9483 B(  9-C , 18-H ) :   0.9742 B(  9-C , 19-H ) :   0.9483 


-------
TIMINGS
-------

Total SCF time: 0 days 0 hours 0 min 44 sec 

Total time                  ....      44.635 sec
Sum of individual times     ....      44.073 sec  ( 98.7%)

SCF preparation             ....       0.242 sec  (  0.5%)
Fock matrix formation       ....      42.300 sec  ( 94.8%)
  Startup                   ....       0.071 sec  (  0.2% of F)
  Split-RI-J                ....       6.132 sec  ( 14.5% of F)
  XC integration            ....      35.463 sec  ( 83.8% of F)
    XC Preparation          ....       0.000 sec  (  0.0% of XC)
    Basis function eval.    ....       5.156 sec  ( 14.5% of XC)
    Density eval.           ....      11.029 sec  ( 31.1% of XC)
    XC-Functional eval.     ....       2.538 sec  (  7.2% of XC)
    XC-Potential eval.      ....      15.694 sec  ( 44.3% of XC)
Diagonalization             ....       0.000 sec  (  0.0%)
Density matrix formation    ....       0.256 sec  (  0.6%)
Total Energy calculation    ....       0.036 sec  (  0.1%)
Population analysis         ....       0.042 sec  (  0.1%)
Orbital Transformation      ....       0.133 sec  (  0.3%)
Orbital Orthonormalization  ....       0.000 sec  (  0.0%)
DIIS solution               ....       0.697 sec  (  1.6%)
SOSCF solution              ....       0.367 sec  (  0.8%)
Finished LeanSCF after  44.7 sec

Maximum memory used throughout the entire LEANSCF-calculation: 43.9 MB

------------------------------------------------------------------------------
                         ORCA PROPERTY INTEGRAL CALCULATIONS
------------------------------------------------------------------------------

GBWName                                   ... vacuum_censo.gbw
Number of atoms                           ...     20
Number of basis functions                 ...    370
Max core memory                           ...   1024 MB

Dipole integrals                          ... YES
Quadrupole integrals                      ...  NO
Linear momentum integrals                 ...  NO
Angular momentum integrals                ...  NO
Higher moments length integrals           ...  NO
Higher moments velocity integrals         ...  NO
Kinetic energy integrals                  ...  NO
GIAO right hand sides                     ...  NO
GIAO dipole derivative integrals          ...  NO
SOC integrals                             ...  NO
EPR diamagnetic integrals (GIAO)          ...  NO
EPR gauge integrals                       ...  NO
Field gradient integrals                  ...  NO (   0 nuclei)
Spin-dipole/Fermi contact integrals       ...  NO (   0 nuclei)
Contact density integrals                 ...  NO (   0 nuclei)
Nucleus-orbit integrals                   ...  NO (   0 nuclei)
Geometric perturbations                   ... YES (  20 nuclei)

Choice of electric origin   ... Center of mass
Position of electric origin ... (  0.0023,  0.0018, -0.0003) 
Choice of magnetic origin   ... GIAO
Position of magnetic origin ... (  0.0000,  0.0000,  0.0000) 

Calculating integrals                     ... Electric Dipole (Length)     done (  0.1 sec)
Calculating integrals                     ... Geometrical perturbation right hand sides

-----------------------
GEOMETRIC PERTURBATIONS (20 nuclei)
-----------------------

MaxCore                            ...   1024 MB
Number of batches                  ...      1

BATCH   0: Atoms    0 -   19 ( 60 perturbations)
   => H(core) and overlap derivative integrals     ... done (     0.8 sec)
   => Making and storing internal U-coefficients   ... done (     0.7 sec)
   => RI-J derivative integrals                    ... done (     9.3 sec)
   => RI-J response operators                      ... done (     2.5 sec)
   => XC derivative integrals                      ... done (   477.9 sec)
   => XC response operators                        ... done (   144.4 sec)
   => Completing and storing right hand sides      ... done (     0.2 sec)
   => Total time for right hand sides = 639.2 sec

  geometrical perturbations done (639.2 sec)

Property integrals calculated in 639.3 sec

Maximum memory used throughout the entire PROPINT-calculation: 260.4 MB


-------------------------------------------------------------------------------
                          DFT DISPERSION CORRECTION                            
                                                                               
                                DFTD4 V3.4.0                                   
-------------------------------------------------------------------------------
The R2SCAN3C composite method is recognized
Using three-body term ABC
Active option DFTDOPT                   ...         5   

-------------------------   ----------------
Dispersion correction           -0.006746501
-------------------------   ----------------

------------------   -----------------
gCP correction             0.006782224
------------------   -----------------

-------------------------   --------------------
FINAL SINGLE POINT ENERGY      -424.135522333420
-------------------------   --------------------

------------------------------------------------------------------------------
                            ORCA SCF RESPONSE CALCULATION
------------------------------------------------------------------------------

GBWName                                 ... vacuum_censo.gbw
Number of atoms                         ...     20
Number of basis functions               ...    370
Max core memory                         ...   1024 MB

Electric field perturbation             ...  NO
Quadrupolar field perturbation          ...  NO
Magnetic field perturbation (no GIAO)   ...  NO
Magnetic field perturbation (with GIAO) ...  NO
Linear momentum (velocity) perturbation ...  NO
Spin-orbit coupling perturbation        ...  NO
Choice of electric origin               ... Center of mass
Position of electric origin             ...     0.002287     0.001812    -0.000328
Choice of magnetic origin               ... GIAO
Position of magnetic origin             ...     0.000000     0.000000     0.000000
Nuclear geometric perturbations         ... YES (  60 perturbations)
Nucleus-orbit perturbations             ...  NO (   0 perturbations)
Spin-dipole/Fermi contact perturbations ...  NO (   0 perturbations)

Total number of real perturbations      ...     60
Total number of imaginary perturbations ...      0
Total number of triplet perturbations   ...      0
Total number of SOC perturbations       ...      0


                                **********************
                                * REAL PERTURBATIONS *
                                **********************



-------------------
SHARK CP-SCF DRIVER
-------------------

Dimension of the orbital basis          ...    370
Dimension of the CPSCF-problem          ...  12024
Number of operators                     ...      1
Max. number of iterations               ...    128
Convergence Tolerance                   ... 1.0e-03
Number of perturbations                 ...     60
Perturbation type                       ... REAL

----------------------------
POPLE LINEAR EQUATION SOLVER
----------------------------

  ITERATION   0:   ||err||_max =   7.6060e-01 (  45.7 sec   0/ 60 done)
  ITERATION   1:   ||err||_max =   6.0976e-02 (  49.6 sec   0/ 60 done)
  ITERATION   2:   ||err||_max =   2.2485e-02 (  50.2 sec   2/ 60 done)
  ITERATION   3:   ||err||_max =   7.7546e-03 (  50.8 sec  18/ 60 done)
  ITERATION   4:   ||err||_max =   2.0327e-03 (  37.4 sec  42/ 60 done)
  ITERATION   5:   ||err||_max =   7.1177e-04 (  16.6 sec  60/ 60 done)

CP-SCF equations solved in 253.2 sec
Response densities calculated in   0.2 sec

Maximum memory used throughout the entire SCFRESP-calculation: 177.7 MB

------------------------------------------------------------------------------
                              ORCA PROPERTY CALCULATIONS
------------------------------------------------------------------------------

GBWName                                 ... vacuum_censo.gbw
Number of atoms                         ...     20
Number of basis functions               ...    370
Max core memory                         ...   1024 MB

Electric properties:
Dipole moment                           ... YES
Quadrupole moment                       ...  NO
Static polarizability (Dipole/Dipole)   ...  NO
Static polarizability (Dipole/Quad.)    ...  NO
Static polarizability (Quad./Quad.)     ...  NO
Static polarizability (Velocity)        ...  NO

Atomic electric properties:
Dipole moment                           ...  NO
Quadrupole moment                       ...  NO
Static polarizability                   ...  NO

Choice of electric origin               ... Center of mass
Position of electric origin             ...     0.002287     0.001812    -0.000328

General magnetic properties:
Magnetizability                         ...  NO

EPR properties:
g-Tensor (aka g-matrix)                 ...  NO
Zero-Field splitting spin-orbit         ...  NO
Zero-field splitting spin-spin          ...  NO
Hyperfine couplings                     ...  NO (   0 nuclei)
Quadrupole couplings                    ...  NO (   0 nuclei)
Contact density                         ...  NO (   0 nuclei)

NMR properties:
Chemical shifts                         ...  NO (   0 nuclei)
Spin-rotation constants                 ...  NO (   0 nuclei)
Spin-spin couplings                     ...  NO (   0 nuclei,    0 pairs)

Choice of magnetic origin               ... GIAO
Position of magnetic origin             ...     0.000000     0.000000     0.000000

Properties with geometric perturbations:
SCF Hessian                             ... YES
IR spectrum                             ... YES
VCD spectrum                            ...  NO
X-ray spectroscopy properties:
SCF XES/XAS/RIXS spectra                ...  NO


-------------
DIPOLE MOMENT
-------------

Method             : SCF
Type of density    : Electron Density
Multiplicity       :   1
Irrep              :   0
Energy             :  -424.1355580557320195 Eh
Relativity type    : 
Basis              : AO
                                X                 Y                 Z
Electronic contribution:      4.349849396       3.475159046       0.037580098
Nuclear contribution   :     -5.424951528      -4.399849645      -0.051968672
                        -----------------------------------------
Total Dipole Moment    :     -1.075102132      -0.924690599      -0.014388574
                        -----------------------------------------
Magnitude (a.u.)       :      1.418134101
Magnitude (Debye)      :      3.604610422



--------------------
Rotational spectrum 
--------------------
 
Rotational constants in cm-1:             0.120867             0.026261             0.021749 
Rotational constants in MHz :          3623.492221           787.286725           652.006556 

Dipole components along the rotational axes: 
x,y,z [a.u.] :    -1.073257     0.926825    -0.014778 
x,y,z [Debye]:    -2.728003     2.355802    -0.037561 

 

Dipole moment calculation done in   0.0 sec 

-----------
SCF HESSIAN
-----------

Occupied/Occupied contributions to the Hessian:
   => Occupied/Occupied contributions              ... done (  0.0 sec)
Perturbed density contributions to the Hessian:
   => Perturbed density contributions              ... done (  0.1 sec)
Explicit contributions to the Hessian:
   => Nuclear repulsion Hessian                    ... done (  0.0 sec)
   => HCore and overlap Hessian                    ... done ( 31.4 sec)
   => RI-J Hessian                                 ... done ( 21.1 sec)
   => XC-Hessian                                   ... done (133.1 sec)
   => Van der Waals-Hessian                        ... done (  3.7 sec)
   => GCP-Hessian                                  ... done (  0.1 sec)
   => Explicit contributions done
Dipole derivatives                                 ... done (  0.2 sec)
Mass weighting the Hessian           ... done
Calculating normal modes             ... done
Scaling frequencies                  ... done

-----------------------
VIBRATIONAL FREQUENCIES
-----------------------

Scaling factor for frequencies =  1.000000000  (already applied!)

     0:       0.00 cm**-1
     1:       0.00 cm**-1
     2:       0.00 cm**-1
     3:       0.00 cm**-1
     4:       0.00 cm**-1
     5:       0.00 cm**-1
     6:      65.29 cm**-1
     7:      72.40 cm**-1
     8:     101.29 cm**-1
     9:     188.83 cm**-1
    10:     198.57 cm**-1
    11:     265.30 cm**-1
    12:     338.73 cm**-1
    13:     359.32 cm**-1
    14:     411.26 cm**-1
    15:     463.47 cm**-1
    16:     469.19 cm**-1
    17:     576.30 cm**-1
    18:     595.26 cm**-1
    19:     654.52 cm**-1
    20:     683.28 cm**-1
    21:     733.95 cm**-1
    22:     818.48 cm**-1
    23:     824.67 cm**-1
    24:     852.63 cm**-1
    25:     947.59 cm**-1
    26:     950.92 cm**-1
    27:     984.77 cm**-1
    28:    1007.42 cm**-1
    29:    1036.19 cm**-1
    30:    1039.95 cm**-1
    31:    1053.72 cm**-1
    32:    1089.18 cm**-1
    33:    1139.75 cm**-1
    34:    1202.50 cm**-1
    35:    1232.04 cm**-1
    36:    1278.69 cm**-1
    37:    1329.96 cm**-1
    38:    1350.00 cm**-1
    39:    1369.26 cm**-1
    40:    1399.65 cm**-1
    41:    1434.54 cm**-1
    42:    1460.43 cm**-1
    43:    1468.37 cm**-1
    44:    1479.04 cm**-1
    45:    1483.24 cm**-1
    46:    1533.51 cm**-1
    47:    1602.08 cm**-1
    48:    1638.80 cm**-1
    49:    1724.73 cm**-1
    50:    3007.73 cm**-1
    51:    3014.31 cm**-1
    52:    3074.22 cm**-1
    53:    3083.56 cm**-1
    54:    3105.66 cm**-1
    55:    3139.24 cm**-1
    56:    3151.42 cm**-1
    57:    3153.77 cm**-1
    58:    3180.97 cm**-1
    59:    3186.88 cm**-1


------------
NORMAL MODES
------------

These modes are the Cartesian displacements weighted by the diagonal matrix
M(i,i)=1/sqrt(m[i]) where m[i] is the mass of the displaced atom
Thus, these vectors are normalized but *not* orthogonal

                  0          1          2          3          4          5    
      0       0.000000   0.000000   0.000000   0.000000   0.000000   0.000000
      1       0.000000   0.000000   0.000000   0.000000   0.000000   0.000000
      2       0.000000   0.000000   0.000000   0.000000   0.000000   0.000000
      3       0.000000   0.000000   0.000000   0.000000   0.000000   0.000000
      4       0.000000   0.000000   0.000000   0.000000   0.000000   0.000000
      5       0.000000   0.000000   0.000000   0.000000   0.000000   0.000000
      6       0.000000   0.000000   0.000000   0.000000   0.000000   0.000000
      7       0.000000   0.000000   0.000000   0.000000   0.000000   0.000000
      8       0.000000   0.000000   0.000000   0.000000   0.000000   0.000000
      9       0.000000   0.000000   0.000000   0.000000   0.000000   0.000000
     10       0.000000   0.000000   0.000000   0.000000   0.000000   0.000000
     11       0.000000   0.000000   0.000000   0.000000   0.000000   0.000000
     12       0.000000   0.000000   0.000000   0.000000   0.000000   0.000000
     13       0.000000   0.000000   0.000000   0.000000   0.000000   0.000000
     14       0.000000   0.000000   0.000000   0.000000   0.000000   0.000000
     15       0.000000   0.000000   0.000000   0.000000   0.000000   0.000000
     16       0.000000   0.000000   0.000000   0.000000   0.000000   0.000000
     17       0.000000   0.000000   0.000000   0.000000   0.000000   0.000000
     18       0.000000   0.000000   0.000000   0.000000   0.000000   0.000000
     19       0.000000   0.000000   0.000000   0.000000   0.000000   0.000000
     20       0.000000   0.000000   0.000000   0.000000   0.000000   0.000000
     21       0.000000   0.000000   0.000000   0.000000   0.000000   0.000000
     22       0.000000   0.000000   0.000000   0.000000   0.000000   0.000000
     23       0.000000   0.000000   0.000000   0.000000   0.000000   0.000000
     24       0.000000   0.000000   0.000000   0.000000   0.000000   0.000000
     25       0.000000   0.000000   0.000000   0.000000   0.000000   0.000000
     26       0.000000   0.000000   0.000000   0.000000   0.000000   0.000000
     27       0.000000   0.000000   0.000000   0.000000   0.000000   0.000000
     28       0.000000   0.000000   0.000000   0.000000   0.000000   0.000000
     29       0.000000   0.000000   0.000000   0.000000   0.000000   0.000000
     30       0.000000   0.000000   0.000000   0.000000   0.000000   0.000000
     31       0.000000   0.000000   0.000000   0.000000   0.000000   0.000000
     32       0.000000   0.000000   0.000000   0.000000   0.000000   0.000000
     33       0.000000   0.000000   0.000000   0.000000   0.000000   0.000000
     34       0.000000   0.000000   0.000000   0.000000   0.000000   0.000000
     35       0.000000   0.000000   0.000000   0.000000   0.000000   0.000000
     36       0.000000   0.000000   0.000000   0.000000   0.000000   0.000000
     37       0.000000   0.000000   0.000000   0.000000   0.000000   0.000000
     38       0.000000   0.000000   0.000000   0.000000   0.000000   0.000000
     39       0.000000   0.000000   0.000000   0.000000   0.000000   0.000000
     40       0.000000   0.000000   0.000000   0.000000   0.000000   0.000000
     41       0.000000   0.000000   0.000000   0.000000   0.000000   0.000000
     42       0.000000   0.000000   0.000000   0.000000   0.000000   0.000000
     43       0.000000   0.000000   0.000000   0.000000   0.000000   0.000000
     44       0.000000   0.000000   0.000000   0.000000   0.000000   0.000000
     45       0.000000   0.000000   0.000000   0.000000   0.000000   0.000000
     46       0.000000   0.000000   0.000000   0.000000   0.000000   0.000000
     47       0.000000   0.000000   0.000000   0.000000   0.000000   0.000000
     48       0.000000   0.000000   0.000000   0.000000   0.000000   0.000000
     49       0.000000   0.000000   0.000000   0.000000   0.000000   0.000000
     50       0.000000   0.000000   0.000000   0.000000   0.000000   0.000000
     51       0.000000   0.000000   0.000000   0.000000   0.000000   0.000000
     52       0.000000   0.000000   0.000000   0.000000   0.000000   0.000000
     53       0.000000   0.000000   0.000000   0.000000   0.000000   0.000000
     54       0.000000   0.000000   0.000000   0.000000   0.000000   0.000000
     55       0.000000   0.000000   0.000000   0.000000   0.000000   0.000000
     56       0.000000   0.000000   0.000000   0.000000   0.000000   0.000000
     57       0.000000   0.000000   0.000000   0.000000   0.000000   0.000000
     58       0.000000   0.000000   0.000000   0.000000   0.000000   0.000000
     59       0.000000   0.000000   0.000000   0.000000   0.000000   0.000000
                  6          7          8          9         10         11    
      0      -0.000226  -0.000454  -0.004126  -0.000073  -0.006516  -0.013858
      1       0.000530   0.009919  -0.003637  -0.001301   0.210774  -0.001738
      2       0.023064   0.026194   0.283379   0.003125  -0.000039   0.155700
      3       0.000067   0.000284   0.000718   0.000009  -0.004435  -0.004142
      4       0.000025  -0.007174   0.002168  -0.000028   0.008552   0.001915
      5       0.006707  -0.008264   0.001647   0.001406   0.001331  -0.208194
      6      -0.000115   0.000473   0.000682   0.000455  -0.078015  -0.001779
      7      -0.000358  -0.004157   0.001530   0.000332  -0.044897   0.002812
      8      -0.156285   0.006560  -0.097876   0.013854  -0.000526  -0.200111
      9      -0.000498   0.002980  -0.000502   0.000438  -0.061964  -0.000069
     10      -0.000091  -0.001994   0.000864   0.000835  -0.138869   0.001047
     11      -0.148806   0.007624  -0.187517   0.020289  -0.000499   0.093706
     12       0.000013   0.000053   0.000305   0.000111  -0.004393   0.003474
     13       0.000341  -0.002769   0.001096   0.000957  -0.167232  -0.000331
     14      -0.015852  -0.007337  -0.173922   0.017039  -0.001247   0.272478
     15       0.000588  -0.002732   0.000985  -0.000348   0.056571   0.001787
     16      -0.000189  -0.001871   0.000835   0.000808  -0.135347  -0.001187
     17       0.128190  -0.030178  -0.191144  -0.005197  -0.001244   0.101810
     18       0.000300  -0.000228   0.000661  -0.000435   0.069305  -0.000687
     19      -0.000496  -0.004086   0.001289   0.000291  -0.041942  -0.000241
     20       0.156103  -0.031558  -0.110724  -0.013901   0.001631  -0.181159
     21       0.000026  -0.000264   0.000732   0.000142  -0.006613   0.004991
     22       0.000250   0.000360  -0.000088   0.000128  -0.016936  -0.000701
     23      -0.026040   0.003205   0.026686   0.014621   0.000034   0.119810
     24      -0.000262  -0.002993   0.002451   0.001097  -0.189641   0.004398
     25      -0.000301   0.001874  -0.000594  -0.000503   0.082617  -0.001048
     26      -0.263391   0.001750   0.182595  -0.023942   0.000978  -0.094487
     27       0.000211   0.003079  -0.000762  -0.001282   0.221033   0.007713
     28       0.000529   0.002440  -0.001001  -0.000837   0.134585   0.000508
     29       0.289271   0.019388   0.122473  -0.005904  -0.000190  -0.051831
     30       0.004392   0.003458   0.069208   0.001417  -0.160675   0.103048
     31      -0.014093  -0.180639   0.055841  -0.000477   0.291922   0.023391
     32      -0.010337  -0.485738   0.526418   0.006910   0.045739   0.354416
     33       0.005676   0.028236   0.116585  -0.000049   0.121774   0.184655
     34      -0.024109  -0.329649   0.099689   0.000186   0.308333   0.029354
     35       0.058168   0.488691   0.229105   0.001230  -0.040816   0.247660
     36      -0.011228  -0.034393  -0.208635  -0.001700   0.020755  -0.350487
     37       0.037682   0.595378  -0.183606  -0.004864   0.222276  -0.066867
     38       0.032525   0.128454   0.330213   0.003180  -0.008331   0.269004
     39      -0.000604   0.002673   0.000735   0.000852  -0.141485  -0.001137
     40      -0.000874  -0.004859   0.001570   0.000142  -0.010141   0.001861
     41      -0.281906   0.018166  -0.052861   0.018649  -0.001092  -0.284942
     42      -0.000755   0.003910  -0.000800   0.000578  -0.105796  -0.002565
     43      -0.000384  -0.001459   0.000695   0.000953  -0.169037  -0.000426
     44      -0.266948   0.020003  -0.211811   0.014399  -0.000660   0.156432
     45       0.000755  -0.003587   0.001130  -0.000795   0.119416   0.000079
     46      -0.000483  -0.001382   0.000774   0.001106  -0.174627  -0.000228
     47       0.228509  -0.046742  -0.204928  -0.016715  -0.001873   0.147519
     48       0.001005  -0.002782   0.001938  -0.000851   0.129819   0.001699
     49      -0.001114  -0.004951   0.001694   0.000171  -0.006398   0.001703
     50       0.293171  -0.050522  -0.076835  -0.030832   0.003551  -0.261645
     51      -0.151987  -0.000241  -0.102413  -0.386039   0.312039   0.156028
     52       0.113895   0.010181   0.016249  -0.323626   0.082876  -0.073355
     53       0.324088   0.023747   0.106917  -0.335793  -0.009485  -0.062123
[...]
     32       0.266554  -0.000112  -0.004679   0.007247   0.001672  -0.000513
     33       0.219374  -0.000330  -0.010071  -0.000727  -0.001147   0.001227
     34      -0.421089   0.000584   0.014972  -0.002759   0.000313  -0.000925
     35      -0.341679   0.000441   0.012288  -0.001436   0.000362  -0.000964
     36       0.032206  -0.000106  -0.001636  -0.000734  -0.000627   0.000526
     37       0.009099  -0.000009  -0.000936   0.000023   0.000191   0.000218
     38       0.091849  -0.000192  -0.001792   0.001953   0.000032  -0.000011
     39       0.014361   0.015026   0.124343  -0.439631  -0.148696   0.026096
     40       0.021089   0.027471   0.223136  -0.797778  -0.263077   0.046672
     41      -0.001007  -0.000162  -0.001213   0.004850   0.001626  -0.000317
     42       0.002014   0.020653   0.025415  -0.149386   0.470428  -0.049825
     43      -0.003474  -0.033617  -0.045488   0.266132  -0.815551   0.087390
     44      -0.000042   0.000034   0.000062  -0.000259   0.000956  -0.000107
     45      -0.001516  -0.002028  -0.092624  -0.034603  -0.058879  -0.480374
     46      -0.002971  -0.002738  -0.167258  -0.063274  -0.100509  -0.841257
     47      -0.000002  -0.000001  -0.000259  -0.000107  -0.000185  -0.001620
     48      -0.011120  -0.000490  -0.477083  -0.125511  -0.003110   0.105067
     49       0.015035   0.000615   0.812202   0.216166   0.006425  -0.172826
     50       0.000888   0.000004   0.005979   0.001727   0.000087  -0.001312
     51      -0.000005   0.048539  -0.000921   0.003270  -0.004558   0.000583
     52      -0.000028   0.143897  -0.002504   0.008104  -0.009153   0.001127
     53       0.000101  -0.225437   0.003831  -0.012697   0.014256  -0.001663
     54      -0.000160   0.895712  -0.009137   0.033102  -0.019308  -0.002355
     55      -0.000095   0.199250  -0.002278   0.007920  -0.006029   0.000177
     56      -0.000004  -0.001242   0.000018  -0.000045   0.000029   0.000002
     57       0.000021   0.048697  -0.000944   0.003241  -0.004471   0.000584
     58       0.000005   0.143594  -0.002508   0.008033  -0.008948   0.001106
     59      -0.000021   0.223760  -0.003835   0.012511  -0.013888   0.001639


-----------
IR SPECTRUM
-----------

 Mode   freq       eps      Int      T**2         TX        TY        TZ
       cm**-1   L/(mol*cm) km/mol    a.u.
----------------------------------------------------------------------------
  6:     65.29   0.000666    3.36  0.003182  (-0.000227 -0.000608  0.056406)
  7:     72.40   0.000064    0.32  0.000275  ( 0.000901  0.012688  0.010646)
  8:    101.29   0.000001    0.00  0.000003  (-0.000973 -0.001448  0.000013)
  9:    188.83   0.000058    0.29  0.000096  (-0.000292  0.000092 -0.009784)
 10:    198.57   0.000821    4.15  0.001291  ( 0.035869 -0.002030 -0.000432)
 11:    265.30   0.000272    1.37  0.000320  (-0.000031 -0.000461  0.017877)
 12:    338.73   0.000086    0.43  0.000079  ( 0.007831  0.004198  0.000075)
 13:    359.32   0.000367    1.86  0.000319  ( 0.016473 -0.006898  0.000062)
 14:    411.26   0.000002    0.01  0.000002  (-0.000807  0.000500  0.000832)
 15:    463.47   0.000341    1.72  0.000229  (-0.001799  0.012226 -0.008749)
 16:    469.19   0.001381    6.98  0.000918  (-0.001771 -0.003091 -0.030094)
 17:    576.30   0.003503   17.70  0.001897  (-0.041992  0.011533  0.000565)
 18:    595.26   0.002261   11.43  0.001185  (-0.000382 -0.000146 -0.034425)
 19:    654.52   0.000131    0.66  0.000062  (-0.004007  0.006797  0.000093)
 20:    683.28   0.001331    6.73  0.000608  (-0.024113  0.004744 -0.001968)
 21:    733.95   0.000391    1.97  0.000166  (-0.003305 -0.000084  0.012456)
 22:    818.48   0.004888   24.70  0.001864  ( 0.002761  0.001680 -0.043047)
 23:    824.67   0.001490    7.53  0.000564  (-0.000168  0.003892  0.023426)
 24:    852.63   0.000977    4.94  0.000358  (-0.001511 -0.000773  0.018834)
 25:    947.59   0.000095    0.48  0.000031  ( 0.004912 -0.000752  0.002563)
 26:    950.92   0.008235   41.61  0.002702  ( 0.049285 -0.016531  0.000115)
 27:    984.77   0.000229    1.16  0.000073  ( 0.002189 -0.000174  0.008238)
 28:   1007.42   0.000749    3.78  0.000232  (-0.015212  0.000391 -0.000644)
 29:   1036.19   0.000124    0.63  0.000037  (-0.000602 -0.000146 -0.006088)
 30:   1039.95   0.000853    4.31  0.000256  ( 0.015210 -0.003628 -0.003384)
 31:   1053.72   0.002864   14.47  0.000848  (-0.024747  0.000441 -0.015351)
 32:   1089.18   0.000434    2.19  0.000124  (-0.005103  0.009896 -0.000608)
 33:   1139.75   0.001700    8.59  0.000465  (-0.008355  0.019891  0.000000)
 34:   1202.50   0.009112   46.05  0.002365  (-0.048318  0.005445 -0.000552)
 35:   1232.04   0.001395    7.05  0.000353  ( 0.018464 -0.002653  0.002334)
 36:   1278.69   0.036324  183.57  0.008865  ( 0.092796 -0.015927 -0.000235)
 37:   1329.96   0.000757    3.82  0.000178  (-0.013193  0.001858 -0.000079)
 38:   1350.00   0.000733    3.71  0.000170  ( 0.003844  0.012438 -0.000104)
 39:   1369.26   0.010990   55.54  0.002505  ( 0.038994 -0.031371  0.000040)
 40:   1399.65   0.000370    1.87  0.000082  ( 0.008703 -0.000812  0.002460)
 41:   1434.54   0.002459   12.43  0.000535  (-0.019401  0.012574 -0.000649)
 42:   1460.43   0.002425   12.26  0.000518  (-0.017783 -0.014213  0.000058)
 43:   1468.37   0.002309   11.67  0.000491  ( 0.000074  0.000188  0.022149)
 44:   1479.04   0.002010   10.16  0.000424  ( 0.004866 -0.013892 -0.014399)
 45:   1483.24   0.002863   14.47  0.000602  ( 0.012169 -0.019097  0.009468)
 46:   1533.51   0.000032    0.16  0.000007  (-0.002342 -0.000459  0.000920)
 47:   1602.08   0.002576   13.02  0.000502  (-0.021410 -0.006590 -0.000094)
 48:   1638.80   0.017750   89.70  0.003380  ( 0.056822  0.012292  0.000443)
 49:   1724.73   0.036830  186.13  0.006664  ( 0.052210  0.062753 -0.000152)
 50:   3007.73   0.004265   21.55  0.000443  (-0.020778  0.000329 -0.003269)
 51:   3014.31   0.000586    2.96  0.000061  (-0.002106 -0.007497  0.000011)
 52:   3074.22   0.002690   13.59  0.000273  (-0.008065  0.000210  0.014420)
 53:   3083.56   0.001289    6.51  0.000130  (-0.000002  0.000009 -0.011420)
 54:   3105.66   0.002609   13.19  0.000262  ( 0.003136  0.015882 -0.000367)
 55:   3139.24   0.002761   13.95  0.000274  (-0.016544 -0.000886  0.000027)
 56:   3151.42   0.002693   13.61  0.000267  ( 0.007045 -0.014733 -0.000049)
 57:   3153.77   0.002280   11.52  0.000226  ( 0.013816  0.005896 -0.000071)
 58:   3180.97   0.001923    9.72  0.000189  (-0.003037  0.013395 -0.000039)
 59:   3186.88   0.000618    3.12  0.000061  (-0.006024  0.004924  0.000050)

* The epsilon (eps) is given for a Dirac delta lineshape.
** The dipole moment derivative (T) already includes vibrational overlap.

The first frequency considered to be a vibration is 6
The total number of vibrations considered is 54


--------------------------
THERMOCHEMISTRY AT 298.15K
--------------------------

Temperature         ...   298.15 K
Pressure            ...     1.00 atm
Total Mass          ...   134.18 AMU
Quasi RRHO          ...     True
Cut-Off Frequency   ...     1.00 cm^-1

Throughout the following assumptions are being made:
  (1) The electronic state is orbitally nondegenerate
  (2) There are no thermally accessible electronically excited states
  (3) Hindered rotations indicated by low frequency modes are not
      treated as such but are treated as vibrations and this may
      cause some error
  (4) All equations used are the standard statistical mechanics
      equations for an ideal gas
  (5) All vibrations are strictly harmonic

freq.      65.29  E(vib)   ...       0.50 
freq.      72.40  E(vib)   ...       0.50 
freq.     101.29  E(vib)   ...       0.46 
freq.     188.83  E(vib)   ...       0.36 
freq.     198.57  E(vib)   ...       0.35 
freq.     265.30  E(vib)   ...       0.29 
freq.     338.73  E(vib)   ...       0.23 
freq.     359.32  E(vib)   ...       0.22 
freq.     411.26  E(vib)   ...       0.19 
freq.     463.47  E(vib)   ...       0.16 
freq.     469.19  E(vib)   ...       0.16 
freq.     576.30  E(vib)   ...       0.11 
freq.     595.26  E(vib)   ...       0.10 
freq.     654.52  E(vib)   ...       0.08 
freq.     683.28  E(vib)   ...       0.08 
freq.     733.95  E(vib)   ...       0.06 
freq.     818.48  E(vib)   ...       0.05 
freq.     824.67  E(vib)   ...       0.04 
freq.     852.63  E(vib)   ...       0.04 
freq.     947.59  E(vib)   ...       0.03 
freq.     950.92  E(vib)   ...       0.03 
freq.     984.77  E(vib)   ...       0.02 
freq.    1007.42  E(vib)   ...       0.02 
freq.    1036.19  E(vib)   ...       0.02 
freq.    1039.95  E(vib)   ...       0.02 
freq.    1053.72  E(vib)   ...       0.02 
freq.    1089.18  E(vib)   ...       0.02 
freq.    1139.75  E(vib)   ...       0.01 
freq.    1202.50  E(vib)   ...       0.01 
freq.    1232.04  E(vib)   ...       0.01 
freq.    1278.69  E(vib)   ...       0.01 
freq.    1329.96  E(vib)   ...       0.01 
freq.    1350.00  E(vib)   ...       0.01 
freq.    1369.26  E(vib)   ...       0.01 
freq.    1399.65  E(vib)   ...       0.00 
freq.    1434.54  E(vib)   ...       0.00 
freq.    1460.43  E(vib)   ...       0.00 
freq.    1468.37  E(vib)   ...       0.00 
freq.    1479.04  E(vib)   ...       0.00 
freq.    1483.24  E(vib)   ...       0.00 
freq.    1533.51  E(vib)   ...       0.00 
freq.    1602.08  E(vib)   ...       0.00 
freq.    1638.80  E(vib)   ...       0.00 
freq.    1724.73  E(vib)   ...       0.00 
freq.    3007.73  E(vib)   ...       0.00 
freq.    3014.31  E(vib)   ...       0.00 
freq.    3074.22  E(vib)   ...       0.00 
freq.    3083.56  E(vib)   ...       0.00 
freq.    3105.66  E(vib)   ...       0.00 
freq.    3139.24  E(vib)   ...       0.00 
freq.    3151.42  E(vib)   ...       0.00 
freq.    3153.77  E(vib)   ...       0.00 
freq.    3180.97  E(vib)   ...       0.00 
freq.    3186.88  E(vib)   ...       0.00 

------------
INNER ENERGY
------------

The inner energy is: U= E(el) + E(ZPE) + E(vib) + E(rot) + E(trans)
    E(el)   - is the total energy from the electronic structure calculation
              = E(kin-el) + E(nuc-el) + E(el-el) + E(nuc-nuc)
    E(ZPE)  - the the zero temperature vibrational energy from the frequency calculation
    E(vib)  - the the finite temperature correction to E(ZPE) due to population
              of excited vibrational states
    E(rot)  - is the rotational thermal energy
    E(trans)- is the translational thermal energy

Summary of contributions to the inner energy U:
Electronic energy                ...   -424.13552233 Eh
Zero point energy                ...      0.16404364 Eh     102.94 kcal/mol
Thermal vibrational correction   ...      0.00677677 Eh       4.25 kcal/mol
Thermal rotational correction    ...      0.00141627 Eh       0.89 kcal/mol
Thermal translational correction ...      0.00141627 Eh       0.89 kcal/mol
-----------------------------------------------------------------------
Total thermal energy                   -423.96186939 Eh


Summary of corrections to the electronic energy:
(perhaps to be used in another calculation)
Total thermal correction                  0.00960931 Eh       6.03 kcal/mol
Non-thermal (ZPE) correction              0.16404364 Eh     102.94 kcal/mol
-----------------------------------------------------------------------
Total correction                          0.17365295 Eh     108.97 kcal/mol


--------
ENTHALPY
--------

The enthalpy is H = U + kB*T
                kB is Boltzmann's constant
Total thermal energy              ...   -423.96186939 Eh 
Thermal Enthalpy correction       ...      0.00094421 Eh       0.59 kcal/mol
-----------------------------------------------------------------------
Total Enthalpy                    ...   -423.96092518 Eh


Note: Only C1 symmetry has been detected, increase convergence thresholds 
      if your molecule has a higher symmetry. Symmetry factor of 1.0 is   
      used for the rotational entropy correction. 
 

Note: Rotational entropy computed according to Herzberg 
Infrared and Raman Spectra, Chapter V,1, Van Nostrand Reinhold, 1945 
Point Group:  C1, Symmetry Number:   1  
Rotational constants in cm-1:     0.120867     0.026261     0.021749 

Vibrational entropy computed according to the QRRHO of S. Grimme
Chem.Eur.J. 2012 18 9955 using a reference frequency of 100.0 cm-1


-------
ENTROPY
-------

The entropy contributions are T*S = T*(S(el)+S(vib)+S(rot)+S(trans))
     S(el)   - electronic entropy
     S(vib)  - vibrational entropy
     S(rot)  - rotational entropy
     S(trans)- translational entropy
The entropies will be listed as multiplied by the temperature to get
units of energy

Electronic entropy                ...      0.00000000 Eh      0.00 kcal/mol
Vibrational entropy               ...      0.01152840 Eh      7.23 kcal/mol
Rotational entropy                ...      0.01403388 Eh      8.81 kcal/mol
Translational entropy             ...      0.01928762 Eh     12.10 kcal/mol
-----------------------------------------------------------------------
Final entropy term                ...      0.04484990 Eh     28.14 kcal/mol

In case the symmetry of your molecule has not been determined correctly
or in case you have a reason to use a different symmetry number we print 
out the resulting rotational entropy values for sn=1,12:

 non-linear molecules -----------------------------------
|  sn= 1 | S(rot)=       0.01403388 Eh      8.81 kcal/mol|
|  sn= 2 | S(rot)=       0.01337942 Eh      8.40 kcal/mol|
|  sn= 3 | S(rot)=       0.01299659 Eh      8.16 kcal/mol|
|  sn= 4 | S(rot)=       0.01272497 Eh      7.99 kcal/mol|
|  sn= 5 | S(rot)=       0.01251428 Eh      7.85 kcal/mol|
|  sn= 6 | S(rot)=       0.01234214 Eh      7.74 kcal/mol|
|  sn= 7 | S(rot)=       0.01219659 Eh      7.65 kcal/mol|
|  sn= 8 | S(rot)=       0.01207051 Eh      7.57 kcal/mol|
|  sn= 9 | S(rot)=       0.01195930 Eh      7.50 kcal/mol|
|  sn=10 | S(rot)=       0.01185982 Eh      7.44 kcal/mol|
|  sn=11 | S(rot)=       0.01176983 Eh      7.39 kcal/mol|
|  sn=12 | S(rot)=       0.01168768 Eh      7.33 kcal/mol|
 linear molecules ---------------------------------------
|  Dinfh | S(rot)=       0.00894033 Eh      5.61 kcal/mol|
|  Cinfv | S(rot)=       0.00959478 Eh      6.02 kcal/mol|
 --------------------------------------------------------


-------------------
GIBBS FREE ENERGY
-------------------

The Gibbs free energy is G = H - T*S

Total enthalpy                    ...   -423.96092518 Eh 
Total entropy correction          ...     -0.04484990 Eh    -28.14 kcal/mol
-----------------------------------------------------------------------
Final Gibbs free energy         ...   -424.00577508 Eh

For completeness - the Gibbs free energy minus the electronic energy
G-E(el)                           ...      0.12974725 Eh     81.42 kcal/mol


Maximum memory used throughout the entire PROP-calculation: 75.8 MB

--------------------------------
SUGGESTED CITATIONS FOR THIS RUN
--------------------------------

Below you find a list of papers that are relevant to this ORCA run
We neither can nor want to force you to cite these papers, but we appreciate if you do
You receive ORCA, which is the product of decades of hard work by many enthusiastic individuals, for free
The only thing we kindly ask in return is that you cite our papers,
We deeply appreciate it, if you show your appreciation for ORCA by not just citing the generic ORCA reference.

Please note that relegating all ORCA citations to the supporting information does *not* help us.
SI sections are not indexed - citations you put there will not count into any citation statistics
But we need these citations in order to attract the funding resources that allow us to do what we are doing

Therefore, if you are a happy ORCA user, please consider citing a few of the papers listed below in the main body of your paper

In addition to the list printed below, the program has created the file vacuum_censo.bibtex that contains the list in bibtex format
You can import this file easily into all common literature databanks and citation aid programs


List of essential papers. We consider these as the minimum necessary citations

  1. Neese,F.
     Software update: the ORCA program system, version 5.0
     WIRES Comput. Molec. Sci., 2022 12(1)e1606
     doi.org/10.1002/wcms.1606
  2. Grimme,S.; Hansen,A.; Ehlert,S.; Mewes,J.
     r2SCAN-3c: A 'Swiss army knife' composite electronic-structure method
     J. Chem. Phys., 2021 154 064103
     doi.org/10.1063/5.0040021

List of papers to cite with high priority. The work reported in these papers was absolutely
necessary for this run to complete.
Our perspective: the developers of density functionals and basis sets usually get cited in chemistry papers
Good! But without the algorithms to do something with them, the functionals or basis sets would not do anything.
Hence, in our opinion, the algorithm design and method developments papers are equally worthy of getting cited

  1. Neese,F.
     An improvement of the resolution of the identity approximation for the formation of the Coulomb matrix
     J. Comp. Chem., 2003 24(14)1740-1747
     doi.org/10.1002/jcc.10318
  2. Bykov,D.; Petrenko,T.; Izsak,R.; Kossmann,S.; Becker,U.; Valeev,E.; Neese,F.
     Efficient implementation of the analytic second derivatives of Hartree-Fock and hybrid DFT energies: a detailed analysis of different approximations
     Molec. Phys., 2015 113 1961-1977
     doi.org/10.1080/00268976.2015.1025114
  3. Neese,F.
     The SHARK Integral Generation and Digestion System
     J. Comp. Chem., 2022  1-16
     doi.org/10.1002/jcc.26942
  4. Lehtola,S.; Steigemann,C.; Oliveira,M.; Marques,M.
     Recent developments in Libxc - A comprehensive library of functionals for density functional theory
     Software X, 2018 7 
     doi.org/10.1016/j.softx.2017.11.002
  5. Caldeweyher,E.; Bannwarth,C.; Grimme,S.
     Extension of the D3 dispersion coefficient model
     J. Chem. Phys., 2017 147 034112-XXXX
     doi.org/10.1063/1.4993215
  6. Caldeweyher,E.; Ehlert,S.; Hansen,A.; Neugebauer,H.; Spicher,S.; Bannwarth,C.; Grimme,S.
     A generally applicable atomic-charge dependent London dispersion correction
     J. Chem. Phys., 2019 150 154122-XXXX
     doi.org/10.1063/1.5090222
  7. Caldeweyher,E.; Mewes,J.; Ehlert,S.; Grimme,S.
     Extension and evaluation of the D4 London-dispersion model for periodic systems
     Phys. Chem. Chem. Phys., 2020 22(16)8499-8512
     doi.org/10.1039/D0CP00502A

List of suggested additional citations. These are papers that are important in the 'surrounding' of 
of this run, or papers that preceded the highly important papers. If you like your results we are grateful for a citation.

  1. Neese,F.
     The ORCA program system
     WIRES Comput. Molec. Sci., 2012 2(1)73-78
     doi.org/10.1002/wcms.81
  2. Neese,F.
     Software update: the ORCA program system, version 4.0
     WIRES Comput. Molec. Sci., 2018 8(1)1-6
     doi.org/10.1002/wcms.1327
  3. Neese,F.; Wennmohs,F.; Becker,U.; Riplinger,C.
     The ORCA quantum chemistry program package
     J. Chem. Phys., 2020 152 Art. No. L224108
     doi.org/10.1063/5.0004608

List of optional additional citations

  1. Neese,F.
     Approximate second-order SCF convergence for spin unrestricted wavefunctions
     Chem. Phys. Lett., 2000 325(1-3)93-98
     doi.org/10.1016/s0009-2614(00)00662-x

Timings for individual modules:

Sum of individual times          ...     1132.207 sec (=  18.870 min)
Startup calculation              ...        1.579 sec (=   0.026 min)   0.1 %
SCF iterations                   ...       46.577 sec (=   0.776 min)   4.1 %
Property integrals               ...      639.392 sec (=  10.657 min)  56.5 %
SCF Response                     ...      254.782 sec (=   4.246 min)  22.5 %
Property calculations            ...      189.877 sec (=   3.165 min)  16.8 %
                             ****ORCA TERMINATED NORMALLY****
TOTAL RUN TIME: 0 days 0 hours 18 minutes 52 seconds 930 msec
