15
 energy: -196.461213161020 gnorm: 0.001294690654 xtb: 6.7.1 (edcfbbe)
C           -2.21308172681556        0.22618789738581       -0.31374144499772
C           -0.99619917341725        0.31762733728238        0.61760234583285
C            0.00859775139416       -0.75475284289609        0.32579704332384
C            1.26875280210302       -0.61013552357088       -0.09176253458077
C            2.00650331801605        0.66515069698282       -0.35585072193778
H           -1.91244015470249        0.36867492836470       -1.35636503187881
H           -2.96082895557524        0.98500478015149       -0.06330151279679
H           -2.69061809846758       -0.75653122728530       -0.23665019706893
H           -0.54629911397384        1.31187614811067        0.54091428252115
H           -1.33697017634491        0.21067192252997        1.65670070186629
H           -0.36209888332572       -1.77216914117522        0.45596828823582
H            1.84438543616936       -1.51883129345847       -0.26549300323130
H            1.39076219788359        1.55473393230695       -0.20223052245817
H            2.38055554084941        0.68550507820593       -1.38715339904733
H            2.88555041925859        0.74519473258211        0.29690032648570
15
 energy: -196.461216123177 gnorm: 0.000366129020 xtb: 6.7.1 (edcfbbe)
C           -2.21226812116707        0.22665598739432       -0.31368853090776
C           -0.99564507615179        0.31718133901653        0.61752526803704
C            0.00833005196933       -0.75591636887979        0.32489207215566
C            1.26853537606332       -0.61081962096695       -0.09197501630313
C            2.00519895986650        0.66486645909475       -0.35606731089296
H           -1.91162263785567        0.36977893001579       -1.35586518331580
H           -2.95941212054304        0.98579575190144       -0.06258890917111
H           -2.69046132362391       -0.75538404548231       -0.23741929316475
H           -0.54511231702621        1.31101392170773        0.54050477308850
H           -1.33659072169917        0.21098590084287        1.65657078570037
H           -0.36186502325127       -1.77330693489398        0.45638961456689
H            1.84557327734702       -1.51894321088607       -0.26368122610460
H            1.38911873693646        1.55256923030966       -0.20332650031001
H            2.37992692159214        0.68664072954995       -1.38614214857048
H            2.88286538816119        0.74708925715713        0.29620632010803
15
 energy: -196.461216123177 gnorm: 0.000366129020 xtb: 6.7.1 (edcfbbe)
C           -2.21226812116707        0.22665598739432       -0.31368853090776
C           -0.99564507615179        0.31718133901653        0.61752526803704
C            0.00833005196933       -0.75591636887979        0.32489207215566
C            1.26853537606332       -0.61081962096695       -0.09197501630313
C            2.00519895986650        0.66486645909475       -0.35606731089296
H           -1.91162263785567        0.36977893001579       -1.35586518331580
H           -2.95941212054304        0.98579575190144       -0.06258890917111
H           -2.69046132362391       -0.75538404548231       -0.23741929316475
H           -0.54511231702621        1.31101392170773        0.54050477308850
H           -1.33659072169917        0.21098590084287        1.65657078570037
H           -0.36186502325127       -1.77330693489398        0.45638961456689
H            1.84557327734702       -1.51894321088607       -0.26368122610460
H            1.38911873693646        1.55256923030966       -0.20332650031001
H            2.37992692159214        0.68664072954995       -1.38614214857048
H            2.88286538816119        0.74708925715713        0.29620632010803
