22
 energy: -3680.219629845468 gnorm: 0.000898304117 xtb: 6.7.1 (edcfbbe)
C            1.54215521450356       -0.44686567790622        1.84984330600773
C            2.91174674739692       -0.54116896442027        2.03597442359036
C            3.77148096210133       -0.21727810478585        0.99380346288279
C            3.26680986487407        0.20826220039289       -0.24116359998456
C            1.87807121675802        0.29951213557435       -0.40999965895130
C            1.00560934033055       -0.03538371279160        0.63059128752716
C           -0.46596533033024        0.07590072313748        0.48781463452438
C           -1.12237799899483        1.12552199284156        1.12286443121576
C           -2.50141057032150        1.25492293566289        1.04520371679961
C           -3.26061724755943        0.32741847290186        0.32530402171944
C           -2.60970325862325       -0.73994997925548       -0.31294959288261
C           -1.21777025160743       -0.86296410345934       -0.22541287182129
Cl          -0.41296830979379       -2.20036123674378       -0.97968835262787
Cl          -3.53121035242209       -1.90459649591281       -1.19456420486888
Cl          -4.97617498967161        0.48630711627693        0.22888669732062
Cl          -3.26244473004617        2.58881174482066        1.85620659963040
Cl           1.22562044928404        0.86106329107437       -1.91670063817623
Cl           4.33771142724140        0.62483816232333       -1.53072569832961
Cl           5.48482475237447       -0.34254215601194        1.25264222534866
H            0.86667971019257       -0.70597141693452        2.65786446437348
H            3.32304368884360       -0.86713421383196        2.98344877349220
H           -0.54657786305152        1.85764096331441        1.67633705337119
22
 energy: -3680.219637637604 gnorm: 0.000480661382 xtb: 6.7.1 (edcfbbe)
C            1.54331082710929       -0.44756342972263        1.85064358882852
C            2.91325062970495       -0.54246110232295        2.03519675987877
C            3.77211727396668       -0.21852435621565        0.99234345641778
C            3.26625616059839        0.20902990545728       -0.24138711919608
C            1.87739049634443        0.30208874926827       -0.40787472616284
C            1.00553374489506       -0.03425068457524        0.63279582227224
C           -0.46621619860169        0.07596162800780        0.49022213118148
C           -1.12355841146107        1.12617558484368        1.12282581808545
C           -2.50273178358508        1.25541963895450        1.04353671490039
C           -3.26102667458369        0.32755667252786        0.32343915870073
C           -2.60921827552531       -0.74076108710379       -0.31257347184612
C           -1.21753229230559       -0.86386758162298       -0.22235921433172
Cl          -0.41214573255599       -2.20246746492386       -0.97408087374181
Cl          -3.52919434570544       -1.90628914012797       -1.19490999753394
Cl          -4.97676599740804        0.48794958250760        0.22331113448547
Cl          -3.26421851303401        2.58977107172730        1.85332134355327
Cl           1.22338993738431        0.86698446203701       -1.91268554281756
Cl           4.33623550628300        0.62553328911969       -1.53201615843852
Cl           5.48580319858460       -0.34683500682547        1.24875835223861
H            0.86875877521300       -0.70765963853373        2.65912664475966
H            3.32560667013573       -0.86898651954008        2.98202363397412
H           -0.54851151579086        1.85917831771148        1.67592250786338
22
 energy: -3680.219646819483 gnorm: 0.002499788266 xtb: 6.7.1 (edcfbbe)
C            1.55107580475777       -0.45361840370197        1.85747794892432
C            2.92281842358886       -0.55359603857285        2.03044007913469
C            3.77491441775556       -0.22710885677587        0.98257615745388
C            3.26021351419680        0.21594053499129       -0.24248034791600
C            1.87054635871387        0.31822600377874       -0.39406030004277
C            1.00475779027879       -0.02832237669105        0.64849873220258
C           -0.46755520093282        0.07778596219036        0.50699836562778
C           -1.13106106269547        1.13218873017083        1.12402924647347
C           -2.51032293097226        1.26031258043499        1.03237648712578
C           -3.26128041390619        0.32946035903289        0.31027668580353
C           -2.60433512263044       -0.74596146326025       -0.30870656897341
C           -1.21400554517832       -0.86939010452592       -0.20154652072086
Cl          -0.40026830128973       -2.21483331418746       -0.93453005547810
Cl          -3.51736227086870       -1.91589433619869       -1.19399643993846
Cl          -4.97715945858946        0.49457359807479        0.18248597599862
Cl          -3.27745001679761        2.59932463329615        1.82835101437862
Cl           1.20606566260260        0.90459999057957       -1.88691178923373
Cl           4.32142011081223        0.63449844214701       -1.54127519202784
Cl           5.49104818817529       -0.37494057057517        1.22071233942795
H            0.88339953834694       -0.72069983002574        2.66920269932178
H            3.34270156687240       -0.88785908407490        2.97133096485428
H           -0.56161980845834        1.87129044923837        1.67432697198341
22
 energy: -3680.219656403351 gnorm: 0.001558078951 xtb: 6.7.1 (edcfbbe)
C            1.55024522381268       -0.45372085730777        1.85705975844032
C            2.92172972234241       -0.55389403668009        2.03052628470419
C            3.77398714457441       -0.22673036444730        0.98323501835789
C            3.26030724917580        0.21520502754653       -0.24228579531406
C            1.87084913209668        0.31684088950782       -0.39550560591886
C            1.00483679086249       -0.02861771569348        0.64727632721038
C           -0.46742621447521        0.07803808360822        0.50581504626063
C           -1.13018908284698        1.13245439070236        1.12428412711051
C           -2.50930630765856        1.26074565546095        1.03283429816533
C           -3.26073684937216        0.32947226291303        0.31120689320694
C           -2.60411910091827       -0.74539908509712       -0.30901532323772
C           -1.21384851009677       -0.86850767818572       -0.20355932060202
Cl          -0.40120478821018       -2.21304707364205       -0.93857409040672
Cl          -3.51624539583023       -1.91653916737665       -1.19301099311100
Cl          -4.97621050877063        0.49400826579297        0.18771936689611
Cl          -3.27700685773382        2.59971157964788        1.82851940597398
Cl           1.20666890732963        0.89922296498147       -1.88980246641501
Cl           4.32220225799241        0.63552568159175       -1.53933009665414
Cl           5.48963848561208       -0.37099466163910        1.22292312080683
H            0.88183323687796       -0.72017342595334        2.66853995692657
H            3.34084178799277       -0.88864482072438        2.97154032588862
H           -0.56030551051953        1.87102122598045        1.67518062632863
22
 energy: -3680.219657604653 gnorm: 0.001030064292 xtb: 6.7.1 (edcfbbe)
C            1.54777927557232       -0.45407586285426        1.85540164802465
C            2.91857742221598       -0.55472837140515        2.03082198898635
C            3.77217154384405       -0.22472342660675        0.98583062287500
C            3.26117572537899        0.21429831192436       -0.24136202116487
C            1.87200374504378        0.31151085012492       -0.39976345237963
C            1.00502904881080       -0.03012116326896        0.64344286816793
C           -0.46695228326992        0.07872021514916        0.50181190525666
C           -1.12759848560972        1.13291890839363        1.12423391564351
C           -2.50638411690307        1.26174230846117        1.03429277150691
C           -3.25984773180516        0.32900740218598        0.31479199297820
C           -2.60433961547133       -0.74389908693559       -0.30925462699670
C           -1.21352779261830       -0.86594595970782       -0.20951804728788
Cl          -0.40206445110139       -2.20696368707132       -0.95007963043852
Cl          -3.51879050455751       -1.91546325432214       -1.18878125388418
Cl          -4.97453448132063        0.48878671316759        0.20137712424987
Cl          -3.27363235597626        2.60161625316224        1.82953223572499
Cl           1.21014762036058        0.88383563408643       -1.89831373461171
Cl           4.32449985352951        0.63905299589438       -1.53440017914509
Cl           5.48658111020895       -0.35968825420346        1.23111367923412
H            0.87713172971831       -0.71895650336416        2.66570789959361
H            3.33535610796838       -0.89074617129734        2.97230961897238
H           -0.55624188847474        1.86979982730142        1.67638294194302
22
 energy: -3680.219663527072 gnorm: 0.000244094478 xtb: 6.7.1 (edcfbbe)
C            1.54960602460098       -0.45581449534687        1.85680851002556
C            2.92086143696941       -0.55726150823412        2.02977601707303
C            3.77307269418801       -0.22653078218212        0.98362743045462
C            3.25986120264750        0.21661728527201       -0.24152589444473
C            1.87040256565624        0.31590730946343       -0.39633323310047
C            1.00481343277653       -0.02898631228720        0.64699198544059
C           -0.46728703937038        0.07895782886774        0.50560084929129
C           -1.12940052491986        1.13425845109434        1.12412936309662
C           -2.50816593363380        1.26272897737791        1.03164354830078
C           -3.26006543196260        0.32946592739105        0.31199133892176
C           -2.60351336779263       -0.74555610879491       -0.30771732871601
C           -1.21300951624505       -0.86774409344495       -0.20408140027316
Cl          -0.39996187000811       -2.21086214886161       -0.94003267233776
Cl          -3.51557380918026       -1.91846867369414       -1.18847074647096
Cl          -4.97472888803479        0.49155931928136        0.19167833487463
Cl          -3.27673954657125        2.60402962769588        1.82287982637710
Cl           1.20616811246213        0.89444753816733       -1.89173616525347
Cl           4.32125162647567        0.64170199180471       -1.53654511795695
Cl           5.48817443373956       -0.36703158308177        1.22440131260274
H            0.88058096824250       -0.72277610343053        2.66770799074314
H            3.33944889703095       -0.89548198997112        2.96977232757667
H           -0.55925403996057        1.87281545570255        1.67501124569867
22
 energy: -3680.219665170060 gnorm: 0.000279992569 xtb: 6.7.1 (edcfbbe)
C            1.55023988778482       -0.45766517058212        1.85714003818903
C            2.92163230391876       -0.55963677614809        2.02894534103526
C            3.77320722880571       -0.22732818735761        0.98271409201519
C            3.25919266166966        0.21828940111876       -0.24125079548247
C            1.86964183016624        0.31824430684123       -0.39476215124201
C            1.00470937123612       -0.02854350511703        0.64849312280351
C           -0.46744077688564        0.07907473271997        0.50726507816117
C           -1.12989845533347        1.13546184336889        1.12354674881948
C           -2.50856736798033        1.26395223338696        1.02965943074046
C           -3.25998159766436        0.32964208995345        0.31090942857443
C           -2.60313196901219       -0.74649313370317       -0.30642033569400
C           -1.21272348129084       -0.86871128456315       -0.20140938951973
Cl          -0.39863804621783       -2.21253594665351       -0.93507906054964
Cl          -3.51496145036399       -1.92038521120108       -1.18608872761405
Cl          -4.97443572509034        0.49164704490871        0.18781396320967
Cl          -3.27745643913214        2.60671952875059        1.81802616085502
Cl           1.20420658220798        0.89906200461053       -1.88879166976130
Cl           4.31986623859653        0.64540873470850       -1.53617547253515
Cl           5.48848369201933       -0.36933936997630        1.22157400563683
H            0.88173611751140       -0.72609975541392        2.66800215741110
H            3.34090690800069       -0.89971486226027        2.96797014445709
H           -0.56004491427019        1.87492569249827        1.67349537111903
22
 energy: -3680.219665170060 gnorm: 0.000279992569 xtb: 6.7.1 (edcfbbe)
C            1.55023988778482       -0.45766517058212        1.85714003818903
C            2.92163230391876       -0.55963677614809        2.02894534103526
C            3.77320722880571       -0.22732818735761        0.98271409201519
C            3.25919266166966        0.21828940111876       -0.24125079548247
C            1.86964183016624        0.31824430684123       -0.39476215124201
C            1.00470937123612       -0.02854350511703        0.64849312280351
C           -0.46744077688564        0.07907473271997        0.50726507816117
C           -1.12989845533347        1.13546184336889        1.12354674881948
C           -2.50856736798033        1.26395223338696        1.02965943074046
C           -3.25998159766436        0.32964208995345        0.31090942857443
C           -2.60313196901219       -0.74649313370317       -0.30642033569400
C           -1.21272348129084       -0.86871128456315       -0.20140938951973
Cl          -0.39863804621783       -2.21253594665351       -0.93507906054964
Cl          -3.51496145036399       -1.92038521120108       -1.18608872761405
Cl          -4.97443572509034        0.49164704490871        0.18781396320967
Cl          -3.27745643913214        2.60671952875059        1.81802616085502
Cl           1.20420658220798        0.89906200461053       -1.88879166976130
Cl           4.31986623859653        0.64540873470850       -1.53617547253515
Cl           5.48848369201933       -0.36933936997630        1.22157400563683
H            0.88173611751140       -0.72609975541392        2.66800215741110
H            3.34090690800069       -0.89971486226027        2.96797014445709
H           -0.56004491427019        1.87492569249827        1.67349537111903
