31
 energy: -468.205451776130 gnorm: 0.033800361890 xtb: 6.7.1 (edcfbbe)
C            3.73095859665329       -0.30111560243343       -0.14948151186624
C            2.29138533421537       -0.17259779927648        0.33989339595062
H            2.30445243282116        0.07470009393310        1.40800964922393
C            1.52178594957434       -1.47647333335426        0.15168953126722
C            0.07928995333514       -1.33684408359239        0.62890846407869
C           -0.67139370569751       -0.23332558410339       -0.12483103935532
H           -0.66505919119471       -0.47461030711031       -1.19248808242842
C            0.10612250184703        1.08132153787916        0.06427177952848
H            0.10515728424660        1.32733754778818        1.14156487190586
C            1.55723446749005        0.93681255461513       -0.40640798908009
O           -0.52911145253446        2.12579767554200       -0.64898068298758
C           -2.14380003234997       -0.07878609413491        0.32616586854453
C           -2.98748152522383        0.51843158152973       -0.80056608995475
C           -2.79472012283841       -1.38978653931585        0.77011451694126
H            4.27288819609343        0.63013131317923        0.00035209720016
H            4.24827161268252       -1.09009985988305        0.39166520087356
H            3.75110945926222       -0.54291196594058       -1.21005080003621
H            1.52995848527797       -1.74795497607457       -0.90654409160171
H            2.01221658289167       -2.27984154051026        0.70602453161286
H           -0.42551573168856       -2.29058551991502        0.48131439551328
H            0.07363255653263       -1.11018628979195        1.69799710185243
H            1.55364640538846        0.72009662451909       -1.47744536095470
H            2.07625348512004        1.88980689083742       -0.25992709821518
H            0.02072499550918        2.91429294139140       -0.58483209225915
H           -2.16369632595879        0.61129936387088        1.17683776992149
H           -3.05545558785395       -0.18455676928178       -1.62871670692173
H           -2.54344592352707        1.43933988973781       -1.16079347941438
H           -3.99462054867012        0.72975681342337       -0.44725647149819
H           -2.33322070003391       -1.79022683179330        1.66843387363933
H           -2.73756265691309       -2.13545227944628       -0.02001431420887
H           -3.84588169470421       -1.21077465313653        0.98719662053745
31
 energy: -468.206869573370 gnorm: 0.010877092437 xtb: 6.7.1 (edcfbbe)
C            3.74974473232787       -0.30289058850252       -0.14896117201996
C            2.30779182609342       -0.17634796558413        0.33461483635407
H            2.31828186767815        0.06974036856645        1.40627954623213
C            1.52687543444019       -1.47699553852665        0.16248617920206
C            0.07794407213576       -1.33381008817834        0.62627683797814
C           -0.67648186392741       -0.22136258776072       -0.11790699671681
H           -0.66451054952298       -0.46624073055167       -1.19018114400590
C            0.11680432754601        1.08332415109803        0.06179952449223
H            0.11275737333789        1.31381140255930        1.14398482484124
C            1.56727724876146        0.93857862378263       -0.39990451704049
O           -0.52463082439973        2.13840935655386       -0.65037692899749
C           -2.15763396701148       -0.07367280369673        0.31761764824186
C           -3.01389352873102        0.52236734419563       -0.80517839303591
C           -2.79828414195076       -1.38938544618148        0.77389094100182
H            4.29845821431166        0.63156513648609       -0.00378950385520
H            4.27474568742024       -1.09617143457534        0.38958447879186
H            3.76900712383021       -0.54561042359786       -1.21551149417853
H            1.53924746523557       -1.75349570307062       -0.89991851887558
H            2.01947704277736       -2.28766431880077        0.71113986097688
H           -0.43804710326837       -2.28640303191191        0.48643311085978
H            0.06490695171251       -1.11747928271856        1.70242527941352
H            1.56226180852700        0.72797204172008       -1.47701290707088
H            2.08830481288303        1.89528205619474       -0.25678477174218
H            0.02798856240837        2.92411113858770       -0.58090269243748
H           -2.17503226552795        0.61782755929167        1.17185651364794
H           -3.07832037761397       -0.18966623071485       -1.63421814037949
H           -2.58848906403651        1.44962142748067       -1.18204010942670
H           -4.02921259554057        0.72091325789152       -0.45163356226882
H           -2.33329519425078       -1.80137721563064        1.67194677856216
H           -2.74448947986117       -2.14198091684810       -0.01883321932700
H           -3.85542613100996       -1.21997882074269        0.99492293661519
31
 energy: -468.207062779972 gnorm: 0.003455341007 xtb: 6.7.1 (edcfbbe)
C            3.75406349645532       -0.30559780424416       -0.15025319099210
C            2.31286635976166       -0.17633265604205        0.33638556547869
H            2.32591504297298        0.07029291176560        1.40974381845345
C            1.52858055903714       -1.47651363501446        0.16485095818052
C            0.07809471400640       -1.33111042303519        0.62563148513964
C           -0.67501543276205       -0.21723371228076       -0.12277016951024
H           -0.65981243364787       -0.46359452815271       -1.19755122706670
C            0.12132436044494        1.08280402069631        0.06650175906439
H            0.11562665511815        1.31154509217144        1.14989099427884
C            1.56977560679955        0.93916340862149       -0.39749523024060
O           -0.52294637026149        2.14301769242512       -0.64805218041164
C           -2.15861185395705       -0.06791982979637        0.31548991421800
C           -3.02434694007460        0.51907366259321       -0.80731212527889
C           -2.79907035963033       -1.38499038692475        0.77336746574571
H            4.30750932373389        0.62888857744000       -0.00752942356132
H            4.28420362849061       -1.09935366740459        0.38692661719463
H            3.77765770117194       -0.54922387081232       -1.21920531818254
H            1.54514533494007       -1.76024667958590       -0.89849178466619
H            2.01914990624254       -2.28919020760917        0.71515155305668
H           -0.44079997897247       -2.28364651502129        0.48726695454418
H            0.05845410408220       -1.12045038801401        1.70577045922420
H            1.56790272902729        0.73352805539718       -1.47806395963721
H            2.09203830340818        1.89691886837440       -0.25428868738074
H            0.03149358765959        2.92742678565629       -0.57348075044434
H           -2.17882877989833        0.62647462995299        1.16975250178845
H           -3.09001294625755       -0.19544774922246       -1.63785361022816
H           -2.61404163008510        1.45230650882547       -1.19194640334454
H           -4.04335985924136        0.70591215629441       -0.45037919422941
H           -2.33056922424640       -1.80118483220426        1.66986787424952
H           -2.75026704760221       -2.14210108220971       -0.01941773576583
H           -3.85798889671936       -1.22022557795318        0.99959899585912
31
 energy: -468.207087038943 gnorm: 0.001777576346 xtb: 6.7.1 (edcfbbe)
C            3.75420390569274       -0.30671115196716       -0.15161946119321
C            2.31373716605228       -0.17646802437766        0.33665367104972
H            2.32937468538296        0.07026046072794        1.40992717487641
C            1.52904735627696       -1.47701880050588        0.16609735016544
C            0.07797159847196       -1.33219114369198        0.62463110308964
C           -0.67419261254499       -0.21679421717044       -0.12357075360367
H           -0.65830265289339       -0.46177079708677       -1.19836676270180
C            0.12183454748685        1.08218888429392        0.06690876855887
H            0.11541771692911        1.31177733498430        1.14976121165411
C            1.57050776176475        0.94046970266569       -0.39629407669384
O           -0.52419182733080        2.14477472862009       -0.64674957618082
C           -2.15898364282641       -0.06720453048718        0.31366339638630
C           -3.02600505686428        0.51761817255117       -0.80923067859232
C           -2.79888399114555       -1.38341867740468        0.77433796257348
H            4.30901565780344        0.62705176680491       -0.00966031459518
H            4.28473146558712       -1.10022376465307        0.38544517503420
H            3.77817462331157       -0.55096782522632       -1.22037835832184
H            1.54747332338254       -1.76304354442825       -0.89658805115303
H            2.01842084372073       -2.28878042401846        0.71886340216684
H           -0.44011519557150       -2.28487412805627        0.48465428181889
H            0.05613821347392       -1.12174384830598        1.70480020702208
H            1.57011225995416        0.73644184204602       -1.47706322227155
H            2.09298607042626        1.89794206973250       -0.25149067325728
H            0.03069997519795        2.92878274783583       -0.56862246348729
H           -2.17962582141721        0.62940018751884        1.16588640016352
H           -3.09104467561118       -0.19692552930975       -1.63975456107955
H           -2.62094713063548        1.45307313145033       -1.19390674442269
H           -4.04545873249009        0.69900850820701       -0.45056740757623
H           -2.32824934343300       -1.79950381842603        1.66952766535086
H           -2.75282106800093       -2.14047234932043       -0.01858353166270
H           -3.85689538272113       -1.21768831975237        1.00339490548632
31
 energy: -468.207104341923 gnorm: 0.001565371712 xtb: 6.7.1 (edcfbbe)
C            3.75370242043804       -0.30903978452038       -0.15515832814734
C            2.31496199177649       -0.17686812172775        0.33718935476570
H            2.33548974196622        0.06959064412698        1.41008722661289
C            1.52988191312414       -1.47774477679890        0.16845696224745
C            0.07741852413938       -1.33378493974167        0.62157683887730
C           -0.67287757548634       -0.21619240713415       -0.12602835206826
H           -0.65560015837588       -0.45783362978933       -1.20075985296951
C            0.12194132077298        1.08083452986261        0.06896761757499
H            0.11374162925130        1.31156385628022        1.15089321123719
C            1.57096630328124        0.94252850502010       -0.39344850896614
O           -0.52707037828260        2.14660683432407       -0.64365163889983
C           -2.15912262763892       -0.06567808126562        0.30999672786848
C           -3.02751558107906        0.51328647607027       -0.81432242088061
C           -2.79789731570788       -1.37939135041490        0.77754576039811
H            4.31039821228923        0.62347381658938       -0.01508507884220
H            4.28399554693136       -1.10239383116459        0.38167011320973
H            3.77530720354162       -0.55465498536352       -1.22315239557896
H            1.55266920575008       -1.76774586200092       -0.89246036358846
H            2.01749323660873       -2.28638896184918        0.72703013333176
H           -0.43896544282928       -2.28631760180547        0.47635346248481
H            0.05158234875372       -1.12461701537967        1.70139338738522
H            1.57339258323944        0.74226267799993       -1.47435610321933
H            2.09327878362929        1.89899836151540       -0.24342746955604
H            0.02712023724214        2.93046675933273       -0.55670671900389
H           -2.17986300324156        0.63622391228418        1.15715378780595
H           -3.08753193653379       -0.20042649543539       -1.64531412314123
H           -2.63091767094510        1.45278880155064       -1.19622529445880
H           -4.04815480954434        0.68435419546615       -0.45488762543537
H           -2.32134060241643       -1.79422833447992        1.66937493582683
H           -2.75924833976562       -2.13648604716580       -0.01491915728833
H           -3.85310548652798       -1.21019816878874        1.01431984913554
31
 energy: -468.207111918232 gnorm: 0.001137385064 xtb: 6.7.1 (edcfbbe)
C            3.75305251660945       -0.30920577597435       -0.15587266795894
C            2.31450927425554       -0.17679639714176        0.33745797815428
H            2.33490490529199        0.06917993745323        1.41047776775056
C            1.52968076945266       -1.47755594322310        0.16809495087248
C            0.07697201273702       -1.33390538988748        0.62097035720831
C           -0.67284164741515       -0.21598852628688       -0.12603516009608
H           -0.65523336091459       -0.45708539735328       -1.20106316867450
C            0.12207434133415        1.08106258414566        0.06959934157517
H            0.11322236778731        1.31062883301690        1.15186635879733
C            1.57109632526008        0.94301495292931       -0.39267630225192
O           -0.52633992297194        2.14648398684733       -0.64297294171720
C           -2.15886618723035       -0.06567609373605        0.30974043679447
C           -3.02638316311848        0.51191519198651       -0.81595164540465
C           -2.79779230539468       -1.37856418205163        0.77944699967138
H            4.30982187038230        0.62335132716151       -0.01638647977039
H            4.28342251133731       -1.10297252534066        0.38038121594452
H            3.77286233265565       -0.55477106732449       -1.22395617601267
H            1.55303011999050       -1.76751950996699       -0.89281834558356
H            2.01730044979018       -2.28615019204119        0.72672510020550
H           -0.43964262694394       -2.28622151346949        0.47462725149994
H            0.05079457625074       -1.12620741149262        1.70101608345702
H            1.57296339695770        0.74353799193650       -1.47378428745425
H            2.09312339066232        1.89944840742793       -0.24179129978162
H            0.02588459905920        2.93135832752004       -0.55411411559013
H           -2.17972505061832        0.63731057589958        1.15612749275331
H           -3.08270689080308       -0.20166435736232       -1.64735130651761
H           -2.62949593325323        1.45181717620690       -1.19692539425251
H           -4.04808533045402        0.68234657262584       -0.45942842598895
H           -2.31977241645191       -1.79306913523348        1.67077692306457
H           -2.76116161542787       -2.13660738122368       -0.01226352569340
H           -3.85253930918743       -1.20850554535183        1.01818859533761
31
 energy: -468.207116705367 gnorm: 0.001731625444 xtb: 6.7.1 (edcfbbe)
C            3.75053166696255       -0.31093197389320       -0.16105802989741
C            2.31361376775476       -0.17741993345565        0.33849879503227
H            2.33594347103178        0.06542141739341        1.41229608467987
C            1.52919657980445       -1.47744427247354        0.16658537580417
C            0.07511734500505       -1.33575234920034        0.61629972032126
C           -0.67239400903894       -0.21511902607576       -0.12654128403074
H           -0.65208165479113       -0.45223303390064       -1.20297949535482
C            0.12112397768026        1.08250251459228        0.07420264315740
H            0.11054284291501        1.30542393342116        1.15834994639301
C            1.57068927073747        0.94529344132310       -0.38602141286827
O           -0.52532464051016        2.14776228091040       -0.63628336566540
C           -2.15827817356059       -0.06345274668081        0.30678069809919
C           -3.02092151376173        0.50259784434289       -0.82851646071491
C           -2.79718646117390       -1.37109493438127        0.79151722094524
H            4.30876571110017        0.62142273661364       -0.02526418550784
H            4.28251067685022       -1.10660931651365        0.37132501642945
H            3.76097153611461       -0.55619682212346       -1.22966344250305
H            1.55579761169850       -1.76736957717901       -0.89432144237075
H            2.01648817463971       -2.28569252795460        0.72620333054409
H           -0.44193921517849       -2.28704482459401        0.46274031702249
H            0.04583587244111       -1.13602439227708        1.69777664483310
H            1.57179532756904        0.75189842461706       -1.46842169253135
H            2.09216405344556        1.90103422074280       -0.22963855836778
H            0.01648281456184        2.93782316827326       -0.53241523849663
H           -2.18088631677834        0.64851973722748        1.14612813604812
H           -3.05525843539915       -0.21143256924884       -1.66135032163238
H           -2.62735753581138        1.44661750030042       -1.20472875352078
H           -4.04975428344282        0.66322264780190       -0.48749189968503
H           -2.30908070377954       -1.78251172880011        1.67935211143860
H           -2.77476814500783       -2.13552042585723        0.00482961981635
H           -3.84821098499669       -1.19469650632746        1.04391342556597
31
 energy: -468.207124658278 gnorm: 0.000647841281 xtb: 6.7.1 (edcfbbe)
C            3.75132855579223       -0.31035713326723       -0.16022509374652
C            2.31418017481954       -0.17758624981981        0.33787920510713
H            2.33682405061021        0.06534347472289        1.41164854097794
C            1.52914754367101       -1.47771551005776        0.16631173552037
C            0.07582008634416       -1.33532556949931        0.61776482770828
C           -0.67243791779582       -0.21503787705846       -0.12582299096737
H           -0.65274269936238       -0.45286479696427       -1.20181536883306
C            0.12231113692310        1.08180492653991        0.07457484142830
H            0.11239519193791        1.30678403758245        1.15805134726156
C            1.57142600657427        0.94504271237735       -0.38761960565870
O           -0.52565919921737        2.14730362306517       -0.63540518663587
C           -2.15899848207991       -0.06386342520203        0.30687562597259
C           -3.02254659925315        0.50356930498853       -0.82691434113031
C           -2.79824348160949       -1.37201247838433        0.78920118886323
H            4.30922844054559        0.62183102490125       -0.02285243018073
H            4.28305265490146       -1.10539041807949        0.37291767417637
H            3.76533572110972       -0.55520890102799       -1.22866925704245
H            1.55395004660677       -1.76676186834801       -0.89486532088243
H            2.01644095590276       -2.28684928774002        0.72456839801455
H           -0.44121588647536       -2.28682069658540        0.46623141616084
H            0.04798820305533       -1.13344617422685        1.69884053138521
H            1.57270067658901        0.75041320628887       -1.46972174102015
H            2.09339423140812        1.90086043670303       -0.23287051660876
H            0.01834294650923        2.93629175514934       -0.53512994910030
H           -2.18200534479556        0.64694122268034        1.14685484225028
H           -3.06247993429925       -0.21106512569977       -1.65840760198920
H           -2.62913766321499        1.44639115491571       -1.20531664719030
H           -4.04948779675091        0.66589989812691       -0.48199836716536
H           -2.31295345914690       -1.78304706381369        1.67834797861075
H           -2.77181641846719       -2.13529196529093        0.00207070261263
H           -3.85001275300221       -1.19683994406959        1.03759928705611
31
 energy: -468.207127793494 gnorm: 0.000304915851 xtb: 6.7.1 (edcfbbe)
C            3.75171043749985       -0.31058431966827       -0.16056295045652
C            2.31457432467524       -0.17814788854549        0.33731122692891
H            2.33766504859779        0.06394408058477        1.41124079920756
C            1.52878607679277       -1.47798753578867        0.16508823097977
C            0.07592560403266       -1.33568836245379        0.61823956285360
C           -0.67217244123269       -0.21487811416458       -0.12515141621150
H           -0.65196164566218       -0.45214893816207       -1.20115728783816
C            0.12240907511614        1.08187836746455        0.07581461866317
H            0.11338610490316        1.30634867501415        1.15930583591644
C            1.57125644646390        0.94499768251116       -0.38715241501314
O           -0.52675043579664        2.14811371977835       -0.63262863944226
C           -2.15922455190833       -0.06310510526269        0.30654270343849
C           -3.02231921992425        0.50204263724346       -0.82872908316776
C           -2.79841392394259       -1.37078904164646        0.79006240685594
H            4.30935158447558        0.62158316045987       -0.02212852579933
H            4.28368525800816       -1.10562654179414        0.37221643596454
H            3.76682662098355       -0.55451621428611       -1.22915880429865
H            1.55224532887233       -1.76571636438398       -0.89649643492542
H            2.01638320967162       -2.28800998516114        0.72173450954239
H           -0.44134455404729       -2.28716165735422        0.46742641388094
H            0.04924673825360       -1.13335695611405        1.69924966793766
H            1.57216658861324        0.75080921710534       -1.46931662455156
H            2.09360970365180        1.90064962698592       -0.23244972015545
H            0.01707826784230        2.93729086514726       -0.53211786437178
H           -2.18337306767080        0.64922154563991        1.14511132091676
H           -3.06225327320453       -0.21413290591780       -1.65884692351666
H           -2.62949903250374        1.44438061314543       -1.20872589089755
H           -4.04932205125965        0.66425477603399       -0.48410678318570
H           -2.31381309504691       -1.78036802749405        1.68016259464136
H           -2.77141088782058       -2.13505807133205        0.00400476264628
H           -3.85031933347586       -1.19524625702999        1.03732161540001
31
 energy: -468.207127793494 gnorm: 0.000304915851 xtb: 6.7.1 (edcfbbe)
C            3.75171043749985       -0.31058431966827       -0.16056295045652
C            2.31457432467524       -0.17814788854549        0.33731122692891
H            2.33766504859779        0.06394408058477        1.41124079920756
C            1.52878607679277       -1.47798753578867        0.16508823097977
C            0.07592560403266       -1.33568836245379        0.61823956285360
C           -0.67217244123269       -0.21487811416458       -0.12515141621150
H           -0.65196164566218       -0.45214893816207       -1.20115728783816
C            0.12240907511614        1.08187836746455        0.07581461866317
H            0.11338610490316        1.30634867501415        1.15930583591644
C            1.57125644646390        0.94499768251116       -0.38715241501314
O           -0.52675043579664        2.14811371977835       -0.63262863944226
C           -2.15922455190833       -0.06310510526269        0.30654270343849
C           -3.02231921992425        0.50204263724346       -0.82872908316776
C           -2.79841392394259       -1.37078904164646        0.79006240685594
H            4.30935158447558        0.62158316045987       -0.02212852579933
H            4.28368525800816       -1.10562654179414        0.37221643596454
H            3.76682662098355       -0.55451621428611       -1.22915880429865
H            1.55224532887233       -1.76571636438398       -0.89649643492542
H            2.01638320967162       -2.28800998516114        0.72173450954239
H           -0.44134455404729       -2.28716165735422        0.46742641388094
H            0.04924673825360       -1.13335695611405        1.69924966793766
H            1.57216658861324        0.75080921710534       -1.46931662455156
H            2.09360970365180        1.90064962698592       -0.23244972015545
H            0.01707826784230        2.93729086514726       -0.53211786437178
H           -2.18337306767080        0.64922154563991        1.14511132091676
H           -3.06225327320453       -0.21413290591780       -1.65884692351666
H           -2.62949903250374        1.44438061314543       -1.20872589089755
H           -4.04932205125965        0.66425477603399       -0.48410678318570
H           -2.31381309504691       -1.78036802749405        1.68016259464136
H           -2.77141088782058       -2.13505807133205        0.00400476264628
H           -3.85031933347586       -1.19524625702999        1.03732161540001
