 Entering Gaussian System
 *********************************************
 Gaussian 98:
 frequency output generated by the xtb code
 *********************************************
                         Standard orientation:
 --------------------------------------------------------------------
  Center     Atomic     Atomic              Coordinates (Angstroms)
  Number     Number      Type              X           Y           Z
 --------------------------------------------------------------------
    1          6             0       -1.371776   -0.830510    0.279811
    2         16             0       -0.010715    0.314222   -0.232709
    3          8             0        0.101613    1.305057    0.835766
    4          6             0        1.340204   -0.913709    0.071884
    5          1             0       -1.202865   -1.161294    1.298350
    6          1             0       -1.397739   -1.669319   -0.405760
    7          1             0       -2.303128   -0.276448    0.225765
    8          1             0        2.284447   -0.417428   -0.126696
    9          1             0        1.209857   -1.749706   -0.605167
   10          1             0        1.308986   -1.237720    1.106009
 --------------------------------------------------------------------
     1 basis functions        1 primitive gaussians
     1 alpha electrons        1 beta electrons
 
 Harmonic frequencies (cm**-1), IR intensities (km*mol⁻¹),
 Raman scattering activities (A**4/amu), Raman depolarization ratios,
 reduced masses (AMU), force constants (mDyne/A) and normal coordinates:
                      1                      2                      3
                        a                      a                      a 
 Frequencies --   117.6513               177.7188               269.5765
 Red. masses --     1.2783                 1.8776                10.6735
 Frc consts  --     0.0000                 0.0000                 0.0000
 IR Inten    --     0.0408                 0.6927                 0.1662
 Raman Activ --     0.0000                 0.0000                 0.0000
 Depolar     --     0.0000                 0.0000                 0.0000
 Atom AN      X      Y      Z        X      Y      Z        X      Y      Z
   1   6    -0.00  -0.03  -0.10     0.00   0.01  -0.07     0.39  -0.31  -0.04
   2  16     0.02  -0.00  -0.00     0.00   0.07  -0.00     0.01   0.30   0.05
   3   8    -0.04   0.00   0.00     0.01  -0.12   0.16     0.01   0.30  -0.05
   4   6     0.01   0.03   0.10    -0.01   0.01  -0.07    -0.41  -0.29   0.02
   5   1     0.17  -0.35  -0.17    -0.19   0.33   0.12     0.16  -0.12  -0.03
   6   1    -0.24   0.21  -0.28     0.24  -0.20   0.22     0.24  -0.06  -0.05
   7   1     0.05   0.11   0.34    -0.05  -0.12  -0.39     0.02  -0.24   0.02
   8   1    -0.01  -0.11  -0.34    -0.02  -0.12  -0.39    -0.03  -0.24   0.02
   9   1    -0.20  -0.19   0.32    -0.22  -0.19   0.26    -0.25  -0.05  -0.01
  10   1     0.22   0.34   0.14     0.22   0.31   0.08    -0.17  -0.11  -0.00
                      4                      5                      6
                        a                      a                      a 
 Frequencies --   305.5116               362.0820               654.0402
 Red. masses --    14.1800                15.9736                15.4476
 Frc consts  --     0.0000                 0.0000                 0.0000
 IR Inten    --     8.2715                12.6716                37.0720
 Raman Activ --     0.0000                 0.0000                 0.0000
 Depolar     --     0.0000                 0.0000                 0.0000
 Atom AN      X      Y      Z        X      Y      Z        X      Y      Z
   1   6    -0.13  -0.26  -0.15    -0.24  -0.10  -0.15    -0.43  -0.30   0.12
   2  16    -0.34   0.01   0.03     0.03  -0.18   0.49    -0.00   0.45  -0.23
   3   8     0.70  -0.02  -0.05    -0.00   0.49  -0.23     0.01   0.04   0.08
   4   6    -0.09   0.26   0.17     0.20  -0.11  -0.19     0.42  -0.32   0.06
   5   1    -0.09  -0.14  -0.06    -0.24  -0.12  -0.05    -0.01  -0.04   0.03
   6   1     0.09  -0.02  -0.11     0.04   0.03  -0.12    -0.11  -0.11   0.07
   7   1    -0.09  -0.16  -0.09    -0.05  -0.01  -0.17    -0.15  -0.14   0.09
   8   1    -0.06   0.16   0.10     0.02  -0.01  -0.17     0.16  -0.15   0.07
   9   1     0.11   0.02   0.09    -0.05   0.03  -0.12     0.11  -0.11   0.05
  10   1    -0.07   0.15   0.07     0.22  -0.14  -0.08     0.01  -0.04   0.03
                      7                      8                      9
                        a                      a                      a 
 Frequencies --   664.1227               818.1776               866.7819
 Red. masses --    16.6150                 3.0183                 4.9697
 Frc consts  --     0.0000                 0.0000                 0.0000
 IR Inten    --    71.8122                 6.8927                28.5787
 Raman Activ --     0.0000                 0.0000                 0.0000
 Depolar     --     0.0000                 0.0000                 0.0000
 Atom AN      X      Y      Z        X      Y      Z        X      Y      Z
   1   6    -0.35  -0.35   0.12    -0.19   0.12  -0.12     0.09  -0.13  -0.27
   2  16     0.56  -0.02  -0.04     0.14  -0.00  -0.01    -0.22   0.01   0.02
   3   8    -0.03   0.00   0.00    -0.00   0.00   0.00     0.14  -0.00  -0.01
   4   6    -0.34   0.37  -0.07    -0.17  -0.11   0.15     0.14   0.12   0.25
   5   1    -0.10  -0.04   0.05     0.39   0.16  -0.07     0.20   0.26  -0.01
   6   1    -0.20  -0.13   0.09     0.13  -0.04   0.05    -0.35  -0.23   0.18
   7   1    -0.04   0.00   0.03    -0.27  -0.33   0.20     0.14   0.17   0.06
   8   1    -0.04   0.00  -0.03    -0.28   0.34  -0.16     0.11  -0.18  -0.08
   9   1    -0.20   0.15  -0.05     0.12   0.04  -0.07    -0.36   0.25  -0.13
  10   1    -0.10   0.05  -0.03     0.39  -0.18   0.01     0.18  -0.27  -0.02
                     10                     11                     12
                        a                      a                      a 
 Frequencies --   898.8581               937.9255              1144.2488
 Red. masses --     5.0891                 5.2652                21.3661
 Frc consts  --     0.0000                 0.0000                 0.0000
 IR Inten    --    20.9034                55.1037               323.8672
 Raman Activ --     0.0000                 0.0000                 0.0000
 Depolar     --     0.0000                 0.0000                 0.0000
 Atom AN      X      Y      Z        X      Y      Z        X      Y      Z
   1   6     0.05  -0.15  -0.26    -0.17   0.21  -0.14     0.02  -0.00  -0.04
   2  16     0.01  -0.05   0.17     0.01  -0.22   0.15     0.05   0.38   0.45
   3   8     0.01   0.25   0.07    -0.00   0.03  -0.02    -0.06  -0.53  -0.59
   4   6    -0.10  -0.15  -0.25     0.16   0.20  -0.16    -0.02  -0.00  -0.04
   5   1     0.20   0.25  -0.00     0.35   0.14  -0.07     0.01   0.03  -0.00
   6   1    -0.34  -0.23   0.19     0.17   0.00   0.02    -0.05  -0.03   0.04
   7   1     0.12   0.16   0.08    -0.27  -0.31   0.17     0.00   0.00   0.02
   8   1    -0.10   0.16   0.09     0.27  -0.32   0.13     0.00   0.00   0.02
   9   1     0.35  -0.26   0.14    -0.17   0.01   0.05     0.06  -0.04   0.03
  10   1    -0.18   0.26   0.03    -0.35   0.16  -0.02    -0.01   0.03   0.00
                     13                     14                     15
                        a                      a                      a 
 Frequencies --  1283.1385              1289.8929              1431.0602
 Red. masses --     2.8427                 2.8265                 1.6982
 Frc consts  --     0.0000                 0.0000                 0.0000
 IR Inten    --     1.2351                 6.8697                 6.8038
 Raman Activ --     0.0000                 0.0000                 0.0000
 Depolar     --     0.0000                 0.0000                 0.0000
 Atom AN      X      Y      Z        X      Y      Z        X      Y      Z
   1   6    -0.21  -0.18   0.08    -0.19  -0.19   0.08    -0.12   0.12  -0.04
   2  16    -0.02   0.00   0.00     0.00   0.02   0.03    -0.02   0.00   0.00
   3   8     0.00  -0.00  -0.00    -0.00  -0.03  -0.03     0.00  -0.00  -0.00
   4   6    -0.20   0.20  -0.05     0.19  -0.20   0.05    -0.12  -0.11   0.06
   5   1     0.30   0.21   0.03     0.30   0.22   0.03     0.12  -0.38  -0.16
   6   1     0.28   0.15  -0.21     0.28   0.15  -0.21     0.24  -0.26   0.32
   7   1     0.18   0.31  -0.11     0.18   0.30  -0.10     0.10   0.21  -0.02
   8   1     0.18  -0.32   0.08    -0.18   0.31  -0.07     0.09  -0.22   0.00
   9   1     0.30  -0.17   0.16    -0.30   0.17  -0.16     0.20   0.25  -0.36
  10   1     0.28  -0.23  -0.07    -0.27   0.24   0.08     0.17   0.37   0.13
                     16                     17                     18
                        a                      a                      a 
 Frequencies --  1442.8550              1452.0641              1463.1566
 Red. masses --     1.6453                 1.6790                 1.6519
 Frc consts  --     0.0000                 0.0000                 0.0000
 IR Inten    --     1.3607                 0.1883                11.7232
 Raman Activ --     0.0000                 0.0000                 0.0000
 Depolar     --     0.0000                 0.0000                 0.0000
 Atom AN      X      Y      Z        X      Y      Z        X      Y      Z
   1   6    -0.12   0.11  -0.04    -0.01  -0.06  -0.16     0.00  -0.06  -0.16
   2  16    -0.00   0.01  -0.01     0.00  -0.00  -0.00    -0.00  -0.00  -0.02
   3   8     0.00  -0.00   0.00     0.00  -0.00  -0.00     0.00  -0.00   0.00
   4   6     0.12   0.10  -0.06     0.02   0.06   0.16    -0.03  -0.06  -0.16
   5   1     0.11  -0.37  -0.15    -0.31   0.15   0.09    -0.32   0.16   0.09
   6   1     0.26  -0.26   0.32     0.28  -0.05   0.02     0.27  -0.04   0.01
   7   1     0.11   0.22  -0.00     0.04   0.12   0.50     0.04   0.11   0.50
   8   1    -0.10   0.23   0.01    -0.04  -0.12  -0.50     0.05   0.11   0.50
   9   1    -0.22  -0.25   0.36     0.27   0.03  -0.06    -0.27  -0.02   0.05
  10   1    -0.16  -0.36  -0.13    -0.33  -0.13  -0.04     0.34   0.14   0.04
                     19                     20                     21
                        a                      a                      a 
 Frequencies --  3054.4706              3055.3795              3064.7437
 Red. masses --     1.2870                 1.2136                 1.9139
 Frc consts  --     0.0000                 0.0000                 0.0000
 IR Inten    --     0.0209                 0.7575                 4.8866
 Raman Activ --     0.0000                 0.0000                 0.0000
 Depolar     --     0.0000                 0.0000                 0.0000
 Atom AN      X      Y      Z        X      Y      Z        X      Y      Z
   1   6    -0.02  -0.09   0.06     0.06   0.05  -0.05    -0.15   0.11  -0.07
   2  16    -0.00   0.00   0.00     0.00   0.00  -0.00    -0.00   0.00   0.00
   3   8    -0.00   0.00   0.00    -0.00  -0.00  -0.00     0.00  -0.00  -0.00
   4   6    -0.02   0.10  -0.05    -0.07   0.05  -0.04    -0.15  -0.10   0.09
   5   1    -0.09   0.15  -0.49     0.09  -0.13   0.43     0.02  -0.06   0.23
   6   1     0.00   0.31   0.27     0.00  -0.26  -0.23    -0.02   0.01  -0.01
   7   1     0.18  -0.12   0.02    -0.33   0.21  -0.03     0.54  -0.33   0.03
   8   1     0.18   0.11  -0.04     0.33   0.19  -0.08     0.55   0.30  -0.11
   9   1    -0.06  -0.31  -0.27    -0.06  -0.26  -0.23    -0.02  -0.01   0.02
  10   1    -0.03  -0.14   0.50    -0.03  -0.13   0.45    -0.01   0.06  -0.23
                     22                     23                     24
                        a                      a                      a 
 Frequencies --  3068.7033              3073.5051              3077.1137
 Red. masses --     1.9759                 2.0118                 1.9920
 Frc consts  --     0.0000                 0.0000                 0.0000
 IR Inten    --     7.7137                 0.5072                25.9247
 Raman Activ --     0.0000                 0.0000                 0.0000
 Depolar     --     0.0000                 0.0000                 0.0000
 Atom AN      X      Y      Z        X      Y      Z        X      Y      Z
   1   6     0.14  -0.12   0.10     0.01  -0.10  -0.19     0.02  -0.12  -0.17
   2  16     0.00  -0.00   0.00     0.00  -0.00  -0.00    -0.00  -0.00  -0.01
   3   8     0.00   0.00  -0.00    -0.00   0.00   0.00     0.00   0.00   0.00
   4   6    -0.13  -0.11   0.12     0.05   0.10   0.18    -0.06  -0.12  -0.17
   5   1    -0.05   0.11  -0.39     0.07  -0.13   0.34     0.06  -0.11   0.27
   6   1     0.02   0.03   0.05     0.01   0.43   0.34     0.01   0.45   0.37
   7   1    -0.46   0.28  -0.02    -0.12   0.06  -0.03    -0.14   0.07  -0.03
   8   1     0.47   0.25  -0.09    -0.12  -0.05   0.05     0.14   0.07  -0.05
   9   1    -0.01   0.03   0.05    -0.07  -0.42  -0.34     0.07   0.45   0.37
  10   1     0.00   0.11  -0.39     0.02   0.12  -0.35    -0.02  -0.10   0.27
