10
 energy: -14.618075211001 gnorm: 0.063890308682 xtb: 6.7.1 (edcfbbe)
C           -1.37813009910728       -0.83684595327889        0.27399820778356
S           -0.01150288781445        0.29437402942339       -0.23316452631937
O            0.10666725313887        1.34071973156508        0.85765432643864
C            1.34481126601350       -0.92037881749988        0.06518384498684
H           -1.19687715584355       -1.16416901882551        1.30150926185936
H           -1.43281610651577       -1.68861467592531       -0.41055623895647
H           -2.30173457619763       -0.25622199301704        0.22404542306366
H            2.28264274961259       -0.39621314394734       -0.12938881286304
H            1.24252356820467       -1.77253550080186       -0.61287791262593
H            1.30332600735730       -1.23697370907506        1.11083606252882
10
 energy: -14.620294468226 gnorm: 0.040323324256 xtb: 6.7.1 (edcfbbe)
C           -1.37188367093715       -0.83000541953824        0.27940624383799
S           -0.01276742840394        0.29931713112979       -0.25157570744856
O            0.10332865851965        1.30936486377782        0.84098573768266
C            1.34002017233732       -0.91315799371861        0.07147284858858
H           -1.19847946982484       -1.16633747819380        1.29766107148243
H           -1.41442420540889       -1.66956515505015       -0.40741821647433
H           -2.30000922853871       -0.26683233570770        0.23536943993540
H            2.28273180567089       -0.40728638978109       -0.11783308642949
H            1.22597126949296       -1.75222584776812       -0.60758499588250
H            1.30442211594096       -1.24013042653233        1.10675630060391
10
 energy: -14.621108315253 gnorm: 0.006522114132 xtb: 6.7.1 (edcfbbe)
C           -1.37597378840903       -0.82873962404942        0.28135732059682
S           -0.01165228384600        0.30099280091911       -0.23839900655802
O            0.10087733983459        1.29828851075696        0.82696328999983
C            1.34461373757838       -0.91210041463352        0.07288471730609
H           -1.20547144211136       -1.16465638817580        1.29481526092652
H           -1.41092894799614       -1.66297108475567       -0.40589332535803
H           -2.30319006580493       -0.27080926385823        0.23620865274892
H            2.28640306068417       -0.41197180405657       -0.11728860719210
H            1.22297007569951       -1.74498955642788       -0.60616924045201
H            1.31126233321906       -1.23990222710140        1.10276057387805
10
 energy: -14.621166258350 gnorm: 0.001758842549 xtb: 6.7.1 (edcfbbe)
C           -1.36772622050854       -0.83099137433988        0.28067750799160
S           -0.01122636027290        0.31247877315233       -0.23836021235439
O            0.10097509957267        1.30637532387420        0.82689721582944
C            1.33631048340584       -0.91385891605178        0.07352569971617
H           -1.19483330044446       -1.16738125178851        1.29591590715839
H           -1.40226200440373       -1.66612176692595       -0.40836327153506
H           -2.29684037335594       -0.27345149356806        0.23570053083198
H            2.27994828875013       -0.41428553645969       -0.11666254649131
H            1.21375549415940       -1.74734456144313       -0.60746393849676
H            1.30080891194578       -1.24227824783196        1.10537274324602
10
 energy: -14.621174492037 gnorm: 0.001549029030 xtb: 6.7.1 (edcfbbe)
C           -1.37314873700252       -0.83044134936351        0.28035477171969
S           -0.01088706704182        0.31141742345525       -0.23421377064506
O            0.10113030209906        1.30793846366453        0.82919788432253
C            1.34168883300594       -0.91367659783877        0.07237416106329
H           -1.19989190777877       -1.16549752275008        1.29745518972446
H           -1.40434975501788       -1.66752976388284       -0.40806374809674
H           -2.30425738803817       -0.27408356427308        0.23255771506092
H            2.28673212418156       -0.41533966813456       -0.12073891364875
H            1.21579287851224       -1.74869578157629       -0.60767367745957
H            1.30610073592862       -1.24095069068308        1.10599002385532
10
 energy: -14.621178626694 gnorm: 0.000241915060 xtb: 6.7.1 (edcfbbe)
C           -1.37171257688092       -0.83063368499479        0.28041771796681
S           -0.01095041455811        0.31261597067325       -0.23531931917384
O            0.10115741054164        1.30712640655080        0.82972939869427
C            1.34026178589162       -0.91377402528448        0.07264583633290
H           -1.19930144732109       -1.16534720777424        1.29717373689490
H           -1.40247663505477       -1.66731905606433       -0.40769401568272
H           -2.30230924903578       -0.27462209478419        0.23226628883661
H            2.28475246780309       -0.41574509043365       -0.12069688721929
H            1.21403454596936       -1.74835418087427       -0.60707508623040
H            1.30545413149323       -1.24080608839654        1.10579196547684
10
 energy: -14.621179056790 gnorm: 0.000066925937 xtb: 6.7.1 (edcfbbe)
C           -1.37162629574992       -0.83072205566953        0.28030656119071
S           -0.01089720961842        0.31314341835061       -0.23476641806592
O            0.10125357318256        1.30676985461228        0.83113622879682
C            1.34014976562534       -0.91386267452871        0.07252591614077
H           -1.19987822538755       -1.16445374387706        1.29740022117205
H           -1.40110377274460       -1.66776859010728       -0.40732944553451
H           -2.30227338304434       -0.27507165958194        0.23078586305767
H            2.28446636294501       -0.41616398476455       -0.12206801565724
H            1.21276560957142       -1.74866455303828       -0.60661400366987
H            1.30605359406876       -1.24006506277797        1.10586272846559
10
 energy: -14.621179457732 gnorm: 0.000154415814 xtb: 6.7.1 (edcfbbe)
C           -1.37179388975689       -0.83066443021812        0.28008505169067
S           -0.01081757865904        0.31368352780484       -0.23388633709234
O            0.10140912011930        1.30591104261860        0.83331087894882
C            1.34027865260779       -0.91382691826901        0.07223868862289
H           -1.20128776909915       -1.16298940761927        1.29780149411798
H           -1.39963053708469       -1.66844982419044       -0.40661025159929
H           -2.30269916581832       -0.27571098297386        0.22849631631368
H            2.28449691445792       -0.41675961512747       -0.12422256056338
H            1.21148266251071       -1.74913928632716       -0.60589842633237
H            1.30747160957062       -1.23891315708055        1.10592478178942
10
 energy: -14.621179648339 gnorm: 0.000096913643 xtb: 6.7.1 (edcfbbe)
C           -1.37179539633865       -0.83060415014275        0.27990527375785
S           -0.01075646385261        0.31402857890936       -0.23318520905141
O            0.10152468255499        1.30538600452928        0.83483802268335
C            1.34024807695607       -0.91377968722557        0.07201750912112
H           -1.20219737744762       -1.16195971758995        1.29813152310490
H           -1.39851442487616       -1.66901290068856       -0.40612419915112
H           -2.30294023486890       -0.27611904964733        0.22684322390701
H            2.28445326744378       -0.41711965201654       -0.12572925614783
H            1.21052472723320       -1.74952921358335       -0.60545455203687
H            1.30836316204415       -1.23814926392702        1.10599729970907
10
 energy: -14.621179726067 gnorm: 0.000032473875 xtb: 6.7.1 (edcfbbe)
C           -1.37177231043597       -0.83051789528636        0.27980489231044
S           -0.01071631359326        0.31422199537753       -0.23270863409561
O            0.10160284395661        1.30505625471256        0.83576819008641
C            1.34020810086233       -0.91370190228792        0.07188692933214
H           -1.20286295930059       -1.16130205331496        1.29834324336490
H           -1.39772846196623       -1.66932542492653       -0.40576805071558
H           -2.30312723571892       -0.27646042969453        0.22575647412096
H            2.28444909720584       -0.41741588292704       -0.12668888954799
H            1.20986857823799       -1.74969854718809       -0.60516566266690
H            1.30898867960046       -1.23771516584709        1.10601114370730
