24
 energy: -463.637131167427 gnorm: 0.003167444498 xtb: 6.7.1 (edcfbbe)
C           -3.40389671007521       -0.81402716841831        0.01930480873679
O           -1.98493894000864       -0.83065333307182       -0.22486241009634
C           -1.36175750580211        0.35670169476983       -0.02942833815828
O           -1.94030803352710        1.35224285326266        0.34286639364553
C            0.12272820023419        0.29796457829823       -0.33618632822644
C            0.68809712851555       -1.10570969606279       -0.57381272458430
C            2.18416079924858       -1.03967150823978       -0.89557193341293
C            2.96369620927181       -0.31308875357005        0.20200290922638
C            2.39560606721412        1.08795502300699        0.43535706521472
C            0.90397666448382        1.03305190267867        0.76603559596509
H           -3.74379418479379       -1.83497193034753       -0.15938959237928
H           -3.90037712064675       -0.11763887863996       -0.66339503406499
H           -3.61388838436110       -0.51325432287085        1.04956535730150
H            0.23695580226236        0.87960272619803       -1.26526495558739
H            0.53208623811972       -1.71243746380852        0.32750243986593
H            0.14637019303994       -1.60175261859323       -1.38454926502078
H            2.57731872944526       -2.05265278807587       -1.03685573135129
H            2.32593888126186       -0.51041866922419       -1.84843132184154
H            2.89484782819379       -0.88882027050425        1.13508891566749
H            4.02632421763322       -0.25605382993866       -0.05925281388572
H            2.93670257168674        1.59178219484727        1.24392913604576
H            2.54192945596302        1.69390655858772       -0.46960323085749
H            0.75771538537622        0.49650383922980        1.71390500544186
H            0.48980804927923        2.03614243556477        0.89808823003579
24
 energy: -463.637139733307 gnorm: 0.002026849578 xtb: 6.7.1 (edcfbbe)
C           -3.40486423401899       -0.81462304924475        0.01930887536646
O           -1.98486508384864       -0.83009567525350       -0.22688789897696
C           -1.36164345424294        0.35624088263525       -0.02807733129309
O           -1.94228499266545        1.35226850245829        0.33957522757942
C            0.12262881904499        0.29802970840459       -0.33624531334098
C            0.68826354270098       -1.10577130118709       -0.57373309738602
C            2.18420717977307       -1.03997715272471       -0.89554480807903
C            2.96360125904896       -0.31334135034891        0.20189986785654
C            2.39567176524072        1.08780883490687        0.43569313929414
C            0.90399620052976        1.03373205968104        0.76592884285309
H           -3.74408360712033       -1.83496755124820       -0.16121533859297
H           -3.90173828349165       -0.11656639716457       -0.66009801235205
H           -3.61152678027735       -0.51453406876636        1.04997555221557
H            0.23649281662103        0.87972687322662       -1.26555006213084
H            0.53243090718163       -1.71214909427930        0.32799334969237
H            0.14621388001930       -1.60228578894310       -1.38387233979091
H            2.57747914771043       -2.05300626943443       -1.03721004826229
H            2.32577646206280       -0.51080522880175       -1.84861125945429
H            2.89549571315720       -0.88944699466250        1.13521936284863
H            4.02639876241355       -0.25623607079472       -0.05952275503610
H            2.93667403656424        1.59132574015832        1.24476592570570
H            2.54298191513731        1.69463269571566       -0.46880296848298
H            0.75785799240661        0.49764429985014        1.71425461540505
H            0.49013767534893        2.03709894386014        0.89779842356796
24
 energy: -463.637143337373 gnorm: 0.001407123181 xtb: 6.7.1 (edcfbbe)
C           -3.40579038513299       -0.81550939543981        0.02042514828788
O           -1.98484087586552       -0.82911104591334       -0.23164283159555
C           -1.36239409990357        0.35631476621497       -0.03188810414502
O           -1.94535785805773        1.35278833459449        0.33230384766910
C            0.12253400128634        0.29822582560070       -0.33635819965202
C            0.68819590232439       -1.10589181076937       -0.57319654793466
C            2.18393008199100       -1.04006250318737       -0.89534600122297
C            2.96354390940852       -0.31375730960369        0.20186412194120
C            2.39596186518818        1.08742163746919        0.43682645594109
C            0.90406363838600        1.03434228536765        0.76597775018894
H           -3.74405749277595       -1.83505670150040       -0.16277850935385
H           -3.90484683043938       -0.11478149084837       -0.65345042691198
H           -3.60639839925610       -0.51783870911103        1.05255496179643
H            0.23675865517616        0.88017482389720       -1.26559219427286
H            0.53252965043892       -1.71174311118269        0.32899902502983
H            0.14590703679075       -1.60284683835539       -1.38268604766655
H            2.57732167225596       -2.05307664719007       -1.03772340730569
H            2.32530075597487       -0.51087110258461       -1.84857628439602
H            2.89658512540839       -0.89057222178196        1.13522256606322
H            4.02644073934263       -0.25635057666345       -0.05996675119582
H            2.93687167837147        1.58987669534643        1.24689020502836
H            2.54496760623448        1.69563014721766       -0.46676704133418
H            0.75729567420790        0.49914929349756        1.71489112653574
H            0.49078010232769        2.03824839881483        0.89705830170857
24
 energy: -463.637146292765 gnorm: 0.000657049380 xtb: 6.7.1 (edcfbbe)
C           -3.40559799666742       -0.81513131727376        0.02124655915563
O           -1.98482128687643       -0.82897009570576       -0.23129892194637
C           -1.36256861934090        0.35735874228257       -0.03433702413716
O           -1.94374080498970        1.35281003867314        0.33457411706674
C            0.12264564267725        0.29830395550514       -0.33772287335978
C            0.68833800958057       -1.10584535041933       -0.57383247252692
C            2.18416309666624       -1.04008876464489       -0.89531045821390
C            2.96340875968891       -0.31378514419109        0.20217529482517
C            2.39536128027635        1.08720497852084        0.43697918492147
C            0.90323154176268        1.03396765871953        0.76550017782906
H           -3.74341646268786       -1.83509899814045       -0.16189292210520
H           -3.90477548039189       -0.11441946790645       -0.65305428360015
H           -3.60574209428897       -0.51833668182344        1.05382997236728
H            0.23820878650174        0.88028956576945       -1.26670616371954
H            0.53228958444488       -1.71124176142883        0.32862933831424
H            0.14623371602863       -1.60308816779169       -1.38337502008010
H            2.57754211604753       -2.05311366909979       -1.03730352207945
H            2.32578278993751       -0.51089058326601       -1.84845927054867
H            2.89615163049742       -0.89055145218254        1.13537384883381
H            4.02626820921122       -0.25612136964841       -0.05940929189683
H            2.93581429993535        1.58935747887839        1.24743137544107
H            2.54473873332669        1.69543177522556       -0.46641737265708
H            0.75572672146576        0.49878018491709        1.71420835099608
H            0.49006023189142        2.03788143911242        0.89621222441189
24
 energy: -463.637146292765 gnorm: 0.000657049380 xtb: 6.7.1 (edcfbbe)
C           -3.40559799666742       -0.81513131727376        0.02124655915563
O           -1.98482128687643       -0.82897009570576       -0.23129892194637
C           -1.36256861934090        0.35735874228257       -0.03433702413716
O           -1.94374080498970        1.35281003867314        0.33457411706674
C            0.12264564267725        0.29830395550514       -0.33772287335978
C            0.68833800958057       -1.10584535041933       -0.57383247252692
C            2.18416309666624       -1.04008876464489       -0.89531045821390
C            2.96340875968891       -0.31378514419109        0.20217529482517
C            2.39536128027635        1.08720497852084        0.43697918492147
C            0.90323154176268        1.03396765871953        0.76550017782906
H           -3.74341646268786       -1.83509899814045       -0.16189292210520
H           -3.90477548039189       -0.11441946790645       -0.65305428360015
H           -3.60574209428897       -0.51833668182344        1.05382997236728
H            0.23820878650174        0.88028956576945       -1.26670616371954
H            0.53228958444488       -1.71124176142883        0.32862933831424
H            0.14623371602863       -1.60308816779169       -1.38337502008010
H            2.57754211604753       -2.05311366909979       -1.03730352207945
H            2.32578278993751       -0.51089058326601       -1.84845927054867
H            2.89615163049742       -0.89055145218254        1.13537384883381
H            4.02626820921122       -0.25612136964841       -0.05940929189683
H            2.93581429993535        1.58935747887839        1.24743137544107
H            2.54473873332669        1.69543177522556       -0.46641737265708
H            0.75572672146576        0.49878018491709        1.71420835099608
H            0.49006023189142        2.03788143911242        0.89621222441189
