
                                 *****************
                                 * O   R   C   A *
                                 *****************

                                            #,                                       
                                            ###                                      
                                            ####                                     
                                            #####                                    
                                            ######                                   
                                           ########,                                 
                                     ,,################,,,,,                         
                               ,,#################################,,                 
                          ,,##########################################,,             
                       ,#########################################, ''#####,          
                    ,#############################################,,   '####,        
                  ,##################################################,,,,####,       
                ,###########''''           ''''###############################       
              ,#####''   ,,,,##########,,,,          '''####'''          '####       
            ,##' ,,,,###########################,,,                        '##       
           ' ,,###''''                  '''############,,,                           
         ,,##''                                '''############,,,,        ,,,,,,###''
      ,#''                                            '''#######################'''  
     '                                                          ''''####''''         
             ,#######,   #######,   ,#######,      ##                                
            ,#'     '#,  ##    ##  ,#'     '#,    #''#        ,####,   ,####,        
            ##       ##  ##   ,#'  ##            #'  '#       #'       #'  '#        
            ##       ##  #######   ##           ,######,      #####,   #    #        
            '#,     ,#'  ##    ##  '#,     ,#' ,#      #,     #,   #   #,  ,#        
             '#######'   ##     ##  '#######'  #'      '#     '####' # '####'        



                #########################################################
                #                        -***-                          #
                #          Department of theory and spectroscopy        #
                #                                                       #
                #                      Frank Neese                      #
                #                                                       #
                #     Directorship, Architecture, Infrastructure        #
                #                    SHARK, DRIVERS                     #
                #        Core code/Algorithms in most modules           #
                #                                                       #
                #        Max Planck Institute fuer Kohlenforschung      #
                #                Kaiser Wilhelm Platz 1                 #
                #                 D-45470 Muelheim/Ruhr                 #
                #                      Germany                          #
                #                                                       #
                #                  All rights reserved                  #
                #                        -***-                          #
                #########################################################


                         Program Version 6.0.1  -  RELEASE   -


 With contributions from (in alphabetic order):
[Max-Planck-Institut fuer Kohlenforschung]                               
  Daniel Aravena         : Magnetic Suceptibility                        
  Michael Atanasov       : Ab Initio Ligand Field Theory (pilot matlab implementation)
  Alexander A. Auer      : GIAO ZORA, VPT2 properties, NMR spectrum      
  Ute Becker             : All parallelization in ORCA, NUMFREQ, NUMCALC 
  Giovanni Bistoni       : ED, misc. LED, open-shell LED, HFLD           
  Martin Brehm           : Molecular dynamics                            
  Dmytro Bykov           : pre 5.0 version of the SCF Hessian            
  Marcos Casanova-Páez   : Triplet and SCS-CIS(D). UHF-(DLPNO)-IP/EA/STEOM-CCSD. UHF-CVS-IP/STEOM-CCSD   
  Vijay G. Chilkuri      : MRCI spin determinant printing, contributions to CSF-ICE 
  Pauline Colinet        : FMM embedding                                 
  Dipayan Datta          : RHF DLPNO-CCSD density                        
  Achintya Kumar Dutta   : EOM-CC, STEOM-CC                              
  Nicolas Foglia         : Exact transition moments, OPA infrastructure, MCD improvements    
  Dmitry Ganyushin       : Spin-Orbit,Spin-Spin,Magnetic field MRCI      
  Miquel Garcia-Rates    : C-PCM and meta-GGA Hessian, CCSD/C-PCM, Gaussian charge scheme 
  Tiago L. C. Gouveia    : GS-ROHF, GS-ROCIS                             
  Yang Guo               : DLPNO-NEVPT2, F12-NEVPT2, CIM, IAO-localization        
  Andreas Hansen         : Spin unrestricted coupled pair/coupled cluster methods 
  Ingolf Harden          : AUTO-CI MPn and infrastructure                
  Benjamin Helmich-Paris : MC-RPA, TRAH-(SCF,CASSCF), AVAS, COSX integrals, SCF dyn. polar. 
  Lee Huntington         : MR-EOM, pCC                                   
  Robert Izsak           : Overlap fitted RIJCOSX, COSX-SCS-MP3, EOM     
  Riya Kayal             : Wick's Theorem for AUTO-CI, AUTO-CI UHF-CCSDT 
  Emily Kempfer          : AUTO-CI, RHF CISDT and CCSDT                  
  Christian Kollmar      : KDIIS, OOCD, Brueckner-CCSD(T), CCSD density, CASPT2, CASPT2-K, improved NEVPT2 
  Axel Koslowski         : Symmetry handling                             
  Simone Kossmann        : meta-GGA functionals, TD-DFT gradient, OOMP2, (MP2 Hessian; deprecated post 5.0) 
  Lucas Lang             : DCDCAS                                        
  Marvin Lechner         : AUTO-CI (C++ implementation), FIC-MRCC        
  Spencer Leger          : CASSCF response                               
  Dagmar Lenk            : GEPOL surface, SMD, ORCA-2-JSON               
  Dimitrios Liakos       : Extrapolation schemes; Compound Job, initial MDCI parallelization 
  Dimitrios Manganas     : Further ROCIS development; embedding schemes. LFT, Crystal Embedding 
  Dimitrios Pantazis     : SARC Basis sets                               
  Anastasios Papadopoulos: AUTO-CI, single reference methods and gradients 
  Taras Petrenko         : pre 6.0 DFT Hessian and TD-DFT gradient, (ASA, deprecated), ECA, 1-Electron XAS/XES, NRVS 
  Peter Pinski           : DLPNO-MP2, DLPNO-MP2 Gradient                 
  Christoph Reimann      : Effective Core Potentials                     
  Marius Retegan         : Local ZFS, SOC                                
  Christoph Riplinger    : Optimizer, TS searches, QM/MM, DLPNO-CCSD(T), (RO)-DLPNO pert. Triples 
  Michael Roemelt        : Original ROCIS implementation                 
  Masaaki Saitow         : Open-shell DLPNO-CCSD energy and density      
  Barbara Sandhoefer     : DKH picture change effects                    
  Kantharuban Sivalingam : CASSCF convergence/infrastructure, NEVPT2 and variants, FIC-MRCI 
  Bernardo de Souza      : ESD, SOC TD-DFT                               
  Georgi L. Stoychev     : AutoAux, RI-MP2 NMR, DLPNO-MP2 response, X2C  
  Van Anh Tran           : RI-MP2 g-tensors                              
  Willem Van den Heuvel  : Paramagnetic NMR                              
  Zikuan Wang            : NOTCH, Electric field optimization            
  Frank Wennmohs         : Technical directorship and infrastructure     
  Hang Xu                : AUTO-CI-Response properties                   
                                                                         
[FACCTs GmbH]                                                            
  Markus Bursch, Miquel Garcia-Rates, Christoph Riplinger, Bernardo de Souza, Georgi L. Stoychev 
                                                                 
  APM, Basis sets (HGBS, AHGBS, def-TZVP (Ac-Lr), def2-XVPD (La-Lu)), CI-OPT, improved COSX, DLPNO-Multilevel,           
  DOCKER, DRACO, updates on ESD, GOAT, IRC, LR-CPCM, MBIS, meta-GGA TD-DFT gradient, ML-optimized integration grids, 
  MM, NACMEs, nearIR, NEB, NEB-TS, NL-DFT gradient (VV10), 2- and 3-layer-ONIOM, interface openCOSMO-RS, QMMM,   
  Crystal-QMMM, SF, symmetry and pop. for TD-DFT, r2SCAN hybrids, SOLVATOR                                   
                                                                         
[Other institutions]                                                     
  V. Asgeirsson          : NEB                                           
  Christoph Bannwarth    : sTDA-DFT, sTD-DFT, PBEh-3c, B97-3c, D3        
  Sebastian Ehlert       : rSCAN, r2SCAN, r2SCAN-3c, D4, dhf basis sets  
  Marvin Friede          : D4 for Fr, Ra, Ac-Lr                          
  Lars Goerigk           : TD-DFT with DH, B97 family of functionals     
  Stefan Grimme          : VdW corrections, initial TS optimization, DFT functionals, gCP, sTDA/sTD-DF 
  Waldemar Hujo          : DFT-NL                                        
  H. Jonsson             : NEB                                           
  Holger Kruse           : gCP                                           
  Marcel Mueller         : wB97X-3c, vDZP basis set                      
  Hagen Neugebauer       : wr2SCAN                                       
  Tobias Risthaus        : range-separated hybrid DFT                    
  Lukas Wittmann         : regularized MP2, r2SCAN double-hybrids, wr2SCAN        
                                                                         
We gratefully acknowledge several colleagues who have allowed us to      
interface, adapt or use parts of their codes:                            
  Ed Valeev, F. Pavosevic, A. Kumar             : LibInt (2-el integral package), F12 methods 
  Garnet Chan, S. Sharma, J. Yang, R. Olivares  : DMRG                   
  Ulf Ekstrom                                   : XCFun DFT Library      
  Mihaly Kallay                                 : mrcc  (arbitrary order and MRCC methods)
  Frank Weinhold                                : gennbo (NPA and NBO analysis)           
  Simon Mueller                                 : openCOSMO-RS                            
  Christopher J. Cramer and Donald G. Truhlar   : smd solvation model                     
  S Lehtola, MJT Oliveira, MAL Marques          : LibXC Library                           
  Liviu Ungur et al                             : ANISO software                          


 Your calculation uses the libint2 library for the computation of 2-el integrals
 For citations please refer to: http://libint.valeyev.net

 Your ORCA version has been built with support for libXC version: 6.2.2
 For citations please refer to: https://libxc.gitlab.io

 This ORCA versions uses:
   CBLAS   interface :  Fast vector & matrix operations
   LAPACKE interface :  Fast linear algebra routines
   SCALAPACK package :  Parallel linear algebra routines
   Shared memory     :  Shared parallel matrices
   BLAS/LAPACK       :  OpenBLAS 0.3.27  USE64BITINT DYNAMIC_ARCH NO_AFFINITY Zen SINGLE_THREADED
        Core in use  :  Zen
   Copyright (c) 2011-2014, The OpenBLAS Project


Your calculation utilizes the geometrical counterpoise correction gCP
Please cite in your paper:
H.Kruse, S. Grimme J.Chem.Phys., 136, (2012), 154101 
   

Your calculation utilizes the atom-pairwise dispersion correction
based on EEQ partial charges (D4)


================================================================================

----- Orbital basis set information -----
Your calculation utilizes the basis: def2-mTZVPP
   Stefan Grimme, Andreas Hansen, Sebastian Ehlert, and Jan-Michael Mewes 
   J. Chem. Phys. 154, 064103 (2021). DOI: 10.1063/5.0040021

----- AuxJ basis set information -----
Your calculation utilizes the auxiliary basis: def2/J
   F. Weigend, Phys. Chem. Chem. Phys. 8, 1057 (2006).

================================================================================
                                        WARNINGS
                       Please study these warnings very carefully!
================================================================================



WARNING: SCAN, rSCAN, or r2SCAN functional requested.
  ===> : libXC variant has now been activated.



================================================================================
                                       INPUT FILE
================================================================================
NAME = sp.inp
|  1> ! r2scan-3c def2/J RI DEFGRID2 scfconv6 printgap
|  2> %output
|  3>     printlevel normal
|  4> end
|  5> * xyz 0 1
|  6> C 2.7580835027 0.3561655074 0.644665241
|  7> C 1.9333812853 -0.2693569992 -0.4953308515
|  8> C 0.4570756851 -0.120446201 -0.2643726547
|  9> C -0.1495742433 1.134622335 -0.2580139849
| 10> C -1.5093250662 1.218911381 -0.0218832616
| 11> C -2.223016282 0.0503003236 0.2005242102
| 12> C -1.5300394949 -1.1484560208 0.1704506742
| 13> N -0.2305272102 -1.2341370007 -0.0551293576
| 14> H 2.1056148818 0.790719756 1.3987691128
| 15> H 3.412839015 1.1407420206 0.2743825978
| 16> H 3.3735745965 -0.3944428486 1.1319792224
| 17> H 2.149815053 -1.3332951212 -0.5832146668
| 18> H 2.1890830961 0.2083554718 -1.4433055016
| 19> H 0.4394310409 2.0217204156 -0.4373386163
| 20> H -2.0072485742 2.1784444795 -0.0125886393
| 21> H -3.285166546 0.0712367488 0.3890522127
| 22> H -2.0352514286 -2.0920892451 0.3339276064
| 23> *
| 24> 
| 25>                          ****END OF INPUT****
================================================================================

                       ****************************
                       * Single Point Calculation *
                       ****************************

---------------------------------
CARTESIAN COORDINATES (ANGSTROEM)
---------------------------------
  C      2.758084    0.356166    0.644665
  C      1.933381   -0.269357   -0.495331
  C      0.457076   -0.120446   -0.264373
  C     -0.149574    1.134622   -0.258014
  C     -1.509325    1.218911   -0.021883
  C     -2.223016    0.050300    0.200524
  C     -1.530039   -1.148456    0.170451
  N     -0.230527   -1.234137   -0.055129
  H      2.105615    0.790720    1.398769
  H      3.412839    1.140742    0.274383
  H      3.373575   -0.394443    1.131979
  H      2.149815   -1.333295   -0.583215
  H      2.189083    0.208355   -1.443306
  H      0.439431    2.021720   -0.437339
  H     -2.007249    2.178444   -0.012589
  H     -3.285167    0.071237    0.389052
  H     -2.035251   -2.092089    0.333928

----------------------------
CARTESIAN COORDINATES (A.U.)
----------------------------
  NO LB      ZA    FRAG     MASS         X           Y           Z
   0 C     6.0000    0    12.011    5.212022    0.673055    1.218241
   1 C     6.0000    0    12.011    3.653561   -0.509011   -0.936040
   2 C     6.0000    0    12.011    0.863748   -0.227610   -0.499592
   3 C     6.0000    0    12.011   -0.282654    2.144125   -0.487576
   4 C     6.0000    0    12.011   -2.852211    2.303409   -0.041353
   5 C     6.0000    0    12.011   -4.200892    0.095054    0.378936
   6 C     6.0000    0    12.011   -2.891356   -2.170267    0.322105
   7 N     7.0000    0    14.007   -0.435633   -2.332181   -0.104179
   8 H     1.0000    0     1.008    3.979035    1.494244    2.643291
   9 H     1.0000    0     1.008    6.449331    2.155690    0.518508
  10 H     1.0000    0     1.008    6.375132   -0.745389    2.139131
  11 H     1.0000    0     1.008    4.062562   -2.519563   -1.102116
  12 H     1.0000    0     1.008    4.136768    0.393735   -2.727452
  13 H     1.0000    0     1.008    0.830404    3.820498   -0.826450
  14 H     1.0000    0     1.008   -3.793150    4.116663   -0.023789
  15 H     1.0000    0     1.008   -6.208065    0.134618    0.735202
  16 H     1.0000    0     1.008   -3.846068   -3.953476    0.631032

--------------------------------
INTERNAL COORDINATES (ANGSTROEM)
--------------------------------
 C      0   0   0     0.000000000000     0.00000000     0.00000000
 C      1   0   0     1.539806236045     0.00000000     0.00000000
 C      2   1   0     1.501663857084   111.86328454     0.00000000
 C      3   2   1     1.394009181593   121.18590213    65.52979127
 C      4   3   2     1.382673013456   118.92294999   180.90798709
 C      5   4   3     1.387253415386   118.81356818     0.00000000
 C      6   5   4     1.384968598296   117.91974884   359.83594775
 N      7   6   5     1.321726052989   123.48794146     0.15607129
 H      1   2   3     1.087761621726   110.74962053   359.77369250
 H      1   2   3     1.086910447925   111.32495622   239.58941824
 H      1   2   3     1.086147829309   110.78934668   119.28799747
 H      2   1   3     1.089280252386   110.49325397   239.97654384
 H      2   1   3     1.091901350044   109.85303325   120.78982005
 H      4   3   2     1.079827556995   120.09954897     1.02485199
 H      5   4   3     1.081072604842   120.56549274   180.10053683
 H      6   5   4     1.078955200619   121.20609200   179.97367799
 H      7   6   5     1.082777662919   121.17006731   180.19617257

---------------------------
INTERNAL COORDINATES (A.U.)
---------------------------
 C      0   0   0     0.000000000000     0.00000000     0.00000000
 C      1   0   0     2.909812085429     0.00000000     0.00000000
 C      2   1   0     2.837733435096   111.86328454     0.00000000
 C      3   2   1     2.634295581383   121.18590213    65.52979127
 C      4   3   2     2.612873328195   118.92294999   180.90798709
 C      5   4   3     2.621529033426   118.81356818     0.00000000
 C      6   5   4     2.617211354860   117.91974884   359.83594775
 N      7   6   5     2.497700264218   123.48794146     0.15607129
 H      1   2   3     2.055571564052   110.74962053   359.77369250
 H      1   2   3     2.053963078675   111.32495622   239.58941824
 H      1   2   3     2.052521938347   110.78934668   119.28799747
 H      2   1   3     2.058441360098   110.49325397   239.97654384
 H      2   1   3     2.063394516842   109.85303325   120.78982005
 H      4   3   2     2.040578354582   120.09954897     1.02485199
 H      5   4   3     2.042931154036   120.56549274   180.10053683
 H      6   5   4     2.038929839939   121.20609200   179.97367799
 H      7   6   5     2.046153246845   121.17006731   180.19617257

---------------------
BASIS SET INFORMATION
---------------------
There are 3 groups of distinct atoms

 Group   1 Type C   : 11s6p1d contracted to 5s3p1d pattern {62111/411/1}
 Group   2 Type N   : 11s6p2d contracted to 5s3p2d pattern {62111/411/11}
 Group   3 Type H   : 4s1p contracted to 2s1p pattern {31/1}

Atom   0C    basis set group =>   1
Atom   1C    basis set group =>   1
Atom   2C    basis set group =>   1
Atom   3C    basis set group =>   1
Atom   4C    basis set group =>   1
Atom   5C    basis set group =>   1
Atom   6C    basis set group =>   1
Atom   7N    basis set group =>   2
Atom   8H    basis set group =>   3
Atom   9H    basis set group =>   3
Atom  10H    basis set group =>   3
Atom  11H    basis set group =>   3
Atom  12H    basis set group =>   3
Atom  13H    basis set group =>   3
Atom  14H    basis set group =>   3
Atom  15H    basis set group =>   3
Atom  16H    basis set group =>   3
---------------------------------
AUXILIARY/J BASIS SET INFORMATION
---------------------------------
There are 3 groups of distinct atoms

 Group   1 Type C   : 12s5p4d2f1g contracted to 6s4p3d1f1g pattern {711111/2111/211/2/1}
 Group   2 Type N   : 12s5p4d2f1g contracted to 6s4p3d1f1g pattern {711111/2111/211/2/1}
 Group   3 Type H   : 5s2p1d contracted to 3s1p1d pattern {311/2/1}

Atom   0C    basis set group =>   1
Atom   1C    basis set group =>   1
Atom   2C    basis set group =>   1
Atom   3C    basis set group =>   1
Atom   4C    basis set group =>   1
Atom   5C    basis set group =>   1
Atom   6C    basis set group =>   1
Atom   7N    basis set group =>   2
Atom   8H    basis set group =>   3
Atom   9H    basis set group =>   3
Atom  10H    basis set group =>   3
Atom  11H    basis set group =>   3
Atom  12H    basis set group =>   3
Atom  13H    basis set group =>   3
Atom  14H    basis set group =>   3
Atom  15H    basis set group =>   3
Atom  16H    basis set group =>   3

Checking for AutoStart:
The File: sp.gbw exists
Trying to determine its content:
     ... Fine, the file contains calculation information
     ... Fine, the calculation information was read
     ... Fine, the file contains a basis set
     ... Fine, the basis set was read
     ... Fine, the file contains a geometry
     ... Fine, the geometry was read
     ... Fine, the file contains a set of orbitals
     ... Fine, the orbitals can be read
     => possible old guess file was deleted
     => GBW file was renamed to GES file
     => GES file is set as startup file
     => Guess is set to MORead
     ... now leaving AutoStart

------------------------------------------------------------------------------
                             ORCA STARTUP CALCULATIONS
                           -- RI-GTO INTEGRALS CHOSEN --
------------------------------------------------------------------------------
------------------------------------------------------------------------------
                   ___                                                        
                  /   \      - P O W E R E D   B Y -                         
                 /     \                                                     
                 |  |  |   _    _      __       _____    __    __             
                 |  |  |  | |  | |    /  \     |  _  \  |  |  /  |          
                  \  \/   | |  | |   /    \    | | | |  |  | /  /          
                 / \  \   | |__| |  /  /\  \   | |_| |  |  |/  /          
                |  |  |   |  __  | /  /__\  \  |    /   |      \           
                |  |  |   | |  | | |   __   |  |    \   |  |\   \          
                \     /   | |  | | |  |  |  |  | |\  \  |  | \   \       
                 \___/    |_|  |_| |__|  |__|  |_| \__\ |__|  \__/        
                                                                              
                      - O R C A' S   B I G   F R I E N D -                    
                                      &                                       
                       - I N T E G R A L  F E E D E R -                       
                                                                              
 v1 FN, 2020, v2 2021, v3 2022-2024                                           
------------------------------------------------------------------------------


----------------------
SHARK INTEGRAL PACKAGE
----------------------

Number of atoms                             ...     17
Number of basis functions                   ...    202
Number of shells                            ...    100
Maximum angular momentum                    ...      2
Integral batch strategy                     ... SHARK/LIBINT Hybrid
RI-J (if used) integral strategy            ... SPLIT-RIJ (Revised 2003 algorithm where possible)
Printlevel                                  ...      1
Contraction scheme used                     ... SEGMENTED contraction
Prescreening option                         ... SCHWARTZ
   Thresh                                   ... 1.000e-10
   Tcut                                     ... 1.000e-11
   Tpresel                                  ... 1.000e-11 
Coulomb Range Separation                    ... NOT USED
Exchange Range Separation                   ... NOT USED
Multipole approximations                    ... NOT USED
Finite Nucleus Model                        ... NOT USED
CABS basis                                  ... NOT available
Auxiliary Coulomb fitting basis             ... AVAILABLE
   # of basis functions in Aux-J            ...    491
   # of shells in Aux-J                     ...    165
   Maximum angular momentum in Aux-J        ...      4
Auxiliary J/K fitting basis                 ... NOT available
Auxiliary Correlation fitting basis         ... NOT available
Auxiliary 'external' fitting basis          ... NOT available

Checking pre-screening integrals            ... done (  0.0 sec) Dimension = 100
Check shell pair data                       ... done (  0.0 sec)
Shell pair information
Shell pair cut-off parameter TPreSel        ...   1.0e-11
Total number of shell pairs                 ...      5050
Shell pairs after pre-screening             ...      4569
Total number of primitive shell pairs       ...     18348
Primitive shell pairs kept                  ...     11890
          la=0 lb=0:   1510 shell pairs
          la=1 lb=0:   1736 shell pairs
          la=1 lb=1:    519 shell pairs
          la=2 lb=0:    482 shell pairs
          la=2 lb=1:    278 shell pairs
          la=2 lb=2:     44 shell pairs

Calculating one electron integrals          ... done (  0.0 sec)
Calculating RI/J V-Matrix + Cholesky decomp.... done (  0.0 sec)
Calculating Nuclear repulsion               ... done (  0.0 sec) ENN=    346.208235089722 Eh

Diagonalization of the overlap matrix:
Smallest eigenvalue                        ... 7.700e-05
Time for diagonalization                   ...    0.005 sec
Threshold for overlap eigenvalues          ... 1.000e-07
Number of eigenvalues below threshold      ... 0
Time for construction of square roots      ...    0.004 sec
Total time needed                          ...    0.010 sec

-------------------
DFT GRID GENERATION
-------------------

General Integration Accuracy     IntAcc      ... 4.388
Radial Grid Type                 RadialGrid  ... OptM3 with GC (2021)
Angular Grid (max. ang.)         AngularGrid ... 4 (Lebedev-302)
Angular grid pruning method      GridPruning ... 4 (adaptive)
Weight generation scheme         WeightScheme... mBecke (2022)
Basis function cutoff            BFCut       ... 1.0000e-10
Integration weight cutoff        WCut        ... 1.0000e-14
Partially contracted basis set               ... off
Rotationally invariant grid construction     ... off
Angular grids for H and He will be reduced by one unit

Total number of grid points                  ...    77088
Total number of batches                      ...     1215
Average number of points per batch           ...       63
Average number of grid points per atom       ...     4535
Initializing property integral containers    ... done (  0.0 sec)

SHARK setup successfully completed in   1.0 seconds

Maximum memory used throughout the entire STARTUP-calculation: 35.3 MB
-------------------------------------------------------------------------------
                                 ORCA GUESS
                   Start orbitals & Density for SCF / CASSCF
-------------------------------------------------------------------------------

------------
SCF SETTINGS
------------
Hamiltonian:
 Density Functional     Method          .... DFT(GTOs)
  Functional kind                       .... Exchange
  Functional name                       .... Re-regularized SCAN exchange by Furness et al
  Functional family                     .... MGGA
  Functional refs                              
    [ 0] J. W. Furness, A. D. Kaplan, J. Ning, J. P. Perdew, and J. Sun.,  J. Phys. Chem. Lett. 11, 8208-8215 (2020), doi: 10.1021/acs.jpclett.0c02405
    [ 1] J. W. Furness, A. D. Kaplan, J. Ning, J. P. Perdew, and J. Sun.,  J. Phys. Chem. Lett. 11, 9248-9248 (2020), doi: 10.1021/acs.jpclett.0c03077
  Functional external parameters        .... 6
    Parameter  0 _c1        =  6.670000e-01 : c1 parameter        
    Parameter  1 _c2        =  8.000000e-01 : c2 parameter        
    Parameter  2 _d         =  1.240000e+00 : d parameter         
    Parameter  3 _k1        =  6.500000e-02 : k1 parameter        
    Parameter  4 _eta       =  1.000000e-03 : eta parameter       
    Parameter  5 _dp2       =  3.610000e-01 : dp2 parameter       
  Functional kind                       .... Correlation
  Functional name                       .... Re-regularized SCAN correlation by Furness et al
  Functional family                     .... MGGA
  Functional refs                              
    [ 0] J. W. Furness, A. D. Kaplan, J. Ning, J. P. Perdew, and J. Sun.,  J. Phys. Chem. Lett. 11, 8208-8215 (2020), doi: 10.1021/acs.jpclett.0c02405
    [ 1] J. W. Furness, A. D. Kaplan, J. Ning, J. P. Perdew, and J. Sun.,  J. Phys. Chem. Lett. 11, 9248-9248 (2020), doi: 10.1021/acs.jpclett.0c03077
  Functional external parameters        .... 1
    Parameter  0 _eta       =  1.000000e-03 : Regularization parameter
 Gradients option       PostSCFGGA      .... off
 RI-approximation to the Coulomb term is turned on
   Number of AuxJ basis functions       .... 491


General Settings:
 Integral files         IntName         .... sp
 Hartree-Fock type      HFTyp           .... RHF
 Total Charge           Charge          ....    0
 Multiplicity           Mult            ....    1
 Number of Electrons    NEL             ....   58
 Basis Dimension        Dim             ....  202
 Nuclear Repulsion      ENuc            ....    346.2082350897 Eh

Convergence Acceleration:
 AO-DIIS                CNVDIIS         .... on
   Start iteration      DIISMaxIt       ....    12
   Startup error        DIISStart       ....  0.200000
   # of expansion vecs  DIISMaxEq       ....     5
   Bias factor          DIISBfac        ....   1.050
   Max. coefficient     DIISMaxC        ....  10.000
 MO-DIIS                CNVKDIIS        .... off
 Trust-Rad. Augm. Hess. CNVTRAH         .... auto
   Auto Start mean grad. ratio tolernc. ....  1.125000
   Auto Start start iteration           ....     1
   Auto Start num. interpolation iter.  ....    10
   Max. Number of Micro iterations      ....    24
   Max. Number of Macro iterations      .... Maxiter - #DIIS iter
   Number of Davidson start vectors     ....     2
   Converg. threshold    (grad. norm)   ....   3.330e-04
   Grad. Scal. Fac. for Micro threshold ....   0.100
   Minimum threshold for Micro iter.    ....   1.000e-02
   NR start threshold (gradient norm)   ....   1.000e-04
   Initial trust radius                 ....   0.400
   Minimum AH scaling param. (alpha)    ....   1.000
   Maximum AH scaling param. (alpha)    .... 1000.000
   Quad. conv. algorithm                .... NR
   White noise on init. David. guess    .... on
   Maximum white noise                  ....   0.010
   Pseudo random numbers                .... off
   Inactive MOs                         .... canonical
   Orbital update algorithm             .... Taylor
   Preconditioner                       .... Diag
   Full preconditioner red. dimension   ....   250
   COSX micro iterations for RIJONX calc.... off
 SOSCF                  CNVSOSCF        .... on
   Start iteration      SOSCFMaxIt      ....   150
   Startup grad/error   SOSCFStart      ....  0.003300
   Hessian update       SOSCFHessUp     .... L-BFGS
 Level Shifting         CNVShift        .... on
   Level shift para.    LevelShift      ....    0.2500
   Turn off err/grad.   ShiftErr        ....    0.0010
 Zerner damping         CNVZerner       .... off
 Static damping         CNVDamp         .... on
   Fraction old density DampFac         ....    0.7000
   Max. Damping (<1)    DampMax         ....    0.9800
   Min. Damping (>=0)   DampMin         ....    0.0000
   Turn off err/grad.   DampErr         ....    0.1000

SCF Procedure:
 Maximum # iterations   MaxIter         ....   125
 SCF integral mode      SCFMode         .... Direct
   Integral package                     .... SHARK and LIBINT hybrid scheme
 Reset frequency        DirectResetFreq ....    20
 Integral Threshold     Thresh          ....  1.000e-10 Eh
 Primitive CutOff       TCut            ....  1.000e-11 Eh

Convergence Tolerance:
 Convergence Check Mode ConvCheckMode   .... Total+1el-Energy
 Convergence forced     ConvForced      .... 0
 Energy Change          TolE            ....  1.000e-06 Eh
 1-El. energy change                    ....  1.000e-03 Eh
 Orbital Gradient       TolG            ....  3.330e-04
 Orbital Rotation angle TolX            ....  3.330e-04
 DIIS Error             TolErr          ....  1.000e-06

---------------------
INITIAL GUESS: MOREAD
---------------------
Guess MOs are being read from file: sp.ges
Input Geometry matches current geometry (good)
Atom 0: N(Shells)= 9 and 6 - projection required
Input basis set needs projection
NBasis(read)= 130
NBasis(calc)= 202
Basis set overlap was calculated
Using GuessMode=FMatrix for the initial guess
C*T matrix was formed
Effective Fockian was calculated
Effective Fockian was diagonalized
Initial density was built
                      ------------------
                      INITIAL GUESS DONE (   0.0 sec)
                      ------------------
             **** ENERGY FILE WAS UPDATED (sp.en.tmp) ****
Finished Guess after   0.1 sec
Maximum memory used throughout the entire GUESS-calculation: 14.6 MB

-------------------------------------------------------------------------------------------
                                      ORCA LEAN-SCF
                              memory conserving SCF solver
-------------------------------------------------------------------------------------------

----------------------------------------D-I-I-S--------------------------------------------
Iteration    Energy (Eh)           Delta-E    RMSDP     MaxDP     DIISErr   Damp  Time(sec)
-------------------------------------------------------------------------------------------
               ***  Starting incremental Fock matrix formation  ***
    1    -326.6611867667843967     0.00e+00  5.28e-03  1.89e-01  4.38e-01  0.700   2.0
    2    -326.7071065941271968    -4.59e-02  4.14e-03  1.27e-01  3.07e-01  0.700   1.6
    3    -326.7395566558843143    -3.25e-02  3.02e-03  9.24e-02  2.15e-01  0.700   1.6
                               ***Turning on AO-DIIS***
    4    -326.7623328016534856    -2.28e-02  2.19e-03  6.80e-02  1.51e-01  0.700   1.6
    5    -326.7783047211733560    -1.60e-02  1.55e-03  4.87e-02  1.05e-01  0.700   1.6
    6    -326.7895018264750320    -1.12e-02  1.10e-03  3.46e-02  7.37e-02  0.700   1.6
    7    -326.7973485467129535    -7.85e-03  2.58e-03  8.15e-02  5.17e-02  0.000   1.5
                              *** Initializing SOSCF ***
---------------------------------------S-O-S-C-F--------------------------------------
Iteration    Energy (Eh)           Delta-E    RMSDP     MaxDP     MaxGrad    Time(sec)
--------------------------------------------------------------------------------------
    8    -326.8156859223584547    -1.83e-02  2.32e-05  1.12e-03  1.50e-04     1.6
               *** Restarting incremental Fock matrix formation ***
    9    -326.8156860673330470    -1.45e-07  1.26e-05  3.75e-04  6.61e-05     1.8
                  *** Gradient check signals convergence ***

               *****************************************************
               *                     SUCCESS                       *
               *           SCF CONVERGED AFTER   9 CYCLES          *
               *****************************************************

             **** ENERGY FILE WAS UPDATED (sp.en.tmp) ****

----------------
TOTAL SCF ENERGY
----------------

Total Energy       :       -326.81568606733305 Eh           -8893.10693 eV

Components:
Nuclear Repulsion  :        346.20823508972211 Eh            9420.80502 eV
Electronic Energy  :       -673.02392115705516 Eh          -18313.91196 eV
One Electron Energy:      -1125.82146279719109 Eh          -30635.15946 eV
Two Electron Energy:        452.79754164013588 Eh           12321.24751 eV

Virial components:
Potential Energy   :       -652.33240583254974 Eh          -17750.86720 eV
Kinetic Energy     :        325.51671976521669 Eh            8857.76026 eV
Virial Ratio       :          2.00399047490726

DFT components:
N(Alpha)           :       29.000003767062 electrons
N(Beta)            :       29.000003767062 electrons
N(Total)           :       58.000007534124 electrons
E(X)               :      -46.314857791201 Eh       
E(C)               :       -1.850817327871 Eh       
E(XC)              :      -48.165675119072 Eh       

---------------
SCF CONVERGENCE
---------------

  Last Energy change         ...    1.4497e-07  Tolerance :   1.0000e-06
  Last MAX-Density change    ...    3.7495e-04  Tolerance :   1.0000e-05
  Last RMS-Density change    ...    1.2578e-05  Tolerance :   1.0000e-06
  Last DIIS Error            ...    1.5044e-04  Tolerance :   1.0000e-06
  Last Orbital Gradient      ...    6.6130e-05  Tolerance :   3.3300e-04
  Last Orbital Rotation      ...    3.0012e-04  Tolerance :   3.3300e-04


----------------
ORBITAL ENERGIES
----------------

  NO   OCC          E(Eh)            E(eV) 
   0   2.0000     -14.148324      -384.9955 
   1   2.0000     -10.070645      -274.0362 
   2   2.0000     -10.063319      -273.8368 
   3   2.0000     -10.051924      -273.5268 
   4   2.0000     -10.040373      -273.2124 
   5   2.0000     -10.040193      -273.2075 
   6   2.0000     -10.029463      -272.9156 
   7   2.0000     -10.022373      -272.7226 
   8   2.0000      -0.914424       -24.8827 
   9   2.0000      -0.772584       -21.0231 
  10   2.0000      -0.763384       -20.7727 
  11   2.0000      -0.702021       -19.1030 
  12   2.0000      -0.617173       -16.7941 
  13   2.0000      -0.598754       -16.2929 
  14   2.0000      -0.560218       -15.2443 
  15   2.0000      -0.484552       -13.1853 
  16   2.0000      -0.460160       -12.5216 
  17   2.0000      -0.433314       -11.7911 
  18   2.0000      -0.410884       -11.1807 
  19   2.0000      -0.401084       -10.9140 
  20   2.0000      -0.380558       -10.3555 
  21   2.0000      -0.370903       -10.0928 
  22   2.0000      -0.354292        -9.6408 
  23   2.0000      -0.336521        -9.1572 
  24   2.0000      -0.313086        -8.5195 
  25   2.0000      -0.310380        -8.4459 
  26   2.0000      -0.269681        -7.3384 
  27   2.0000      -0.236630        -6.4390 
  28   2.0000      -0.219624        -5.9763 
  29   0.0000      -0.049331        -1.3424 
  30   0.0000      -0.038506        -1.0478 
  31   0.0000       0.077692         2.1141 
  32   0.0000       0.098821         2.6890 
  33   0.0000       0.102732         2.7955 
  34   0.0000       0.113279         3.0825 
  35   0.0000       0.125575         3.4171 
  36   0.0000       0.126282         3.4363 
  37   0.0000       0.142549         3.8790 
  38   0.0000       0.149084         4.0568 
  39   0.0000       0.153890         4.1876 
*Only the first 10 virtual orbitals were printed.

                    ********************************
                    * MULLIKEN POPULATION ANALYSIS *
                    ********************************

-----------------------
MULLIKEN ATOMIC CHARGES
-----------------------
   0 C :   -0.489501
   1 C :   -0.361398
   2 C :    0.254556
   3 C :   -0.208478
   4 C :   -0.169363
   5 C :   -0.103583
   6 C :   -0.115635
   7 N :   -0.196209
   8 H :    0.162806
   9 H :    0.147301
  10 H :    0.157267
  11 H :    0.177673
  12 H :    0.156938
  13 H :    0.155999
  14 H :    0.148671
  15 H :    0.149488
  16 H :    0.133467
Sum of atomic charges:   -0.0000000

--------------------------------
MULLIKEN REDUCED ORBITAL CHARGES
--------------------------------
  0 C s       :     3.329213  s :     3.329213
      pz      :     0.989769  p :     3.134322
      px      :     1.067677
      py      :     1.076876
      dz2     :     0.003916  d :     0.025966
      dxz     :     0.007303
      dyz     :     0.005818
      dx2y2   :     0.001655
      dxy     :     0.007274

  1 C s       :     3.299971  s :     3.299971
      pz      :     0.980630  p :     3.026131
      px      :     0.913292
      py      :     1.132209
      dz2     :     0.008098  d :     0.035297
      dxz     :     0.007040
      dyz     :     0.005337
      dx2y2   :     0.010258
      dxy     :     0.004564

  2 C s       :     3.166816  s :     3.166816
      pz      :     0.878908  p :     2.513498
      px      :     0.801857
      py      :     0.832732
      dz2     :     0.004598  d :     0.065130
      dxz     :     0.007444
      dyz     :     0.009250
      dx2y2   :     0.023624
      dxy     :     0.020214

  3 C s       :     3.144053  s :     3.144053
      pz      :     1.017994  p :     3.028227
      px      :     0.971291
      py      :     1.038942
      dz2     :     0.003381  d :     0.036198
      dxz     :     0.005011
      dyz     :     0.003505
      dx2y2   :     0.011451
      dxy     :     0.012850

  4 C s       :     3.231606  s :     3.231606
      pz      :     0.940615  p :     2.899442
      px      :     0.949023
      py      :     1.009804
      dz2     :     0.003640  d :     0.038315
      dxz     :     0.006263
      dyz     :     0.003689
      dx2y2   :     0.012021
      dxy     :     0.012701

  5 C s       :     3.131056  s :     3.131056
      pz      :     1.013428  p :     2.936214
      px      :     1.016735
      py      :     0.906051
      dz2     :     0.003365  d :     0.036312
      dxz     :     0.002876
      dyz     :     0.005869
      dx2y2   :     0.012417
      dxy     :     0.011786

  6 C s       :     3.246835  s :     3.246835
      pz      :     0.915717  p :     2.813295
      px      :     0.924176
      py      :     0.973402
      dz2     :     0.004068  d :     0.055504
      dxz     :     0.008883
      dyz     :     0.004272
      dx2y2   :     0.016473
      dxy     :     0.021808

  7 N s       :     3.449906  s :     3.449906
      pz      :     1.161879  p :     3.682973
      px      :     1.082222
      py      :     1.438872
      dz2     :     0.004183  d :     0.063330
      dxz     :     0.005660
      dyz     :     0.015437
      dx2y2   :     0.024154
      dxy     :     0.013896

  8 H s       :     0.818702  s :     0.818702
      pz      :     0.007204  p :     0.018492
      px      :     0.006300
      py      :     0.004988

  9 H s       :     0.834302  s :     0.834302
      pz      :     0.004377  p :     0.018397
      px      :     0.006432
      py      :     0.007587

 10 H s       :     0.824259  s :     0.824259
      pz      :     0.005250  p :     0.018474
      px      :     0.006150
      py      :     0.007075

 11 H s       :     0.804474  s :     0.804474
      pz      :     0.003421  p :     0.017853
      px      :     0.003386
      py      :     0.011046

 12 H s       :     0.825006  s :     0.825006
      pz      :     0.009174  p :     0.018056
      px      :     0.003998
      py      :     0.004884

 13 H s       :     0.824493  s :     0.824493
      pz      :     0.004394  p :     0.019508
      px      :     0.005831
      py      :     0.009283

 14 H s       :     0.831952  s :     0.831952
      pz      :     0.003812  p :     0.019377
      px      :     0.005146
      py      :     0.010419

 15 H s       :     0.830858  s :     0.830858
      pz      :     0.004477  p :     0.019654
      px      :     0.012047
      py      :     0.003130

 16 H s       :     0.847531  s :     0.847531
      pz      :     0.003863  p :     0.019002
      px      :     0.004769
      py      :     0.010370


------------------------
MULLIKEN OVERLAP CHARGES
------------------------
B(  0-C ,  1-C ) :   0.3461 B(  0-C ,  2-C ) :  -0.0630 B(  0-C ,  8-H ) :   0.8665 
B(  0-C ,  9-H ) :   0.8228 B(  0-C , 10-H ) :   0.8199 B(  0-C , 12-H ) :  -0.1076 
B(  1-C ,  2-C ) :   0.1894 B(  1-C ,  3-C ) :  -0.1137 B(  1-C ,  8-H ) :  -0.1349 
B(  1-C ,  9-H ) :  -0.0626 B(  1-C , 10-H ) :  -0.0610 B(  1-C , 11-H ) :   0.8926 
B(  1-C , 12-H ) :   0.8972 B(  2-C ,  3-C ) :   0.7619 B(  2-C ,  4-C ) :  -0.0688 
B(  2-C ,  5-C ) :  -0.1107 B(  2-C ,  6-C ) :  -0.2896 B(  2-C ,  7-N ) :   0.6441 
B(  2-C , 11-H ) :  -0.1226 B(  2-C , 12-H ) :  -0.1273 B(  3-C ,  4-C ) :   0.8970 
B(  3-C ,  5-C ) :  -0.0771 B(  3-C ,  6-C ) :  -0.1769 B(  3-C ,  7-N ) :  -0.0683 
B(  3-C , 13-H ) :   0.7196 B(  3-C , 14-H ) :  -0.0570 B(  4-C ,  5-C ) :   0.8778 
B(  4-C ,  6-C ) :  -0.0558 B(  4-C , 14-H ) :   0.7997 B(  4-C , 15-H ) :  -0.0577 
B(  5-C ,  6-C ) :   0.7576 B(  5-C ,  7-N ) :  -0.1721 B(  5-C , 14-H ) :  -0.0582 
B(  5-C , 15-H ) :   0.7657 B(  5-C , 16-H ) :  -0.1677 B(  6-C ,  7-N ) :   1.0004 
B(  6-C , 16-H ) :   0.9010 B(  7-N , 16-H ) :  -0.1034 


                     *******************************
                     * LOEWDIN POPULATION ANALYSIS *
                     *******************************

----------------------
LOEWDIN ATOMIC CHARGES
----------------------
   0 C :   -0.411351
   1 C :   -0.263295
   2 C :    0.131081
   3 C :   -0.143489
   4 C :   -0.123026
   5 C :   -0.158671
   6 C :    0.083525
   7 N :   -0.619565
   8 H :    0.159134
   9 H :    0.151994
  10 H :    0.156310
  11 H :    0.177651
  12 H :    0.165454
  13 H :    0.172393
  14 H :    0.168810
  15 H :    0.169293
  16 H :    0.183750

-------------------------------
LOEWDIN REDUCED ORBITAL CHARGES
-------------------------------
  0 C s       :     2.973173  s :     2.973173
      pz      :     1.106922  p :     3.377371
      px      :     1.122232
      py      :     1.148216
      dz2     :     0.008006  d :     0.060807
      dxz     :     0.017870
      dyz     :     0.013859
      dx2y2   :     0.002797
      dxy     :     0.018276

  1 C s       :     2.925397  s :     2.925397
      pz      :     1.095971  p :     3.263236
      px      :     1.025239
      py      :     1.142025
      dz2     :     0.017254  d :     0.074662
      dxz     :     0.014412
      dyz     :     0.011681
      dx2y2   :     0.022085
      dxy     :     0.009230

  2 C s       :     2.797196  s :     2.797196
      pz      :     0.853155  p :     2.931279
      px      :     1.022790
      py      :     1.055333
      dz2     :     0.009561  d :     0.140444
      dxz     :     0.012455
      dyz     :     0.018188
      dx2y2   :     0.057131
      dxy     :     0.043109

  3 C s       :     2.896867  s :     2.896867
      pz      :     1.002261  p :     3.167201
      px      :     1.092845
      py      :     1.072095
      dz2     :     0.005857  d :     0.079421
      dxz     :     0.009112
      dyz     :     0.006120
      dx2y2   :     0.027191
      dxy     :     0.031142

  4 C s       :     2.906910  s :     2.906910
      pz      :     0.937380  p :     3.133669
      px      :     1.096668
      py      :     1.099621
      dz2     :     0.006199  d :     0.082447
      dxz     :     0.011667
      dyz     :     0.006249
      dx2y2   :     0.028302
      dxy     :     0.030031

  5 C s       :     2.905323  s :     2.905323
      pz      :     0.996738  p :     3.174205
      px      :     1.085064
      py      :     1.092403
      dz2     :     0.005749  d :     0.079143
      dxz     :     0.004485
      dyz     :     0.011110
      dx2y2   :     0.030602
      dxy     :     0.027198

  6 C s       :     2.829673  s :     2.829673
      pz      :     0.874899  p :     2.961522
      px      :     1.030960
      py      :     1.055663
      dz2     :     0.008279  d :     0.125280
      dxz     :     0.016947
      dyz     :     0.008065
      dx2y2   :     0.037217
      dxy     :     0.054772

  7 N s       :     3.223735  s :     3.223735
      pz      :     1.145055  p :     3.910506
      px      :     1.273891
      py      :     1.491560
      dz2     :     0.056881  d :     0.485324
      dxz     :     0.085057
      dyz     :     0.047537
      dx2y2   :     0.146679
      dxy     :     0.149170

  8 H s       :     0.796662  s :     0.796662
      pz      :     0.017653  p :     0.044204
      px      :     0.015048
      py      :     0.011504

  9 H s       :     0.804121  s :     0.804121
      pz      :     0.010129  p :     0.043885
      px      :     0.015456
      py      :     0.018299

 10 H s       :     0.799782  s :     0.799782
      pz      :     0.012089  p :     0.043908
      px      :     0.014510
      py      :     0.017309

 11 H s       :     0.779057  s :     0.779057
      pz      :     0.007781  p :     0.043292
      px      :     0.007278
      py      :     0.028233

 12 H s       :     0.790671  s :     0.790671
      pz      :     0.022596  p :     0.043874
      px      :     0.009328
      py      :     0.011951

 13 H s       :     0.782034  s :     0.782034
      pz      :     0.009843  p :     0.045573
      px      :     0.013580
      py      :     0.022149

 14 H s       :     0.786921  s :     0.786921
      pz      :     0.008065  p :     0.044269
      px      :     0.011820
      py      :     0.024384

 15 H s       :     0.785075  s :     0.785075
      pz      :     0.009932  p :     0.045632
      px      :     0.028368
      py      :     0.007333

 16 H s       :     0.775684  s :     0.775684
      pz      :     0.008022  p :     0.040566
      px      :     0.008918
      py      :     0.023626


---------------------------------
LOEWDIN BOND ORDERS (THRESH 0.050000)
---------------------------------
B(  0-C ,  1-C ) :   1.1025 B(  0-C ,  2-C ) :   0.0741 B(  0-C ,  8-H ) :   0.9224 
B(  0-C ,  9-H ) :   0.9358 B(  0-C , 10-H ) :   0.9340 B(  1-C ,  2-C ) :   1.0069 
B(  1-C ,  3-C ) :   0.0843 B(  1-C ,  7-N ) :   0.1962 B(  1-C , 11-H ) :   0.8797 
B(  1-C , 12-H ) :   0.8824 B(  2-C ,  3-C ) :   1.3184 B(  2-C ,  4-C ) :   0.0912 
B(  2-C ,  5-C ) :   0.1246 B(  2-C ,  6-C ) :   0.1073 B(  2-C ,  7-N ) :   1.7440 
B(  2-C , 13-H ) :   0.0552 B(  3-C ,  4-C ) :   1.5220 B(  3-C ,  5-C ) :   0.0904 
B(  3-C ,  6-C ) :   0.1312 B(  3-C ,  7-N ) :   0.2031 B(  3-C , 13-H ) :   0.8625 
B(  3-C , 14-H ) :   0.0551 B(  4-C ,  5-C ) :   1.4857 B(  4-C ,  6-C ) :   0.0895 
B(  4-C ,  7-N ) :   0.1346 B(  4-C , 13-H ) :   0.0535 B(  4-C , 14-H ) :   0.8738 
B(  4-C , 15-H ) :   0.0533 B(  5-C ,  6-C ) :   1.4072 B(  5-C ,  7-N ) :   0.2168 
B(  5-C , 14-H ) :   0.0534 B(  5-C , 15-H ) :   0.8719 B(  5-C , 16-H ) :   0.0528 
B(  6-C ,  7-N ) :   1.8036 B(  6-C , 15-H ) :   0.0580 B(  6-C , 16-H ) :   0.8059 
B(  7-N , 16-H ) :   0.1170 

------------------------------------------
LOEWDIN REDUCED ORBITAL POPULATIONS PER MO
-------------------------------------------
THRESHOLD FOR PRINTING IS 0.1%%
                      0         1         2         3         4         5   
                 -14.14832 -10.07064 -10.06332 -10.05192 -10.04037 -10.04019
                   2.00000   2.00000   2.00000   2.00000   2.00000   2.00000
                  --------  --------  --------  --------  --------  --------
 2 C  s               0.0      99.2       0.0       0.0       0.0       0.0
 2 C  py              0.1       0.0       0.0       0.0       0.1       0.0
 3 C  s               0.0       0.0       0.0       0.1      99.4       0.1
 3 C  px              0.0       0.0       0.0       0.1       0.0       0.0
 4 C  s               0.0       0.0       0.0      99.5       0.1       0.1
 4 C  px              0.0       0.0       0.0       0.0       0.1       0.0
 5 C  s               0.0       0.0       0.0       0.1       0.1      99.4
 6 C  s               0.0       0.0      99.2       0.0       0.0       0.0
 6 C  py              0.0       0.0       0.0       0.0       0.0       0.1
 7 N  s              99.8       0.0       0.0       0.0       0.0       0.0
 7 N  px              0.0       0.0       0.2       0.0       0.0       0.0
 7 N  py              0.0       0.1       0.0       0.0       0.0       0.0
 7 N  dx2y2           0.0       0.0       0.2       0.0       0.0       0.0
 7 N  dxy             0.0       0.2       0.0       0.0       0.0       0.0

                      6         7         8         9        10        11   
                 -10.02946 -10.02237  -0.91442  -0.77258  -0.76338  -0.70202
                   2.00000   2.00000   2.00000   2.00000   2.00000   2.00000
                  --------  --------  --------  --------  --------  --------
 0 C  s               0.0      99.7       0.2       0.1       9.8      18.0
 0 C  pz              0.0       0.0       0.1       0.0       1.1       0.4
 0 C  px              0.0       0.0       0.1       0.0       0.9       0.1
 0 C  py              0.0       0.0       0.0       0.0       0.2       0.1
 1 C  s              99.7       0.0       1.5       0.3      19.1       8.6
 1 C  pz              0.0       0.0       0.1       0.0       0.6       0.9
 1 C  px              0.0       0.0       1.5       0.0       0.4       3.6
 1 C  py              0.0       0.0       0.0       0.1       0.4       0.3
 2 C  s               0.0       0.0      14.0       0.2      10.6       2.7
 2 C  pz              0.0       0.0       0.2       0.0       0.1       0.0
 2 C  px              0.1       0.0       3.1       0.6       5.0       4.2
 2 C  py              0.0       0.0       2.4       7.5       1.7       0.7
 2 C  dz2             0.0       0.0       0.2       0.0       0.1       0.0
 2 C  dx2y2           0.0       0.0       0.0       0.0       0.0       0.2
 2 C  dxy             0.0       0.0       0.2       0.3       0.1       0.0
 3 C  s               0.0       0.0       4.0      12.0       6.4       7.6
 3 C  pz              0.0       0.0       0.0       0.1       0.0       0.0
 3 C  px              0.0       0.0       0.0       4.9       1.5       0.0
 3 C  py              0.0       0.0       2.4       0.2       0.6       0.2
 3 C  dx2y2           0.0       0.0       0.0       0.2       0.0       0.0
 4 C  s               0.0       0.0       2.5      26.5       0.1       0.1
 4 C  pz              0.0       0.0       0.0       0.0       0.1       0.2
 4 C  px              0.0       0.0       0.3       0.2       2.1       4.7
 4 C  py              0.0       0.0       1.1       1.3       0.5       1.3
 4 C  dz2             0.0       0.0       0.0       0.2       0.0       0.0
 4 C  dx2y2           0.0       0.0       0.0       0.0       0.1       0.1
 5 C  s               0.0       0.0       3.6      15.1       3.4       8.9
 5 C  pz              0.0       0.0       0.0       0.1       0.0       0.0
 5 C  px              0.0       0.0       1.9       1.0       0.1       0.1
 5 C  py              0.0       0.0       0.5       3.1       1.3       1.6
 5 C  dz2             0.0       0.0       0.0       0.1       0.0       0.0
 5 C  dxy             0.0       0.0       0.0       0.1       0.0       0.0
 6 C  s               0.0       0.0      12.5       0.2       7.9       6.8
 6 C  pz              0.0       0.0       0.2       0.1       0.0       0.0
 6 C  px              0.0       0.0       5.5       4.6       0.3       2.1
 6 C  py              0.0       0.0       0.6       3.6       0.1       0.4
 6 C  dz2             0.0       0.0       0.2       0.0       0.1       0.0
 6 C  dx2y2           0.0       0.0       0.3       0.3       0.0       0.0
 7 N  s               0.0       0.0      33.4       8.0       1.3       0.4
 7 N  pz              0.0       0.0       0.0       0.0       0.3       0.2
 7 N  px              0.0       0.0       0.8       0.2       7.1       2.7
 7 N  py              0.0       0.0       3.5       0.3       1.3       1.2
 7 N  dz2             0.0       0.0       0.7       0.1       0.0       0.0
 7 N  dxz             0.0       0.0       0.1       0.0       0.0       0.1
 7 N  dx2y2           0.0       0.0       0.0       0.1       0.7       1.7
 7 N  dxy             0.0       0.0       0.1       0.4       0.9       0.1
 8 H  s               0.0       0.0       0.0       0.0       1.5       3.1
 8 H  pz              0.0       0.0       0.0       0.0       0.1       0.1
 9 H  s               0.0       0.0       0.0       0.0       1.3       3.3
 9 H  px              0.0       0.0       0.0       0.0       0.0       0.1
 9 H  py              0.0       0.0       0.0       0.0       0.1       0.2
10 H  s               0.0       0.0       0.0       0.0       1.3       3.4
10 H  py              0.0       0.0       0.0       0.0       0.0       0.1
11 H  s               0.0       0.0       0.1       0.1       2.6       1.4
11 H  py              0.0       0.0       0.0       0.0       0.2       0.1
12 H  s               0.0       0.0       0.1       0.0       2.7       1.6
12 H  pz              0.0       0.0       0.0       0.0       0.2       0.1
13 H  s               0.0       0.0       0.3       1.5       1.1       1.3
14 H  s               0.0       0.0       0.2       3.4       0.0       0.0
14 H  py              0.0       0.0       0.0       0.2       0.0       0.0
15 H  s               0.0       0.0       0.2       1.9       0.5       1.9
15 H  px              0.0       0.0       0.0       0.2       0.0       0.2
16 H  s               0.0       0.0       0.8       0.0       1.2       1.5
16 H  py              0.0       0.0       0.0       0.0       0.1       0.1

                     12        13        14        15        16        17   
                  -0.61717  -0.59875  -0.56022  -0.48455  -0.46016  -0.43331
                   2.00000   2.00000   2.00000   2.00000   2.00000   2.00000
                  --------  --------  --------  --------  --------  --------
 0 C  s              14.2       1.4       3.9       0.1       0.0       0.0
 0 C  pz              1.4       0.2       3.5       1.7       0.3       2.8
 0 C  px              1.0       0.3       0.6       0.2       0.6       4.0
 0 C  py              0.5       0.0       1.0       0.5       1.8       0.0
 1 C  s               4.4       0.2       9.1       1.5       0.0       0.2
 1 C  pz              2.5       0.4       3.3       1.5       0.4       4.9
 1 C  px              4.4       0.4       0.4       3.9       0.3       7.0
 1 C  py              1.2       0.8       0.8       0.1       7.9       0.1
 2 C  s               3.5       0.5       3.1       0.8       0.1       2.1
 2 C  pz              0.5       0.3       0.6       0.1       0.2       1.0
 2 C  px              3.6       0.4       3.8       1.7       0.3       3.0
 2 C  py              1.7      14.3       0.3       0.8      10.7       0.8
 2 C  dx2y2           0.0       0.0       0.2       0.1       0.0       0.2
 2 C  dxy             0.0       0.2       0.0       0.1       0.0       0.1
 3 C  s               3.7       6.2       0.1       0.6       0.3       2.0
 3 C  pz              0.0       0.3       0.0       0.2       0.1       1.3
 3 C  px              0.9       7.4       2.7       4.0       8.7       1.9
 3 C  py              1.8       0.2       5.9       6.8       4.3       9.2
 3 C  dx2y2           0.0       0.1       0.2       0.0       0.1       0.1
 3 C  dxy             0.0       0.0       0.0       0.0       0.0       0.3
 4 C  s               0.4       8.2       4.5       0.5       0.0       2.1
 4 C  pz              0.2       0.1       0.1       0.0       0.5       0.1
 4 C  px              5.0       4.8       0.2       3.2      13.1       0.3
 4 C  py              2.1       0.4       5.8      11.6       1.4       0.2
 4 C  dxy             0.0       0.0       0.0       0.0       0.0       0.2
 5 C  s               6.9       0.0       2.9       0.9       0.2       2.0
 5 C  pz              0.0       0.1       0.0       0.6       0.0       0.1
 5 C  px              1.1       0.0       0.5      16.3       0.6       6.9
 5 C  py              0.0      14.3       0.9       0.0      13.9       0.1
 5 C  dx2y2           0.0       0.0       0.0       0.0       0.0       0.3
 5 C  dxy             0.0       0.2       0.0       0.0       0.1       0.0
 6 C  s               0.3       8.9       1.0       0.5       0.5       1.6
 6 C  pz              0.1       0.1       0.0       0.3       0.3       0.6
 6 C  px              4.3       2.9       2.6       2.3      11.7       1.9
 6 C  py              2.7       0.6       5.8       6.2       1.1       4.7
 6 C  dx2y2           0.1       0.0       0.1       0.0       0.1       0.2
 6 C  dxy             0.0       0.0       0.0       0.0       0.0       0.2
 7 N  s               0.7       3.3       0.6       1.4       0.1       1.9
 7 N  pz              0.3       0.2       0.2       0.0       0.4       0.5
 7 N  px              5.8       5.6       4.3       2.9       9.9       0.1
 7 N  py              1.2       0.9       5.7       1.5       2.0       0.2
 7 N  dz2             0.1       0.4       0.0       0.0       0.0       0.4
 7 N  dx2y2           0.1       0.2       1.1       0.3       0.7       0.1
 7 N  dxy             0.2       0.1       0.1       1.5       0.1       1.2
 8 H  s               4.1       0.3       2.6       0.9       0.1       1.8
 8 H  pz              0.1       0.0       0.1       0.0       0.0       0.0
 8 H  px              0.2       0.0       0.1       0.0       0.0       0.0
 9 H  s               4.6       0.4       1.7       0.0       0.1       1.2
 9 H  px              0.1       0.0       0.0       0.0       0.0       0.0
 9 H  py              0.2       0.0       0.0       0.0       0.0       0.0
10 H  s               4.4       0.6       1.7       0.0       0.9       0.0
10 H  py              0.2       0.0       0.1       0.0       0.0       0.0
11 H  s               1.6       0.0       4.2       1.0       2.4       0.6
11 H  py              0.1       0.0       0.3       0.1       0.1       0.0
12 H  s               1.4       0.3       4.7       2.0       0.7       2.9
12 H  pz              0.1       0.0       0.2       0.1       0.0       0.1
13 H  s               1.4       3.2       0.4       4.6       0.1       9.8
13 H  px              0.1       0.0       0.0       0.1       0.1       0.1
13 H  py              0.0       0.2       0.0       0.1       0.0       0.2
14 H  s               0.2       4.1       4.0       5.3       0.2       1.9
14 H  py              0.0       0.3       0.2       0.2       0.0       0.1
15 H  s               2.8       0.0       1.4       7.1       0.5       6.8
15 H  px              0.2       0.0       0.1       0.3       0.0       0.2
15 H  py              0.0       0.0       0.0       0.0       0.1       0.0
16 H  s               0.1       4.5       1.2       3.3       1.0       6.6
16 H  py              0.0       0.3       0.0       0.1       0.1       0.2

                     18        19        20        21        22        23   
                  -0.41088  -0.40108  -0.38056  -0.37090  -0.35429  -0.33652
                   2.00000   2.00000   2.00000   2.00000   2.00000   2.00000
                  --------  --------  --------  --------  --------  --------
 0 C  s               0.1       0.0       0.1       0.0       0.1       0.3
 0 C  pz              2.5       0.2      10.5       0.5       0.3      25.2
 0 C  px              7.0       6.9       1.1       1.9      17.0       0.5
 0 C  py             10.8      11.5       0.8       7.7       0.3       2.0
 0 C  dxz             0.0       0.0       0.0       0.1       0.0       0.2
 0 C  dyz             0.1       0.0       0.0       0.0       0.2       0.0
 0 C  dxy             0.0       0.0       0.1       0.0       0.0       0.2
 1 C  s               0.2       0.0       0.2       0.0       0.4       0.1
 1 C  pz             11.6       0.0       0.8       0.3       1.4      19.3
 1 C  px              0.1       2.6       4.9       1.8       0.7       2.7
 1 C  py              6.3       8.3       2.8       0.0       1.2       2.5
 1 C  dxz             0.0       0.0       0.0       0.0       0.0       0.1
 1 C  dyz             0.1       0.0       0.0       0.0       0.0       0.1
 2 C  s               0.7       0.2       0.1       0.6       0.1       0.0
 2 C  pz              5.2       0.4      12.5       0.4       0.7       0.1
 2 C  px              2.0       4.1       1.4       1.7       0.9       0.1
 2 C  py              0.2       2.7       0.1       2.2       0.3       0.4
 2 C  dxz             0.0       0.0       0.0       0.0       0.1       0.2
 2 C  dx2y2           0.0       0.1       0.0       0.0       0.2       0.0
 2 C  dxy             0.0       0.3       0.0       0.0       0.0       0.1
 3 C  s               0.4       0.7       0.1       0.4       0.1       0.0
 3 C  pz              1.0       0.1       7.6       0.0       0.5       1.5
 3 C  px              1.7       0.4       1.7       5.6       5.8       0.5
 3 C  py              3.0       9.3       1.0       1.0       1.8       0.5
 3 C  dx2y2           0.0       0.0       0.0       0.3       0.0       0.0
 3 C  dxy             0.1       0.0       0.0       0.2       0.2       0.1
 4 C  s               0.4       0.0       0.0       0.2       0.0       0.0
 4 C  pz              0.8       0.1       3.4       0.2       4.7       2.5
 4 C  px              0.1       0.1       3.0       6.3       3.2       1.4
 4 C  py              2.5       1.0       0.4      18.2       3.7       1.5
 4 C  dx2y2           0.0       0.2       0.2       0.3       0.1       0.0
 4 C  dxy             0.2       0.0       0.0       0.4       0.1       0.1
 5 C  s               0.6       0.1       0.1       0.3       0.1       0.0
 5 C  pz              0.4       0.0       6.7       0.2       2.0       5.8
 5 C  px              0.1       7.7       3.7       0.5       9.9       0.6
 5 C  py              0.9       3.0       0.0       4.9       3.5       0.7
 5 C  dx2y2           0.1       0.1       0.1       0.1       0.3       0.1
 5 C  dxy             0.0       0.1       0.0       0.5       0.1       0.0
 6 C  s               0.3       0.3       0.1       0.7       0.1       0.0
 6 C  pz              0.5       0.0       8.6       0.2       6.4       3.5
 6 C  px              4.3       0.2       0.0       0.0       0.5       1.5
 6 C  py              1.6      11.8       0.6       6.9       0.8       1.1
 6 C  dx2y2           0.0       0.0       0.1       0.0       0.2       0.1
 7 N  s               0.1       0.0       0.1       1.1       0.1       0.1
 7 N  pz              4.2       0.3      12.6       0.6       4.7       2.9
 7 N  px              1.1       0.1       0.8       1.6       3.5       1.0
 7 N  py              0.8       0.7       0.5       7.0       0.3       0.1
 7 N  dxz             0.0       0.0       0.0       0.0       0.5       0.5
 7 N  dyz             0.4       0.2       0.6       0.0       0.1       0.0
 7 N  dx2y2           0.1       0.4       0.5       0.0       0.1       0.0
 7 N  dxy             0.1       0.6       0.1       0.2       0.1       0.1
 8 H  s               0.5       2.5       0.8       2.8       3.7       7.1
 8 H  pz              0.0       0.1       0.0       0.1       0.1       0.0
 8 H  px              0.0       0.0       0.1       0.0       0.0       0.2
 8 H  py              0.1       0.0       0.0       0.0       0.1       0.0
 9 H  s               9.0       0.3       0.4       0.5       4.7       0.2
 9 H  pz              0.0       0.0       0.1       0.0       0.0       0.2
 9 H  py              0.1       0.0       0.0       0.0       0.1       0.0
10 H  s               0.5       6.8       3.9       2.6       1.5       1.1
10 H  pz              0.0       0.1       0.0       0.1       0.0       0.1
10 H  px              0.1       0.0       0.0       0.0       0.0       0.0
11 H  s               2.5       3.6       0.4       0.0       0.2       1.3
11 H  pz              0.1       0.0       0.0       0.0       0.0       0.2
12 H  s               5.3       0.3       0.4       0.0       0.0       4.7
12 H  pz              0.1       0.0       0.1       0.0       0.0       0.0
12 H  py              0.0       0.0       0.0       0.0       0.0       0.2
13 H  s               3.1       2.4       1.8       0.0       3.9       1.2
14 H  s               2.1       0.5       0.0      15.2       0.4       0.2
14 H  py              0.0       0.0       0.0       0.2       0.0       0.0
15 H  s               0.1       3.6       2.9       0.9       5.2       1.0
16 H  s               2.9       3.9       0.3       1.5       1.9       1.2

                     24        25        26        27        28        29   
                  -0.31309  -0.31038  -0.26968  -0.23663  -0.21962  -0.04933
                   2.00000   2.00000   2.00000   2.00000   2.00000   0.00000
                  --------  --------  --------  --------  --------  --------
 0 C  s               0.0       0.0       0.0       0.5       0.0       0.2
 0 C  pz              0.6       2.8       0.3       0.8       0.0       0.0
 0 C  px              9.4       2.2       0.0       1.9       0.3       0.2
 0 C  py              4.8      15.0       0.1       0.0       0.0       0.1
 0 C  dz2             0.1       0.2       0.0       0.0       0.0       0.0
 0 C  dxz             0.3       0.1       0.0       0.0       0.0       0.0
 0 C  dyz             0.3       0.0       0.0       0.0       0.0       0.0
 0 C  dxy             0.0       0.5       0.0       0.0       0.0       0.0
 1 C  s               0.2       0.0       0.0       0.0       0.6       0.0
 1 C  pz              1.0       3.3       0.3       2.2       0.1       0.1
 1 C  px             11.8       2.1       0.0       0.1       2.5       0.1
 1 C  py              6.8      17.3       0.0       0.0       0.2       0.0
 1 C  dz2             0.0       0.6       0.0       0.0       0.0       0.0
 1 C  dxz             0.0       0.0       0.0       0.3       0.0       0.1
 1 C  dyz             0.0       0.2       0.0       0.0       0.0       0.0
 1 C  dx2y2           0.6       0.1       0.0       0.0       0.0       0.0
 2 C  s               0.4       0.1       0.0       0.0       0.5       0.0
 2 C  pz              0.6       0.0       1.7      18.0       0.1       2.9
 2 C  px             13.0       1.3       0.0       0.8       0.1       0.1
 2 C  py              0.0       1.5       0.0       0.1       4.4       0.0
 2 C  dxz             0.0       0.0       0.0       0.1       0.1       0.0
 2 C  dyz             0.0       0.0       0.6       0.1       0.0       1.2
 2 C  dx2y2           0.4       0.1       0.0       0.0       1.4       0.0
 2 C  dxy             0.0       0.4       0.0       0.0       0.2       0.1
 3 C  s               0.1       0.1       0.0       0.0       0.4       0.0
 3 C  pz              0.1       0.1      15.2      21.8       0.0      14.2
 3 C  px              4.6       0.1       0.4       0.7       0.8       0.4
 3 C  py              0.2       1.0       0.1       0.1       3.7       0.1
 3 C  dxz             0.0       0.0       0.3       0.0       0.0       0.8
 3 C  dyz             0.0       0.0       0.0       0.1       0.0       0.1
 3 C  dx2y2           0.3       0.0       0.0       0.0       0.0       0.0
 3 C  dxy             0.2       0.1       0.0       0.0       0.1       0.0
 4 C  pz              0.2       0.2      33.1       0.0       0.0      30.4
 4 C  px              5.2       0.1       1.1       0.0       0.1       0.9
 4 C  py              0.1       0.9       0.2       0.0       0.3       0.2
 4 C  dxz             0.0       0.0       0.0       0.4       0.0       0.2
 4 C  dyz             0.0       0.0       0.0       0.1       0.0       0.1
 4 C  dxy             0.0       0.1       0.0       0.0       0.1       0.0
 5 C  s               0.1       0.0       0.0       0.0       0.5       0.0
 5 C  pz              0.3       0.1       8.5      24.7       0.0       1.6
 5 C  px              0.6       0.5       0.3       0.7       1.0       0.0
 5 C  py              1.1       0.8       0.0       0.2       3.7       0.0
 5 C  dyz             0.0       0.0       0.4       0.1       0.0       1.3
 5 C  dx2y2           0.2       0.0       0.0       0.0       0.1       0.0
 6 C  s               0.1       0.1       0.0       0.0       0.4       0.0
 6 C  pz              0.0       0.6       5.5      16.5       0.1      15.1
 6 C  px              1.8       1.1       0.2       0.5       3.1       0.5
 6 C  py              1.4       1.0       0.0       0.1       1.6       0.1
 6 C  dxz             0.0       0.0       0.4       0.2       0.0       0.9
 6 C  dyz             0.0       0.0       0.1       0.1       0.1       0.0
 6 C  dxy             0.3       0.1       0.0       0.0       1.7       0.0
 7 N  s               0.2       0.3       0.0       0.0       8.4       0.0
 7 N  pz              0.5       0.1      28.3       0.9       0.0      22.1
 7 N  px              0.7       2.8       0.9       0.1      11.6       0.7
 7 N  py              2.9       0.7       0.2       0.0      43.6       0.1
 7 N  dz2             0.0       0.2       0.0       0.4       0.2       0.1
 7 N  dxz             0.0       0.0       0.0       2.5       0.1       1.6
 7 N  dyz             0.0       0.0       0.1       0.8       0.0       0.6
 7 N  dx2y2           0.1       0.2       0.0       0.0       0.6       0.1
 7 N  dxy             0.1       0.0       0.0       0.1       1.3       0.0
 8 H  s               7.7       0.3       0.1       0.1       0.1       0.1
 8 H  py              0.0       0.2       0.0       0.0       0.0       0.0
 9 H  s               0.2      12.1       0.0       0.0       0.1       0.0
10 H  s               5.6       5.0       0.0       0.6       0.0       0.1
10 H  px              0.0       0.2       0.0       0.0       0.0       0.0
11 H  s               7.4       9.4       0.0       0.0       0.1       0.0
11 H  py              0.1       0.1       0.0       0.0       0.0       0.0
12 H  s               0.2      10.1       0.2       1.8       0.1       0.0
12 H  pz              0.0       0.1       0.0       0.0       0.0       0.0
12 H  px              0.1       0.0       0.0       0.0       0.0       0.0
13 H  s               1.6       0.6       0.0       0.0       0.9       0.0
13 H  pz              0.0       0.0       0.1       0.2       0.0       0.4
14 H  s               0.4       0.4       0.0       0.0       0.9       0.0
14 H  pz              0.0       0.0       0.3       0.0       0.0       0.9
15 H  s               1.2       0.4       0.0       0.0       0.7       0.0
15 H  pz              0.0       0.0       0.1       0.3       0.0       0.0
16 H  s               2.8       1.7       0.0       0.0       2.4       0.0
16 H  pz              0.0       0.0       0.1       0.2       0.0       0.4

                     30        31        32        33        34        35   
                  -0.03851   0.07769   0.09882   0.10273   0.11328   0.12557
                   0.00000   0.00000   0.00000   0.00000   0.00000   0.00000
                  --------  --------  --------  --------  --------  --------
 0 C  s               0.8       5.7       4.1       1.4      10.4       0.6
 0 C  pz              0.7       0.1       0.6       3.2       1.3       0.3
 0 C  px              0.4       1.6       0.1       1.7       1.1       0.7
 0 C  py              0.1       0.3       4.5       1.0       1.2       1.6
 0 C  dz2             0.0       0.1       0.0       0.0       0.1       0.0
 0 C  dxz             0.0       0.0       1.2       0.4       0.0       0.0
 0 C  dyz             0.0       0.4       0.0       0.0       0.2       0.0
 0 C  dxy             0.0       0.0       0.1       0.2       0.8       0.1
 1 C  s               0.1       5.6       3.7       0.3       4.1       0.1
 1 C  pz              0.0       1.4       2.3       2.6       0.2       0.3
 1 C  px              0.2       2.2       3.0       0.4       1.8       1.0
 1 C  py              0.1       0.2       1.2       1.6       1.8       2.3
 1 C  dz2             0.0       0.1       0.1       0.0       0.5       0.3
 1 C  dxz             0.8       0.0       0.2       0.6       0.0       0.0
 1 C  dyz             0.1       0.1       0.1       0.2       0.0       0.0
 1 C  dx2y2           0.0       0.2       0.8       0.6       0.3       0.0
 1 C  dxy             0.0       0.0       0.0       0.1       0.3       0.2
 2 C  s               0.0       3.3       4.9       2.1       0.0       0.2
 2 C  pz             23.8       0.1       1.0       5.7       2.9       0.2
 2 C  px              0.7       1.4       1.3       1.3       0.7       1.4
 2 C  py              0.1       1.1       0.1       0.3       0.8       0.6
 2 C  dz2             0.0       0.1       0.8       0.7       0.0       0.0
 2 C  dxz             0.1       0.1       0.5       0.2       0.0       0.0
 2 C  dx2y2           0.0       0.3       0.1       0.0       0.0       0.2
 2 C  dxy             0.0       0.1       0.0       0.1       0.6       0.6
 3 C  s               0.0       8.5       2.8       2.2       1.8       0.8
 3 C  pz             13.5       0.8       1.8       7.3       1.2       1.5
 3 C  px              0.4       3.1       0.3       0.7       6.7       1.8
 3 C  py              0.1       5.3       3.0       0.5       1.4      11.1
 3 C  dz2             0.0       0.0       0.6       0.1       0.2       0.1
 3 C  dxz             0.2       0.0       0.0       0.3       0.0       0.0
 3 C  dyz             0.6       0.0       0.0       0.2       0.2       0.0
 3 C  dx2y2           0.0       0.0       0.0       0.0       0.4       0.6
 3 C  dxy             0.0       0.6       0.6       0.0       0.1       0.1
 4 C  s               0.0       7.2       0.5       4.0       5.8       1.7
 4 C  pz              1.9       0.3       1.6       8.1       1.5       0.3
 4 C  px              0.1       0.7       1.7       0.2       3.2       0.3
 4 C  py              0.0       2.5       3.0       0.3       4.5       6.3
 4 C  dz2             0.1       0.0       0.2       0.0       0.3       0.2
 4 C  dxz             0.7       0.0       0.0       0.0       0.0       0.0
 4 C  dyz             0.3       0.0       0.0       0.2       0.0       0.0
 4 C  dx2y2           0.0       0.3       0.2       0.0       0.0       0.0
 4 C  dxy             0.0       0.5       0.7       0.0       0.1       0.0
 5 C  s               0.0       5.2       0.2       2.4       1.4       7.6
 5 C  pz             25.4       0.8       1.9       9.5       2.2       0.9
 5 C  px              0.8       1.2       4.2       0.7       2.2      13.3
 5 C  py              0.2       0.1       0.2       0.4       1.1       0.6
 5 C  dz2             0.0       0.0       0.1       0.2       0.0       0.0
 5 C  dxz             0.2       0.0       0.3       0.2       0.0       0.0
 5 C  dyz             0.1       0.0       0.0       0.0       0.0       0.0
 5 C  dx2y2           0.0       0.8       0.4       0.0       0.3       0.2
 5 C  dxy             0.0       0.0       0.1       0.1       0.2       0.0
 6 C  s               0.0       4.1       1.0       2.3       0.8       6.8
 6 C  pz             11.6       0.4       1.7      10.7       1.5       0.5
 6 C  px              0.4       1.1       1.9       0.3       1.3       3.9
 6 C  py              0.1       0.9       2.1       0.1       0.4       7.0
 6 C  dz2             0.0       0.0       0.4       0.1       0.1       0.0
 6 C  dxz             0.2       0.0       0.0       0.3       0.0       0.0
 6 C  dyz             0.4       0.0       0.0       0.3       0.1       0.0
 6 C  dx2y2           0.0       0.3       0.0       0.1       0.4       0.0
 6 C  dxy             0.0       0.1       0.2       0.0       0.0       0.6
 7 N  s               0.0       2.1       1.3       1.3       0.6       0.1
 7 N  pz              1.6       0.4       1.5       8.8       2.3       0.3
 7 N  px              0.0       0.1       0.6       0.3       0.1       0.3
 7 N  py              0.0       0.3       0.0       0.0       0.6       0.7
 7 N  dz2             0.9       0.9       2.8       1.2       0.0       0.9
 7 N  dxz             5.2       0.3       0.1       0.3       0.1       0.1
[...]
16 H  px              0.0       0.0       1.8       1.3       0.1       0.7
16 H  py              2.4       0.0       7.8       3.6       0.0       0.3

                    192       193       194       195       196       197   
                   4.05419   4.11961  21.64218  21.93465  21.98828  22.04622
                   0.00000   0.00000   0.00000   0.00000   0.00000   0.00000
                  --------  --------  --------  --------  --------  --------
 0 C  s               0.0       0.0       0.9      90.6       0.0       5.2
 1 C  s               0.0       0.0       1.1       1.6      13.9      44.2
 1 C  px              0.4       0.0       0.0       0.0       0.0       0.0
 1 C  py              0.2       0.1       0.0       0.0       0.0       0.0
 1 C  dx2y2           1.2       0.0       0.0       0.0       0.0       0.0
 2 C  s               1.1       1.8       5.0       6.9       7.9      17.1
 2 C  pz              0.1       0.1       0.0       0.0       0.0       0.0
 2 C  px              1.3       0.9       0.0       0.0       0.0       0.0
 2 C  py              0.7       4.6       0.1       0.0       0.1       0.0
 2 C  dz2             0.5       0.4       0.0       0.0       0.0       0.0
 2 C  dxz             0.0       0.2       0.0       0.0       0.0       0.0
 2 C  dyz             0.3       0.2       0.0       0.0       0.0       0.0
 2 C  dx2y2           6.4       0.0       0.0       0.0       0.0       0.0
 2 C  dxy             1.8       5.6       0.0       0.0       0.0       0.0
 3 C  s               0.1       0.0      25.0       0.0      37.6       1.9
 3 C  px              0.5       0.4       0.1       0.0       0.0       0.0
 3 C  py              0.5       0.3       0.0       0.0       0.0       0.0
 3 C  dyz             0.3       0.0       0.0       0.0       0.0       0.0
 3 C  dx2y2           1.5       0.4       0.0       0.0       0.0       0.0
 3 C  dxy             6.0       0.8       0.0       0.0       0.0       0.0
 4 C  s               0.2       0.0      33.9       0.1       0.2       6.2
 4 C  px              0.5       0.3       0.0       0.0       0.1       0.0
 4 C  py              0.8       0.5       0.0       0.0       0.0       0.0
 4 C  dz2             0.3       0.0       0.0       0.0       0.0       0.0
 4 C  dxz             0.2       0.0       0.0       0.0       0.0       0.0
 4 C  dx2y2           3.9       0.0       0.0       0.0       0.0       0.0
 4 C  dxy             5.6       1.4       0.0       0.0       0.0       0.0
 5 C  s               0.2       0.1      27.1       0.0      25.4      13.6
 5 C  px              1.2       0.3       0.0       0.0       0.0       0.0
 5 C  py              0.1       0.5       0.0       0.0       0.0       0.0
 5 C  dz2             0.1       0.0       0.0       0.0       0.0       0.0
 5 C  dxz             0.5       0.0       0.0       0.0       0.0       0.0
 5 C  dx2y2           9.1       1.7       0.0       0.0       0.0       0.0
 5 C  dxy             0.1       0.6       0.0       0.0       0.0       0.0
 6 C  s               0.2       2.7       6.3       0.4      14.3      11.5
 6 C  pz              0.0       0.2       0.0       0.0       0.0       0.0
 6 C  px              0.0       5.8       0.0       0.0       0.0       0.0
 6 C  py              1.2       0.0       0.0       0.0       0.0       0.0
 6 C  dz2             0.0       0.4       0.0       0.0       0.0       0.0
 6 C  dxz             0.0       0.4       0.0       0.0       0.0       0.0
 6 C  dyz             0.3       0.1       0.0       0.0       0.0       0.0
 6 C  dx2y2           1.3       8.1       0.0       0.0       0.0       0.0
 6 C  dxy             7.0       0.6       0.0       0.0       0.0       0.0
 7 N  s               3.2       0.1       0.2       0.0       0.0       0.0
 7 N  pz              0.1       0.9       0.0       0.0       0.0       0.0
 7 N  px              1.5      17.0       0.0       0.0       0.0       0.0
 7 N  py              1.0       5.3       0.0       0.0       0.0       0.0
 7 N  dz2             2.1       0.0       0.0       0.0       0.0       0.0
 7 N  dxz             0.7       0.4       0.0       0.0       0.0       0.0
 7 N  dyz             0.7       0.8       0.0       0.0       0.0       0.0
 7 N  dx2y2           0.3      24.4       0.0       0.0       0.0       0.0
 7 N  dxy            13.3       7.1       0.0       0.0       0.0       0.0
11 H  s               0.2       0.1       0.0       0.0       0.0       0.0
11 H  py              0.3       0.1       0.0       0.0       0.0       0.0
13 H  s               1.6       0.1       0.0       0.0       0.0       0.0
13 H  px              0.8       0.0       0.0       0.0       0.0       0.0
13 H  py              1.9       0.1       0.0       0.0       0.0       0.0
14 H  s               2.2       0.2       0.0       0.0       0.0       0.0
14 H  px              0.9       0.2       0.0       0.0       0.0       0.0
14 H  py              3.2       0.2       0.0       0.0       0.0       0.0
15 H  s               2.1       0.4       0.0       0.0       0.0       0.0
15 H  pz              0.1       0.0       0.0       0.0       0.0       0.0
15 H  px              3.7       0.6       0.0       0.0       0.0       0.0
16 H  s               1.5       0.6       0.0       0.0       0.0       0.0
16 H  px              0.4       0.0       0.0       0.0       0.0       0.0
16 H  py              2.1       0.7       0.0       0.0       0.0       0.0

                    198       199       200       201   
                  22.08371  22.23285  22.25882  31.94956
                   0.00000   0.00000   0.00000   0.00000
                  --------  --------  --------  --------
 0 C  s               1.2       0.0       1.8       0.0
 1 C  s              32.3       3.5       2.9       0.0
 2 C  s              26.2       2.9      33.2       0.0
 2 C  px              0.1       0.0       0.0       0.0
 3 C  s               1.3      20.2      13.7       0.0
 4 C  s              16.0      42.0       1.1       0.0
 5 C  s               5.1      22.5       5.8       0.0
 6 C  s              17.2       8.6      40.9       0.0
 7 N  s               0.2       0.1       0.0      99.8
 7 N  px              0.0       0.0       0.2       0.0


                      *****************************
                      * MAYER POPULATION ANALYSIS *
                      *****************************

  NA   - Mulliken gross atomic population
  ZA   - Total nuclear charge
  QA   - Mulliken gross atomic charge
  VA   - Mayer's total valence
  BVA  - Mayer's bonded valence
  FA   - Mayer's free valence

  ATOM       NA         ZA         QA         VA         BVA        FA
  0 C      6.4895     6.0000    -0.4895     3.7763     3.7763     0.0000
  1 C      6.3614     6.0000    -0.3614     3.6875     3.6875    -0.0000
  2 C      5.7454     6.0000     0.2546     3.5592     3.5592    -0.0000
  3 C      6.2085     6.0000    -0.2085     3.8934     3.8934     0.0000
  4 C      6.1694     6.0000    -0.1694     3.9077     3.9077    -0.0000
  5 C      6.1036     6.0000    -0.1036     3.7002     3.7002     0.0000
  6 C      6.1156     6.0000    -0.1156     3.9607     3.9607    -0.0000
  7 N      7.1962     7.0000    -0.1962     2.9762     2.9762     0.0000
  8 H      0.8372     1.0000     0.1628     0.9609     0.9609     0.0000
  9 H      0.8527     1.0000     0.1473     0.9637     0.9637    -0.0000
 10 H      0.8427     1.0000     0.1573     0.9623     0.9623     0.0000
 11 H      0.8223     1.0000     0.1777     0.9600     0.9600     0.0000
 12 H      0.8431     1.0000     0.1569     0.9600     0.9600     0.0000
 13 H      0.8440     1.0000     0.1560     0.9659     0.9659     0.0000
 14 H      0.8513     1.0000     0.1487     0.9681     0.9681    -0.0000
 15 H      0.8505     1.0000     0.1495     0.9684     0.9684    -0.0000
 16 H      0.8665     1.0000     0.1335     0.9681     0.9681     0.0000

  Mayer bond orders larger than 0.100000
B(  0-C ,  1-C ) :   0.8237 B(  0-C ,  8-H ) :   0.9873 B(  0-C ,  9-H ) :   0.9764 
B(  0-C , 10-H ) :   0.9770 B(  1-C ,  2-C ) :   0.8316 B(  1-C , 11-H ) :   1.0045 
B(  1-C , 12-H ) :   1.0013 B(  2-C ,  3-C ) :   1.3917 B(  2-C ,  7-N ) :   1.3092 
B(  3-C ,  4-C ) :   1.4654 B(  3-C , 13-H ) :   0.9067 B(  4-C ,  5-C ) :   1.3916 
B(  4-C , 14-H ) :   0.9502 B(  5-C ,  6-C ) :   1.3721 B(  5-C , 15-H ) :   0.9358 
B(  6-C ,  7-N ) :   1.4705 B(  6-C , 16-H ) :   0.9817 

-------
TIMINGS
-------

Total SCF time: 0 days 0 hours 0 min 15 sec 

Total time                  ....      15.121 sec
Sum of individual times     ....      15.086 sec  ( 99.8%)

SCF preparation             ....       0.071 sec  (  0.5%)
Fock matrix formation       ....      14.703 sec  ( 97.2%)
  Startup                   ....       0.010 sec  (  0.1% of F)
  Split-RI-J                ....       2.933 sec  ( 19.9% of F)
  XC integration            ....      11.480 sec  ( 78.1% of F)
    Basis function eval.    ....       1.989 sec  ( 17.3% of XC)
    Density eval.           ....       3.871 sec  ( 33.7% of XC)
    XC-Functional eval.     ....       1.313 sec  ( 11.4% of XC)
    XC-Potential eval.      ....       3.948 sec  ( 34.4% of XC)
Diagonalization             ....       0.000 sec  (  0.0%)
Density matrix formation    ....       0.044 sec  (  0.3%)
Total Energy calculation    ....       0.003 sec  (  0.0%)
Population analysis         ....       0.072 sec  (  0.5%)
Orbital Transformation      ....       0.025 sec  (  0.2%)
Orbital Orthonormalization  ....       0.000 sec  (  0.0%)
DIIS solution               ....       0.147 sec  (  1.0%)
  MO trafo                  ....       0.000 sec  (  0.0 % of DIIS)
  Orb grad                  ....       0.000 sec  (  0.0 % of DIIS)
  Energy W gradient         ....       0.000 sec  (  0.0 % of DIIS)
  DIIS error                ....       0.019 sec  ( 12.7 % of DIIS)
  DIIS work                 ....       0.114 sec  ( 77.2 % of DIIS)
  Form Q                    ....       0.000 sec  (  0.0 % of DIIS)
  Form QpQm                 ....       0.000 sec  (  0.0 % of DIIS)
  Exp/Cayley                ....       0.000 sec  (  0.0 % of DIIS)
  Orb update                ....       0.000 sec  (  0.0 % of DIIS)
  Wake-sleep                ....       0.002 sec  (  1.1 % of DIIS)
SOSCF solution              ....       0.020 sec  (  0.1%)
  MO trafo                  ....       0.015 sec  ( 75.3 % of SOSCF)
  Orb grad                  ....       0.000 sec  (  0.5 % of SOSCF)
  Rot update                ....       0.000 sec  (  0.1 % of SOSCF)
  Step                      ....       0.005 sec  ( 23.8 % of SOSCF)
Finished LeanSCF after  15.1 sec

Maximum memory used throughout the entire LEANSCF-calculation: 22.5 MB


-------------------------------------------------------------------------------
                          DFT DISPERSION CORRECTION                            
                                                                               
                                DFTD4 V3.4.0                                   
-------------------------------------------------------------------------------
The R2SCAN3C composite method is recognized
Using three-body term ABC
Active option DFTDOPT                   ...         5   

-------------------------   ----------------
Dispersion correction           -0.005217915
-------------------------   ----------------

------------------   -----------------
gCP correction             0.007340193
------------------   -----------------

-------------------------   --------------------
FINAL SINGLE POINT ENERGY      -326.813563789457
-------------------------   --------------------


------------------------------------------------------------------------------
                              ORCA PROPERTY CALCULATIONS
------------------------------------------------------------------------------

GBWName                                 ... sp.gbw
Number of atoms                         ...     17
Number of basis functions               ...    202
Max core memory                         ...   1024 MB

Electric properties:
Dipole moment                           ... YES
Quadrupole moment                       ...  NO
Static polarizability (Dipole/Dipole)   ...  NO
Static polarizability (Dipole/Quad.)    ...  NO
Static polarizability (Quad./Quad.)     ...  NO
Static polarizability (Velocity)        ...  NO

Atomic electric properties:
Dipole moment                           ...  NO
Quadrupole moment                       ...  NO
Static polarizability                   ...  NO

Choice of electric origin               ... Center of mass
Position of electric origin             ...     0.000010    -0.000002     0.000002

General magnetic properties:
Magnetizability                         ...  NO

EPR properties:
g-Tensor (aka g-matrix)                 ...  NO
Zero-Field splitting spin-orbit         ...  NO
Zero-field splitting spin-spin          ...  NO
Hyperfine couplings                     ...  NO (   0 nuclei)
Quadrupole couplings                    ...  NO (   0 nuclei)
Contact density                         ...  NO (   0 nuclei)

NMR properties:
Chemical shifts                         ...  NO (   0 nuclei)
Spin-rotation constants                 ...  NO (   0 nuclei)
Spin-spin couplings                     ...  NO (   0 nuclei,    0 pairs)

Choice of magnetic origin               ... GIAO
Position of magnetic origin             ...     0.000000     0.000000     0.000000

Properties with geometric perturbations:
SCF Hessian                             ...  NO
IR spectrum                             ...  NO
VCD spectrum                            ...  NO
X-ray spectroscopy properties:
SCF XES/XAS/RIXS spectra                ...  NO


-------------
DIPOLE MOMENT
-------------

Method             : SCF
Type of density    : Electron Density
Multiplicity       :   1
Irrep              :   0
Energy             :  -326.8156860673330470 Eh
Relativity type    : 
Basis              : AO
                                X                 Y                 Z
Electronic contribution:     -6.096016897      -1.733286815      -0.984206193
Nuclear contribution   :      5.949249247       2.424395353       0.986335166
                        -----------------------------------------
Total Dipole Moment    :     -0.146767650       0.691108537       0.002128973
                        -----------------------------------------
Magnitude (a.u.)       :      0.706524087
Magnitude (Debye)      :      1.795841512



--------------------
Rotational spectrum 
--------------------
 
Rotational constants in cm-1:             0.157831             0.051394             0.041991 
Rotational constants in MHz :          4731.660834          1540.738955          1258.848460 

Dipole components along the rotational axes: 
x,y,z [a.u.] :     0.125215     0.695289     0.008429 
x,y,z [Debye]:     0.318270     1.767284     0.021424 

 

Dipole moment calculation done in   0.0 sec 

Maximum memory used throughout the entire PROP-calculation: 13.2 MB

--------------------------------
SUGGESTED CITATIONS FOR THIS RUN
--------------------------------

Below you find a list of papers that are relevant to this ORCA run
We neither can nor want to force you to cite these papers, but we appreciate if you do
You receive ORCA, which is the product of decades of hard work by many enthusiastic individuals, for free
The only thing we kindly ask in return is that you cite our papers,
We deeply appreciate it, if you show your appreciation for ORCA by not just citing the generic ORCA reference.

Please note that relegating all ORCA citations to the supporting information does *not* help us.
SI sections are not indexed - citations you put there will not count into any citation statistics
But we need these citations in order to attract the funding resources that allow us to do what we are doing

Therefore, if you are a happy ORCA user, please consider citing a few of the papers listed below in the main body of your paper

In addition to the list printed below, the program has created the file sp.bibtex that contains the list in bibtex format
You can import this file easily into all common literature databanks and citation aid programs


List of essential papers. We consider these as the minimum necessary citations

  1. Neese,F.
     Software update: the ORCA program system, version 5.0
     WIRES Comput. Molec. Sci., 2022 12(1)e1606
     doi.org/10.1002/wcms.1606
  2. Grimme,S.; Hansen,A.; Ehlert,S.; Mewes,J.
     r2SCAN-3c: A 'Swiss army knife' composite electronic-structure method
     J. Chem. Phys., 2021 154 064103
     doi.org/10.1063/5.0040021

List of papers to cite with high priority. The work reported in these papers was absolutely
necessary for this run to complete.
Our perspective: the developers of density functionals and basis sets usually get cited in chemistry papers
Good! But without the algorithms to do something with them, the functionals or basis sets would not do anything.
Hence, in our opinion, the algorithm design and method developments papers are equally worthy of getting cited

  1. Neese,F.
     An improvement of the resolution of the identity approximation for the formation of the Coulomb matrix
     J. Comp. Chem., 2003 24(14)1740-1747
     doi.org/10.1002/jcc.10318
  2. Neese,F.
     The SHARK Integral Generation and Digestion System
     J. Comp. Chem., 2022  1-16
     doi.org/10.1002/jcc.26942
  3. Lehtola,S.; Steigemann,C.; Oliveira,M.; Marques,M.
     Recent developments in Libxc - A comprehensive library of functionals for density functional theory
     Software X, 2018 7 
     doi.org/10.1016/j.softx.2017.11.002
  4. Caldeweyher,E.; Bannwarth,C.; Grimme,S.
     Extension of the D3 dispersion coefficient model
     J. Chem. Phys., 2017 147 034112
     doi.org/10.1063/1.4993215
  5. Caldeweyher,E.; Ehlert,S.; Hansen,A.; Neugebauer,H.; Spicher,S.; Bannwarth,C.; Grimme,S.
     A generally applicable atomic-charge dependent London dispersion correction
     J. Chem. Phys., 2019 150 154122
     doi.org/10.1063/1.5090222
  6. Caldeweyher,E.; Mewes,J.; Ehlert,S.; Grimme,S.
     Extension and evaluation of the D4 London-dispersion model for periodic systems
     Phys. Chem. Chem. Phys., 2020 22(16)8499-8512
     doi.org/10.1039/D0CP00502A
  7. Wittmann,L.; Gordiy,I.; Friede,M.; Helmich-Paris,B.; Grimme,S.; Hansen,A.; Bursch,M.
     Extension of the D3 and D4 London Dispersion Corrections to the full Actinides Series
     Phys. Chem. Chem. Phys., 2024 26(32)21379-21394
     doi.org/https://doi.org/10.1039/D4CP01514B 

List of suggested additional citations. These are papers that are important in the 'surrounding' of 
of this run, or papers that preceded the highly important papers. If you like your results we are grateful for a citation.

  1. Neese,F.
     The ORCA program system
     WIRES Comput. Molec. Sci., 2012 2(1)73-78
     doi.org/10.1002/wcms.81
  2. Neese,F.
     Software update: the ORCA program system, version 4.0
     WIRES Comput. Molec. Sci., 2018 8(1)1-6
     doi.org/10.1002/wcms.1327
  3. Neese,F.; Wennmohs,F.; Becker,U.; Riplinger,C.
     The ORCA quantum chemistry program package
     J. Chem. Phys., 2020 152 Art. No. L224108
     doi.org/10.1063/5.0004608

List of optional additional citations

  1. Neese,F.
     Approximate second-order SCF convergence for spin unrestricted wavefunctions
     Chem. Phys. Lett., 2000 325(1-3)93-98
     doi.org/10.1016/s0009-2614(00)00662-x

Timings for individual modules:

Sum of individual times          ...       16.370 sec (=   0.273 min)
Startup calculation              ...        1.014 sec (=   0.017 min)   6.2 %
SCF iterations                   ...       15.281 sec (=   0.255 min)  93.3 %
Property calculations            ...        0.075 sec (=   0.001 min)   0.5 %
                             ****ORCA TERMINATED NORMALLY****
TOTAL RUN TIME: 0 days 0 hours 0 minutes 16 seconds 657 msec
