24
 energy: -2331.544178034229 gnorm: 0.043638759049 xtb: 6.7.1 (edcfbbe)
C            3.57612453838468       -1.48421704055770       -0.06444707252856
C            4.68021470787393       -0.60684454116891       -0.58994154206142
C            4.58213394193046        0.70168365841093       -0.77849284014497
C            3.36692939459198        1.52761159707693       -0.45278934580064
C            2.46647734289296        0.69434436210768        0.44434108639690
H            2.95519453140952        0.59349886996299        1.42293991393054
C            2.27795502390942       -0.69940186210992       -0.15218098686744
H            2.01005981599071       -0.59358546096303       -1.21236202043723
C            1.03116071285693       -1.20379435763343        0.53105832403533
O            0.65689147209109       -2.31531504072598        0.74362486482952
N            0.30997742183736       -0.03941336831747        0.86287313048236
C            1.05744647376858        1.14648467400804        0.74133965632851
O            0.61627908307309        2.24242277859368        0.90373733520047
S           -1.29213521227258       -0.07029074803115        1.41033739382496
C           -2.17508592936384        0.00529718900235       -0.19897800478817
Cl          -3.88868555292318       -0.07483277603316        0.20937500639278
Cl          -1.82376336860816        1.51610656377183       -1.06758264707307
Cl          -1.73152392036728       -1.36292988990395       -1.24527498625181
H            3.78562328217751       -1.77133696548493        0.97023269642994
H            3.51765724445877       -2.40346082116504       -0.64955871658784
H            5.60238098248256       -1.11624039589464       -0.82918797956744
H            5.41918094610138        1.24991424895387       -1.18580300162546
H            3.66454839642386        2.45309798288703        0.04283303631898
H            2.84546090076090        1.80581459890020       -1.37350947710864
24
 energy: -2331.546986071967 gnorm: 0.014117469796 xtb: 6.7.1 (edcfbbe)
C            3.57959693619698       -1.48978903106560       -0.06438312049942
C            4.68936711780448       -0.61066630287608       -0.58932323888240
C            4.58760480328830        0.70614693626333       -0.78440303328406
C            3.36863221092381        1.53260279177827       -0.45065309208753
C            2.46724686948738        0.69712970815920        0.43991062431892
H            2.95644166014284        0.58942166826581        1.42059146405973
C            2.28423539064924       -0.70368079324841       -0.14058851024324
H            2.00665975689099       -0.59221937896021       -1.20074554963417
C            1.03646406069247       -1.21292723390464        0.54060064080210
O            0.67750919256300       -2.33807211528455        0.75642848261526
N            0.29888230123747       -0.03904136826417        0.86829867834916
C            1.05995164113863        1.15618640459517        0.74708437357357
O            0.63487053826018        2.26673173135256        0.91634989876065
S           -1.31339811744532       -0.07130019404403        1.40700066588770
C           -2.18106038586315        0.00693428194616       -0.21732580128384
Cl          -3.89315941415187       -0.07450526296568        0.24894456796445
Cl          -1.84817574106420        1.52237738935018       -1.10538094092136
Cl          -1.75784809213407       -1.36806752238981       -1.28148080937724
H            3.78475554324586       -1.78888864128811        0.97152239691760
H            3.51708047000069       -2.41254860122404       -0.64855061813754
H            5.62025794498202       -1.11414303152544       -0.83215416390357
H            5.43230099767118        1.24970157539033       -1.19679619117672
H            3.66326052672579        2.46189108607580        0.04544349527942
H            2.83902656428806        1.82133930034368       -1.36780625167568
24
 energy: -2331.547515225798 gnorm: 0.008540704434 xtb: 6.7.1 (edcfbbe)
C            3.58578677137106       -1.49247350274075       -0.06345633304016
C            4.69730073614248       -0.61183559547793       -0.58786547576544
C            4.59293654055546        0.70802637252284       -0.78705195803503
C            3.37327497550325        1.53470330525519       -0.44779569371120
C            2.47551980871163        0.69732156218459        0.44143640078168
H            2.96132823974186        0.58958451263848        1.42584707187067
C            2.29331362188895       -0.70520823297186       -0.13564881777259
H            2.00515750281626       -0.59316768604312       -1.19490502094109
C            1.04840271745274       -1.21725619934489        0.54755683800034
O            0.70180228162403       -2.34665755324179        0.76836592901782
N            0.29729703549814       -0.03797241856956        0.86647960659919
C            1.06916931117362        1.16123130172390        0.74755427360021
O            0.65689364680425        2.27734635904997        0.92079216720422
S           -1.32564337043293       -0.06989663362172        1.38884673066700
C           -2.21147506912409        0.00653338868341       -0.22464020196053
Cl          -3.92974695800622       -0.07189861495637        0.26325972233094
Cl          -1.87912122397274        1.52203493692663       -1.12267595528560
Cl          -1.79324093630919       -1.37226165865911       -1.29571504023597
H            3.79079403063772       -1.80318010022220        0.97131971267333
H            3.51926409698566       -2.41498656033562       -0.65012189631078
H            5.63341361244024       -1.10904133772590       -0.83361681562628
H            5.44156834202826        1.24632056301581       -1.20415993365696
H            3.66668878600627        2.46448980168944        0.05101386512502
H            2.83981966913786        1.83285747011659       -1.36223461016877
24
 energy: -2331.547593119730 gnorm: 0.003679980901 xtb: 6.7.1 (edcfbbe)
C            3.58814051805073       -1.49257465518372       -0.06358663938128
C            4.69954734847539       -0.61158812387079       -0.58675460035588
C            4.59469226263293        0.70795088596736       -0.78611801063102
C            3.37588995659432        1.53435118455916       -0.44500877576185
C            2.47704745791556        0.69682830342624        0.44267037020902
H            2.96003719998104        0.59105067820289        1.42886148378192
C            2.29566915222542       -0.70570216990122       -0.13461157265110
H            2.00597441998693       -0.59394419117001       -1.19345312823577
C            1.04975635801737       -1.21775250235113        0.54600535298922
O            0.70875237754007       -2.34594113820526        0.77338903869861
N            0.29392705170818       -0.03689816692933        0.86146816534378
C            1.06986002347174        1.16251291554746        0.74263278736029
O            0.66212248559841        2.27846968313238        0.91696061537028
S           -1.32854545063152       -0.06866983925216        1.38826218735964
C           -2.21142271400542        0.00651586919281       -0.22517873256042
Cl          -3.93129277866255       -0.07033949632224        0.26966276355029
Cl          -1.89622914135770        1.52340329054046       -1.12973964371498
Cl          -1.81309038449562       -1.37883161092953       -1.29853042325567
H            3.79392922778019       -1.80817812430839        0.96961955342972
H            3.52163919080924       -2.41316541640013       -0.65349939118918
H            5.63659954272117       -1.10606919379738       -0.83339286872093
H            5.44369575629202        1.24400261630391       -1.20474479756101
H            3.67072402993156        2.46256491944646        0.05615067360141
H            2.84308125778063        1.83661780610563       -1.35847933790280
24
 energy: -2331.547624264255 gnorm: 0.001649076057 xtb: 6.7.1 (edcfbbe)
C            3.58947591435508       -1.49285988787946       -0.06442980938836
C            4.70052423826173       -0.61145285003694       -0.58596847725357
C            4.59597507832583        0.70757445608870       -0.78459755760509
C            3.37839085427909        1.53421885369891       -0.44302525073347
C            2.47742050629616        0.69671549536571        0.44298082013797
H            2.95803790708712        0.59224948476941        1.43015731675131
C            2.29701252846794       -0.70560917448825       -0.13476202952830
H            2.00840323389039       -0.59306148302969       -1.19347560920390
C            1.05065227469800       -1.21755610363802        0.54486981679291
O            0.71070917294553       -2.34423381582035        0.77621876529086
N            0.29210537060297       -0.03586853811492        0.85432459112675
C            1.06953677435875        1.16316485067106        0.73888211608562
O            0.66211950589101        2.27855934577388        0.91131664307207
S           -1.32925893715789       -0.06738272886294        1.38396123768238
C           -2.21665170672643        0.00580408744087       -0.22452135109966
Cl          -3.93657984171604       -0.06958942073136        0.27748684272861
Cl          -1.90059531209333        1.52060422970791       -1.13109982059742
Cl          -1.81956295467749       -1.38156142527903       -1.29514627834516
H            3.79532643315137       -1.81075221821675        0.96765893299886
H            3.52353424211135       -2.41160748844430       -0.65706152734611
H            5.63733652184642       -1.10517092889717       -0.83276478079176
H            5.44489462889166        1.24295021689656       -1.20292890878917
H            3.67485617538345        2.46052714089330        0.06044540575267
H            2.84684345523953        1.83895147121157       -1.35593549460684
24
 energy: -2331.547648806964 gnorm: 0.002772476191 xtb: 6.7.1 (edcfbbe)
C            3.59129591099526       -1.49347251132459       -0.06634372238288
C            4.70275185811824       -0.61172926844641       -0.58421819130915
C            4.59939925688737        0.70709204336347       -0.78115408616676
C            3.38395631798460        1.53485842431150       -0.43932049776914
C            2.47827333421201        0.69687908645110        0.44264196437768
H            2.95362081027471        0.59320273755832        1.43221004834339
C            2.29915038549808       -0.70487867567749       -0.13627653749655
H            2.01314140979485       -0.58968483549108       -1.19522343904536
C            1.05187252080301       -1.21727031825258        0.54166451422806
O            0.71262567052643       -2.34186715527762        0.78078251383636
N            0.28986560703363       -0.03357716559707        0.84101756829952
C            1.06887665022455        1.16508778997799        0.73071536799903
O            0.66079520558484        2.28045719987210        0.89959960561526
S           -1.32808126240570       -0.06436559571516        1.37994635596860
C           -2.22409437827817        0.00298911251881       -0.21983027795446
Cl          -3.94427057199643       -0.06837886141957        0.29018472683052
Cl          -1.91128757377821        1.51137286479043       -1.13491575794771
Cl          -1.83432728926102       -1.38654801362261       -1.28834921022689
H            3.79608553808491       -1.81548241846823        0.96417242673411
H            3.52534078227191       -2.40900177940047       -0.66365777675780
H            5.63888526866843       -1.10552943668075       -0.83122235218200
H            5.44873208471047        1.24210332660001       -1.19782158887758
H            3.68283791816798        2.45736026165467        0.06942573742166
H            2.85506261192053        1.84499692098499       -1.35144043000015
24
 energy: -2331.547658882178 gnorm: 0.002012304999 xtb: 6.7.1 (edcfbbe)
C            3.59133137191076       -1.49347667772875       -0.06762829781395
C            4.70406914600827       -0.61206351162185       -0.58343575263265
C            4.60175100729088        0.70711651811097       -0.77899007737067
C            3.38655212532501        1.53534708405330       -0.43731054938227
C            2.47832169566021        0.69712883386198        0.44210079776122
H            2.95097452070791        0.59271304599201        1.43284464898813
C            2.29950552227374       -0.70422252702060       -0.13817955245203
H            2.01465453860230       -0.58816585951809       -1.19728962425970
C            1.05173612796592       -1.21612047555072        0.53921718137285
O            0.71232883230846       -2.34038242043475        0.78088731343098
N            0.28921075782873       -0.03237292075522        0.83556632301408
C            1.06818175780258        1.16565044713830        0.72628112419729
O            0.65943380621455        2.28137821776073        0.89351077056205
S           -1.32696095918834       -0.06284065020226        1.37882628392903
C           -2.22615046470951        0.00163217229038       -0.21875418798274
Cl          -3.94491129455436       -0.06824638656417        0.29795636128097
Cl          -1.91561352476646        1.50844076916328       -1.13654420723137
Cl          -1.84059915446830       -1.39207021006876       -1.28299770497762
H            3.79472825618941       -1.81701907011729        0.96269071137649
H            3.52508734858667       -2.40824247501926       -0.66609891491856
H            5.64010948378516       -1.10658010770634       -0.82998478130102
H            5.45176895666048        1.24236794279056       -1.19434898328028
H            3.68568957176016        2.45649644417867        0.07375788065144
H            2.85930969415780        1.84814567446803       -1.34948891584621
24
 energy: -2331.547672303268 gnorm: 0.001383484282 xtb: 6.7.1 (edcfbbe)
C            3.59095430560663       -1.49343092104125       -0.07038355576580
C            4.70681531434894       -0.61280149010307       -0.58172248294317
C            4.60706057080288        0.70729599010776       -0.77423315423025
C            3.39200681253194        1.53670474126182       -0.43343839760313
C            2.47878712609924        0.69806848598602        0.44034829600297
H            2.94624230660951        0.59115809562354        1.43328141490782
C            2.30022808969088       -0.70260618124193       -0.14250147330364
H            2.01708492080444       -0.58494565113498       -1.20185278953957
C            1.05151543682613       -1.21311361806597        0.53390275286152
O            0.71182296957668       -2.33717383680903        0.77880571621020
N            0.28882161152850       -0.02979588019668        0.82713058700406
C            1.06766204370892        1.16699573997673        0.71842560664135
O            0.65783171740768        2.28352820446238        0.88181938029186
S           -1.32424293955083       -0.05961032329192        1.37892040373584
C           -2.23134399443148       -0.00221970644807       -0.21490570651008
Cl          -3.94723330165552       -0.06780368778526        0.31339728447930
Cl          -1.92549943327954        1.49940021530442       -1.14223173409981
Cl          -1.85478195262326       -1.40211327084339       -1.27404568803331
H            3.79097615128750       -1.81969289344175        0.95991079999013
H            3.52436008487073       -2.40721567914207       -0.67049652683738
H            5.64277066254224       -1.10893081635747       -0.82704061455857
H            5.45902480043328        1.24283368918760       -1.18626655420065
H            3.69126918096315        2.45553742016699        0.08187279259930
H            2.86837885760546        1.85454556701692       -1.34610644373361
24
 energy: -2331.547681385288 gnorm: 0.001992273878 xtb: 6.7.1 (edcfbbe)
C            3.58992326111989       -1.49317199045127       -0.07364765970896
C            4.70986778086014       -0.61364077493536       -0.57889381286029
C            4.61385674975611        0.70755354116710       -0.76775353008833
C            3.39886439224189        1.53879314956740       -0.42933319050426
C            2.47960267617424        0.69981475722544        0.43703856328519
H            2.94133187700449        0.58873741011413        1.43235007701875
C            2.30090450620125       -0.70022898079011       -0.14837256391766
H            2.01963826363511       -0.58059018965804       -1.20814411654057
C            1.05107897011192       -1.20956536490448        0.52717959242677
O            0.71110264216384       -2.33381113716212        0.77214457461530
N            0.28921082293792       -0.02684884139447        0.81952220727868
C            1.06755242541841        1.16910673426165        0.70936519878766
O            0.65693250551239        2.28642667766940        0.86759011072317
S           -1.32107364711372       -0.05609567263332        1.37965875528043
C           -2.23927209165095       -0.00748337482051       -0.20950886708827
Cl          -3.95105426917334       -0.06742305320259        0.33114873427885
Cl          -1.93743040546722        1.48809234588580       -1.14767417017085
Cl          -1.87241796848656       -1.41510636695659       -1.26181470365056
H            3.78538617497443       -1.82186896287384        0.95694405306100
H            3.52373735766677       -2.40609505455258       -0.67532213192238
H            5.64557441123618       -1.11166037234915       -0.82230448505105
H            5.46877120493250        1.24284674559897       -1.17464718025243
H            3.69806919238467        2.45526965716801        0.09045280027597
H            2.88035731224286        1.86156375203159       -1.34338542716923
24
 energy: -2331.547688307711 gnorm: 0.001221861536 xtb: 6.7.1 (edcfbbe)
C            3.58921845114328       -1.49269123527218       -0.07515074616084
C            4.71121211884798       -0.61376921252747       -0.57651949865519
C            4.61731802175629        0.70762393232428       -0.76372605803543
C            3.40216453375326        1.53969539918011       -0.42805523333239
C            2.48001381420224        0.70084396598440        0.43467545746059
H            2.93922737377710        0.58778519178812        1.43099622095559
C            2.30114523422750       -0.69875562622375       -0.15197483222076
H            2.02091216242468       -0.57882500185065       -1.21197475966176
C            1.05055822154674       -1.20817118045160        0.52262843260912
O            0.71109433529428       -2.33290537527802        0.76502930155903
N            0.28926181365773       -0.02563189138137        0.81740979264195
C            1.06783890766341        1.17087024018322        0.70522611712231
O            0.65746858373369        2.28831629770031        0.86048600142849
S           -1.32032258439809       -0.05489161244872        1.38091722508898
C           -2.24407931275748       -0.01037054832405       -0.20584594744160
Cl          -3.95332528761392       -0.06661901611191        0.34081001478610
Cl          -1.94273170077525        1.48187860433680       -1.14969809738537
Cl          -1.88168678335791       -1.42144474596376       -1.25515927261475
H            3.78200799123054       -1.82226904424542        0.95564252418618
H            3.52410143225803       -2.40509785247722       -0.67766489022608
H            5.64699328862577       -1.11215863135763       -0.81813585963484
H            5.47408474605161        1.24208553125882       -1.16727694208204
H            3.70094804662169        2.45531742435610        0.09342629886429
H            2.88709220931780        1.86379926972624       -1.34347054744594
24
 energy: -2331.547691442153 gnorm: 0.000542781033 xtb: 6.7.1 (edcfbbe)
C            3.58878651901121       -1.49225698015628       -0.07609277137929
C            4.71215375143109       -0.61355401951649       -0.57402676739201
C            4.61955648310285        0.70782112167314       -0.76079293930928
C            3.40406700333491        1.54029400791790       -0.42830830234061
C            2.48015097409127        0.70147293786502        0.43249022227611
H            2.93825656049358        0.58755091271237        1.42922418554132
C            2.30114446928399       -0.69769669798962       -0.15465578637433
H            2.02212820073295       -0.57773592348832       -1.21483841336160
C            1.05038931101466       -1.20806407148917        0.51931696429548
O            0.71084490142343       -2.33329247214141        0.75820895770407
N            0.28931756951363       -0.02540343694185        0.81687238602653
C            1.06820550192044        1.17219895633740        0.70282980034935
O            0.65761061511488        2.28948156720452        0.85628306383935
S           -1.32002141139655       -0.05479086530369        1.38217181211770
C           -2.24702462029113       -0.01218036667190       -0.20265977581749
Cl          -3.95477884815951       -0.06488039418975        0.34691196008119
Cl          -1.94503443887385        1.47814927790536       -1.14957761993031
Cl          -1.88855558742824       -1.42538566748933       -1.25035012865353
H            3.77923455530673       -1.82253576443315        0.95485369162355
H            3.52467901378139       -2.40407327561261       -0.67942778814271
H            5.64837211401371       -1.11195170222805       -0.81322414583596
H            5.47786074272627        1.24162702183470       -1.16138891618946
H            3.70185523700868        2.45584549920215        0.09374227730171
H            2.89131791991206        1.86397539282278       -1.34496569658420
24
 energy: -2331.547691442153 gnorm: 0.000542781033 xtb: 6.7.1 (edcfbbe)
C            3.58878651901121       -1.49225698015628       -0.07609277137929
C            4.71215375143109       -0.61355401951649       -0.57402676739201
C            4.61955648310285        0.70782112167314       -0.76079293930928
C            3.40406700333491        1.54029400791790       -0.42830830234061
C            2.48015097409127        0.70147293786502        0.43249022227611
H            2.93825656049358        0.58755091271237        1.42922418554132
C            2.30114446928399       -0.69769669798962       -0.15465578637433
H            2.02212820073295       -0.57773592348832       -1.21483841336160
C            1.05038931101466       -1.20806407148917        0.51931696429548
O            0.71084490142343       -2.33329247214141        0.75820895770407
N            0.28931756951363       -0.02540343694185        0.81687238602653
C            1.06820550192044        1.17219895633740        0.70282980034935
O            0.65761061511488        2.28948156720452        0.85628306383935
S           -1.32002141139655       -0.05479086530369        1.38217181211770
C           -2.24702462029113       -0.01218036667190       -0.20265977581749
Cl          -3.95477884815951       -0.06488039418975        0.34691196008119
Cl          -1.94503443887385        1.47814927790536       -1.14957761993031
Cl          -1.88855558742824       -1.42538566748933       -1.25035012865353
H            3.77923455530673       -1.82253576443315        0.95485369162355
H            3.52467901378139       -2.40407327561261       -0.67942778814271
H            5.64837211401371       -1.11195170222805       -0.81322414583596
H            5.47786074272627        1.24162702183470       -1.16138891618946
H            3.70185523700868        2.45584549920215        0.09374227730171
H            2.89131791991206        1.86397539282278       -1.34496569658420
