
                                 *****************
                                 * O   R   C   A *
                                 *****************

                                            #,                                       
                                            ###                                      
                                            ####                                     
                                            #####                                    
                                            ######                                   
                                           ########,                                 
                                     ,,################,,,,,                         
                               ,,#################################,,                 
                          ,,##########################################,,             
                       ,#########################################, ''#####,          
                    ,#############################################,,   '####,        
                  ,##################################################,,,,####,       
                ,###########''''           ''''###############################       
              ,#####''   ,,,,##########,,,,          '''####'''          '####       
            ,##' ,,,,###########################,,,                        '##       
           ' ,,###''''                  '''############,,,                           
         ,,##''                                '''############,,,,        ,,,,,,###''
      ,#''                                            '''#######################'''  
     '                                                          ''''####''''         
             ,#######,   #######,   ,#######,      ##                                
            ,#'     '#,  ##    ##  ,#'     '#,    #''#        ,####,   ,####,        
            ##       ##  ##   ,#'  ##            #'  '#       #'       #'  '#        
            ##       ##  #######   ##           ,######,      #####,   #    #        
            '#,     ,#'  ##    ##  '#,     ,#' ,#      #,     #,   #   #,  ,#        
             '#######'   ##     ##  '#######'  #'      '#     '####' # '####'        



                #########################################################
                #                        -***-                          #
                #          Department of theory and spectroscopy        #
                #                                                       #
                #                      Frank Neese                      #
                #                                                       #
                #     Directorship, Architecture, Infrastructure        #
                #                    SHARK, DRIVERS                     #
                #        Core code/Algorithms in most modules           #
                #                                                       #
                #        Max Planck Institute fuer Kohlenforschung      #
                #                Kaiser Wilhelm Platz 1                 #
                #                 D-45470 Muelheim/Ruhr                 #
                #                      Germany                          #
                #                                                       #
                #                  All rights reserved                  #
                #                        -***-                          #
                #########################################################


                         Program Version 6.0.1  -  RELEASE   -


 With contributions from (in alphabetic order):
[Max-Planck-Institut fuer Kohlenforschung]                               
  Daniel Aravena         : Magnetic Suceptibility                        
  Michael Atanasov       : Ab Initio Ligand Field Theory (pilot matlab implementation)
  Alexander A. Auer      : GIAO ZORA, VPT2 properties, NMR spectrum      
  Ute Becker             : All parallelization in ORCA, NUMFREQ, NUMCALC 
  Giovanni Bistoni       : ED, misc. LED, open-shell LED, HFLD           
  Martin Brehm           : Molecular dynamics                            
  Dmytro Bykov           : pre 5.0 version of the SCF Hessian            
  Marcos Casanova-Páez   : Triplet and SCS-CIS(D). UHF-(DLPNO)-IP/EA/STEOM-CCSD. UHF-CVS-IP/STEOM-CCSD   
  Vijay G. Chilkuri      : MRCI spin determinant printing, contributions to CSF-ICE 
  Pauline Colinet        : FMM embedding                                 
  Dipayan Datta          : RHF DLPNO-CCSD density                        
  Achintya Kumar Dutta   : EOM-CC, STEOM-CC                              
  Nicolas Foglia         : Exact transition moments, OPA infrastructure, MCD improvements    
  Dmitry Ganyushin       : Spin-Orbit,Spin-Spin,Magnetic field MRCI      
  Miquel Garcia-Rates    : C-PCM and meta-GGA Hessian, CCSD/C-PCM, Gaussian charge scheme 
  Tiago L. C. Gouveia    : GS-ROHF, GS-ROCIS                             
  Yang Guo               : DLPNO-NEVPT2, F12-NEVPT2, CIM, IAO-localization        
  Andreas Hansen         : Spin unrestricted coupled pair/coupled cluster methods 
  Ingolf Harden          : AUTO-CI MPn and infrastructure                
  Benjamin Helmich-Paris : MC-RPA, TRAH-(SCF,CASSCF), AVAS, COSX integrals, SCF dyn. polar. 
  Lee Huntington         : MR-EOM, pCC                                   
  Robert Izsak           : Overlap fitted RIJCOSX, COSX-SCS-MP3, EOM     
  Riya Kayal             : Wick's Theorem for AUTO-CI, AUTO-CI UHF-CCSDT 
  Emily Kempfer          : AUTO-CI, RHF CISDT and CCSDT                  
  Christian Kollmar      : KDIIS, OOCD, Brueckner-CCSD(T), CCSD density, CASPT2, CASPT2-K, improved NEVPT2 
  Axel Koslowski         : Symmetry handling                             
  Simone Kossmann        : meta-GGA functionals, TD-DFT gradient, OOMP2, (MP2 Hessian; deprecated post 5.0) 
  Lucas Lang             : DCDCAS                                        
  Marvin Lechner         : AUTO-CI (C++ implementation), FIC-MRCC        
  Spencer Leger          : CASSCF response                               
  Dagmar Lenk            : GEPOL surface, SMD, ORCA-2-JSON               
  Dimitrios Liakos       : Extrapolation schemes; Compound Job, initial MDCI parallelization 
  Dimitrios Manganas     : Further ROCIS development; embedding schemes. LFT, Crystal Embedding 
  Dimitrios Pantazis     : SARC Basis sets                               
  Anastasios Papadopoulos: AUTO-CI, single reference methods and gradients 
  Taras Petrenko         : pre 6.0 DFT Hessian and TD-DFT gradient, (ASA, deprecated), ECA, 1-Electron XAS/XES, NRVS 
  Peter Pinski           : DLPNO-MP2, DLPNO-MP2 Gradient                 
  Christoph Reimann      : Effective Core Potentials                     
  Marius Retegan         : Local ZFS, SOC                                
  Christoph Riplinger    : Optimizer, TS searches, QM/MM, DLPNO-CCSD(T), (RO)-DLPNO pert. Triples 
  Michael Roemelt        : Original ROCIS implementation                 
  Masaaki Saitow         : Open-shell DLPNO-CCSD energy and density      
  Barbara Sandhoefer     : DKH picture change effects                    
  Kantharuban Sivalingam : CASSCF convergence/infrastructure, NEVPT2 and variants, FIC-MRCI 
  Bernardo de Souza      : ESD, SOC TD-DFT                               
  Georgi L. Stoychev     : AutoAux, RI-MP2 NMR, DLPNO-MP2 response, X2C  
  Van Anh Tran           : RI-MP2 g-tensors                              
  Willem Van den Heuvel  : Paramagnetic NMR                              
  Zikuan Wang            : NOTCH, Electric field optimization            
  Frank Wennmohs         : Technical directorship and infrastructure     
  Hang Xu                : AUTO-CI-Response properties                   
                                                                         
[FACCTs GmbH]                                                            
  Markus Bursch, Miquel Garcia-Rates, Christoph Riplinger, Bernardo de Souza, Georgi L. Stoychev 
                                                                 
  APM, Basis sets (HGBS, AHGBS, def-TZVP (Ac-Lr), def2-XVPD (La-Lu)), CI-OPT, improved COSX, DLPNO-Multilevel,           
  DOCKER, DRACO, updates on ESD, GOAT, IRC, LR-CPCM, MBIS, meta-GGA TD-DFT gradient, ML-optimized integration grids, 
  MM, NACMEs, nearIR, NEB, NEB-TS, NL-DFT gradient (VV10), 2- and 3-layer-ONIOM, interface openCOSMO-RS, QMMM,   
  Crystal-QMMM, SF, symmetry and pop. for TD-DFT, r2SCAN hybrids, SOLVATOR                                   
                                                                         
[Other institutions]                                                     
  V. Asgeirsson          : NEB                                           
  Christoph Bannwarth    : sTDA-DFT, sTD-DFT, PBEh-3c, B97-3c, D3        
  Sebastian Ehlert       : rSCAN, r2SCAN, r2SCAN-3c, D4, dhf basis sets  
  Marvin Friede          : D4 for Fr, Ra, Ac-Lr                          
  Lars Goerigk           : TD-DFT with DH, B97 family of functionals     
  Stefan Grimme          : VdW corrections, initial TS optimization, DFT functionals, gCP, sTDA/sTD-DF 
  Waldemar Hujo          : DFT-NL                                        
  H. Jonsson             : NEB                                           
  Holger Kruse           : gCP                                           
  Marcel Mueller         : wB97X-3c, vDZP basis set                      
  Hagen Neugebauer       : wr2SCAN                                       
  Tobias Risthaus        : range-separated hybrid DFT                    
  Lukas Wittmann         : regularized MP2, r2SCAN double-hybrids, wr2SCAN        
                                                                         
We gratefully acknowledge several colleagues who have allowed us to      
interface, adapt or use parts of their codes:                            
  Ed Valeev, F. Pavosevic, A. Kumar             : LibInt (2-el integral package), F12 methods 
  Garnet Chan, S. Sharma, J. Yang, R. Olivares  : DMRG                   
  Ulf Ekstrom                                   : XCFun DFT Library      
  Mihaly Kallay                                 : mrcc  (arbitrary order and MRCC methods)
  Frank Weinhold                                : gennbo (NPA and NBO analysis)           
  Simon Mueller                                 : openCOSMO-RS                            
  Christopher J. Cramer and Donald G. Truhlar   : smd solvation model                     
  S Lehtola, MJT Oliveira, MAL Marques          : LibXC Library                           
  Liviu Ungur et al                             : ANISO software                          


 Your calculation uses the libint2 library for the computation of 2-el integrals
 For citations please refer to: http://libint.valeyev.net

 Your ORCA version has been built with support for libXC version: 6.2.2
 For citations please refer to: https://libxc.gitlab.io

 This ORCA versions uses:
   CBLAS   interface :  Fast vector & matrix operations
   LAPACKE interface :  Fast linear algebra routines
   SCALAPACK package :  Parallel linear algebra routines
   Shared memory     :  Shared parallel matrices
   BLAS/LAPACK       :  OpenBLAS 0.3.27  USE64BITINT DYNAMIC_ARCH NO_AFFINITY Zen SINGLE_THREADED
        Core in use  :  Zen
   Copyright (c) 2011-2014, The OpenBLAS Project


Your calculation utilizes the geometrical counterpoise correction gCP
Please cite in your paper:
H.Kruse, S. Grimme J.Chem.Phys., 136, (2012), 154101 
   

Your calculation utilizes the atom-pairwise dispersion correction
based on EEQ partial charges (D4)


================================================================================

----- Orbital basis set information -----
Your calculation utilizes the basis: def2-mTZVPP
   Stefan Grimme, Andreas Hansen, Sebastian Ehlert, and Jan-Michael Mewes 
   J. Chem. Phys. 154, 064103 (2021). DOI: 10.1063/5.0040021

----- AuxJ basis set information -----
Your calculation utilizes the auxiliary basis: def2/J
   F. Weigend, Phys. Chem. Chem. Phys. 8, 1057 (2006).

================================================================================
                                        WARNINGS
                       Please study these warnings very carefully!
================================================================================



WARNING: SCAN, rSCAN, or r2SCAN functional requested.
  ===> : libXC variant has now been activated.



================================================================================
                                       INPUT FILE
================================================================================
NAME = sp.inp
|  1> ! r2scan-3c def2/J RI DEFGRID2 scfconv6 printgap
|  2> %output
|  3>     printlevel normal
|  4> end
|  5> * xyz 0 1
|  6> C 2.4730452995 1.1632886632 -0.3340876078
|  7> C 1.6997559295 -0.0803311953 0.0281812913
|  8> O 2.2515857952 -1.1161272809 0.3190264374
|  9> C 0.2161737441 0.0230024267 0.0046312826
| 10> C -0.4846149059 1.2165238087 -0.1640214099
| 11> C -1.8683184741 1.1838540428 -0.1687423287
| 12> C -2.5038656556 -0.0389862283 -0.0036113104
| 13> N -1.8527313328 -1.1791852338 0.1560247922
| 14> C -0.5359306004 -1.1462235213 0.159784919
| 15> H 2.29511988 1.9383750369 0.4088916482
| 16> H 2.1604931525 1.5341045808 -1.3076165813
| 17> H 3.5345664593 0.9310316734 -0.3565145448
| 18> H 0.0321303342 2.157228997 -0.2817476231
| 19> H -2.4430283469 2.0884822529 -0.2944977546
| 20> H -3.5834660117 -0.1123815633 0.0033400981
| 21> H -0.0286287981 -2.0929554094 0.2903081125
| 22> *
| 23> 
| 24>                          ****END OF INPUT****
================================================================================

                       ****************************
                       * Single Point Calculation *
                       ****************************

---------------------------------
CARTESIAN COORDINATES (ANGSTROEM)
---------------------------------
  C      2.473045    1.163289   -0.334088
  C      1.699756   -0.080331    0.028181
  O      2.251586   -1.116127    0.319026
  C      0.216174    0.023002    0.004631
  C     -0.484615    1.216524   -0.164021
  C     -1.868318    1.183854   -0.168742
  C     -2.503866   -0.038986   -0.003611
  N     -1.852731   -1.179185    0.156025
  C     -0.535931   -1.146224    0.159785
  H      2.295120    1.938375    0.408892
  H      2.160493    1.534105   -1.307617
  H      3.534566    0.931032   -0.356515
  H      0.032130    2.157229   -0.281748
  H     -2.443028    2.088482   -0.294498
  H     -3.583466   -0.112382    0.003340
  H     -0.028629   -2.092955    0.290308

----------------------------
CARTESIAN COORDINATES (A.U.)
----------------------------
  NO LB      ZA    FRAG     MASS         X           Y           Z
   0 C     6.0000    0    12.011    4.673378    2.198297   -0.631334
   1 C     6.0000    0    12.011    3.212073   -0.151804    0.053255
   2 O     8.0000    0    15.999    4.254881   -2.109175    0.602873
   3 C     6.0000    0    12.011    0.408509    0.043468    0.008752
   4 C     6.0000    0    12.011   -0.915789    2.298897   -0.309956
   5 C     6.0000    0    12.011   -3.530610    2.237160   -0.318877
   6 C     6.0000    0    12.011   -4.731620   -0.073673   -0.006824
   7 N     7.0000    0    14.007   -3.501155   -2.228337    0.294844
   8 C     6.0000    0    12.011   -1.012762   -2.166049    0.301950
   9 H     1.0000    0     1.008    4.337148    3.662998    0.772693
  10 H     1.0000    0     1.008    4.082740    2.899038   -2.471037
  11 H     1.0000    0     1.008    6.679363    1.759395   -0.673715
  12 H     1.0000    0     1.008    0.060718    4.076572   -0.532426
  13 H     1.0000    0     1.008   -4.616655    3.946659   -0.556520
  14 H     1.0000    0     1.008   -6.771769   -0.212370    0.006312
  15 H     1.0000    0     1.008   -0.054101   -3.955113    0.548603

--------------------------------
INTERNAL COORDINATES (ANGSTROEM)
--------------------------------
 C      0   0   0     0.000000000000     0.00000000     0.00000000
 C      1   0   0     1.508577328965     0.00000000     0.00000000
 O      2   1   0     1.209123910372   122.00643258     0.00000000
 C      2   1   3     1.487362948705   116.75764554   180.31260640
 C      4   2   1     1.394288977202   124.24423820   351.71267232
 C      5   4   2     1.384097238393   118.86047560   179.97588407
 C      6   5   4     1.387993804648   118.56452559     0.06259703
 N      7   6   5     1.322691711520   123.25786120   359.86423669
 C      8   7   6     1.317218577873   118.09253287     0.11193683
 H      1   2   3     1.088317286661   109.83795286   244.72069952
 H      1   2   3     1.087635946254   110.40778643   124.81082559
 H      1   2   3     1.086864043714   109.23450439     4.25074225
 H      5   4   2     1.079727445115   121.22725954   359.47876689
 H      6   5   4     1.079100580829   120.86659993   179.85510071
 H      7   6   5     1.082114654818   121.15431687   179.75490291
 H      9   8   7     1.081985531606   116.56174002   180.10658249

---------------------------
INTERNAL COORDINATES (A.U.)
---------------------------
 C      0   0   0     0.000000000000     0.00000000     0.00000000
 C      1   0   0     2.850798003585     0.00000000     0.00000000
 O      2   1   0     2.284913052579   122.00643258     0.00000000
 C      2   1   3     2.810708634795   116.75764554   180.31260640
 C      4   2   1     2.634824318457   124.24423820   351.71267232
 C      5   4   2     2.615564723280   118.86047560   179.97588407
 C      6   5   4     2.622928166364   118.56452559     0.06259703
 N      7   6   5     2.499525094381   123.25786120   359.86423669
 C      8   7   6     2.489182370693   118.09253287     0.11193683
 H      1   2   3     2.056621618602   109.83795286   244.72069952
 H      1   2   3     2.055334071828   110.40778643   124.81082559
 H      1   2   3     2.053875387425   109.23450439     4.25074225
 H      5   4   2     2.040389170546   121.22725954   359.47876689
 H      6   5   4     2.039204568722   120.86659993   179.85510071
 H      7   6   5     2.044900343108   121.15431687   179.75490291
 H      9   8   7     2.044656335600   116.56174002   180.10658249

---------------------
BASIS SET INFORMATION
---------------------
There are 4 groups of distinct atoms

 Group   1 Type C   : 11s6p1d contracted to 5s3p1d pattern {62111/411/1}
 Group   2 Type O   : 11s6p2d contracted to 5s3p2d pattern {62111/411/11}
 Group   3 Type N   : 11s6p2d contracted to 5s3p2d pattern {62111/411/11}
 Group   4 Type H   : 4s1p contracted to 2s1p pattern {31/1}

Atom   0C    basis set group =>   1
Atom   1C    basis set group =>   1
Atom   2O    basis set group =>   2
Atom   3C    basis set group =>   1
Atom   4C    basis set group =>   1
Atom   5C    basis set group =>   1
Atom   6C    basis set group =>   1
Atom   7N    basis set group =>   3
Atom   8C    basis set group =>   1
Atom   9H    basis set group =>   4
Atom  10H    basis set group =>   4
Atom  11H    basis set group =>   4
Atom  12H    basis set group =>   4
Atom  13H    basis set group =>   4
Atom  14H    basis set group =>   4
Atom  15H    basis set group =>   4
---------------------------------
AUXILIARY/J BASIS SET INFORMATION
---------------------------------
There are 4 groups of distinct atoms

 Group   1 Type C   : 12s5p4d2f1g contracted to 6s4p3d1f1g pattern {711111/2111/211/2/1}
 Group   2 Type O   : 12s5p4d2f1g contracted to 6s4p3d1f1g pattern {711111/2111/211/2/1}
 Group   3 Type N   : 12s5p4d2f1g contracted to 6s4p3d1f1g pattern {711111/2111/211/2/1}
 Group   4 Type H   : 5s2p1d contracted to 3s1p1d pattern {311/2/1}

Atom   0C    basis set group =>   1
Atom   1C    basis set group =>   1
Atom   2O    basis set group =>   2
Atom   3C    basis set group =>   1
Atom   4C    basis set group =>   1
Atom   5C    basis set group =>   1
Atom   6C    basis set group =>   1
Atom   7N    basis set group =>   3
Atom   8C    basis set group =>   1
Atom   9H    basis set group =>   4
Atom  10H    basis set group =>   4
Atom  11H    basis set group =>   4
Atom  12H    basis set group =>   4
Atom  13H    basis set group =>   4
Atom  14H    basis set group =>   4
Atom  15H    basis set group =>   4

Checking for AutoStart:
The File: sp.gbw exists
Trying to determine its content:
     ... Fine, the file contains calculation information
     ... Fine, the calculation information was read
     ... Fine, the file contains a basis set
     ... Fine, the basis set was read
     ... Fine, the file contains a geometry
     ... Fine, the geometry was read
     ... Fine, the file contains a set of orbitals
     ... Fine, the orbitals can be read
     => possible old guess file was deleted
     => GBW file was renamed to GES file
     => GES file is set as startup file
     => Guess is set to MORead
     ... now leaving AutoStart

------------------------------------------------------------------------------
                             ORCA STARTUP CALCULATIONS
                           -- RI-GTO INTEGRALS CHOSEN --
------------------------------------------------------------------------------
------------------------------------------------------------------------------
                   ___                                                        
                  /   \      - P O W E R E D   B Y -                         
                 /     \                                                     
                 |  |  |   _    _      __       _____    __    __             
                 |  |  |  | |  | |    /  \     |  _  \  |  |  /  |          
                  \  \/   | |  | |   /    \    | | | |  |  | /  /          
                 / \  \   | |__| |  /  /\  \   | |_| |  |  |/  /          
                |  |  |   |  __  | /  /__\  \  |    /   |      \           
                |  |  |   | |  | | |   __   |  |    \   |  |\   \          
                \     /   | |  | | |  |  |  |  | |\  \  |  | \   \       
                 \___/    |_|  |_| |__|  |__|  |_| \__\ |__|  \__/        
                                                                              
                      - O R C A' S   B I G   F R I E N D -                    
                                      &                                       
                       - I N T E G R A L  F E E D E R -                       
                                                                              
 v1 FN, 2020, v2 2021, v3 2022-2024                                           
------------------------------------------------------------------------------


----------------------
SHARK INTEGRAL PACKAGE
----------------------

Number of atoms                             ...     16
Number of basis functions                   ...    216
Number of shells                            ...    104
Maximum angular momentum                    ...      2
Integral batch strategy                     ... SHARK/LIBINT Hybrid
RI-J (if used) integral strategy            ... SPLIT-RIJ (Revised 2003 algorithm where possible)
Printlevel                                  ...      1
Contraction scheme used                     ... SEGMENTED contraction
Prescreening option                         ... SCHWARTZ
   Thresh                                   ... 1.000e-10
   Tcut                                     ... 1.000e-11
   Tpresel                                  ... 1.000e-11 
Coulomb Range Separation                    ... NOT USED
Exchange Range Separation                   ... NOT USED
Multipole approximations                    ... NOT USED
Finite Nucleus Model                        ... NOT USED
CABS basis                                  ... NOT available
Auxiliary Coulomb fitting basis             ... AVAILABLE
   # of basis functions in Aux-J            ...    518
   # of shells in Aux-J                     ...    170
   Maximum angular momentum in Aux-J        ...      4
Auxiliary J/K fitting basis                 ... NOT available
Auxiliary Correlation fitting basis         ... NOT available
Auxiliary 'external' fitting basis          ... NOT available

Checking pre-screening integrals            ... done (  0.0 sec) Dimension = 104
Check shell pair data                       ... done (  0.0 sec)
Shell pair information
Shell pair cut-off parameter TPreSel        ...   1.0e-11
Total number of shell pairs                 ...      5460
Shell pairs after pre-screening             ...      4867
Total number of primitive shell pairs       ...     20119
Primitive shell pairs kept                  ...     12709
          la=0 lb=0:   1515 shell pairs
          la=1 lb=0:   1804 shell pairs
          la=1 lb=1:    556 shell pairs
          la=2 lb=0:    582 shell pairs
          la=2 lb=1:    349 shell pairs
          la=2 lb=2:     61 shell pairs

Calculating one electron integrals          ... done (  0.0 sec)
Calculating RI/J V-Matrix + Cholesky decomp.... done (  0.0 sec)
Calculating Nuclear repulsion               ... done (  0.0 sec) ENN=    407.007088791670 Eh

Diagonalization of the overlap matrix:
Smallest eigenvalue                        ... 6.897e-05
Time for diagonalization                   ...    0.004 sec
Threshold for overlap eigenvalues          ... 1.000e-07
Number of eigenvalues below threshold      ... 0
Time for construction of square roots      ...    0.004 sec
Total time needed                          ...    0.009 sec

-------------------
DFT GRID GENERATION
-------------------

General Integration Accuracy     IntAcc      ... 4.388
Radial Grid Type                 RadialGrid  ... OptM3 with GC (2021)
Angular Grid (max. ang.)         AngularGrid ... 4 (Lebedev-302)
Angular grid pruning method      GridPruning ... 4 (adaptive)
Weight generation scheme         WeightScheme... mBecke (2022)
Basis function cutoff            BFCut       ... 1.0000e-10
Integration weight cutoff        WCut        ... 1.0000e-14
Partially contracted basis set               ... off
Rotationally invariant grid construction     ... off
Angular grids for H and He will be reduced by one unit
Diffuse basis detected: some atoms will have their outermost
                        angular grid increased by 1.

Total number of grid points                  ...    76995
Total number of batches                      ...     1210
Average number of points per batch           ...       63
Average number of grid points per atom       ...     4812
Initializing property integral containers    ... done (  0.0 sec)

SHARK setup successfully completed in   0.7 seconds

Maximum memory used throughout the entire STARTUP-calculation: 36.5 MB
-------------------------------------------------------------------------------
                                 ORCA GUESS
                   Start orbitals & Density for SCF / CASSCF
-------------------------------------------------------------------------------

------------
SCF SETTINGS
------------
Hamiltonian:
 Density Functional     Method          .... DFT(GTOs)
  Functional kind                       .... Exchange
  Functional name                       .... Re-regularized SCAN exchange by Furness et al
  Functional family                     .... MGGA
  Functional refs                              
    [ 0] J. W. Furness, A. D. Kaplan, J. Ning, J. P. Perdew, and J. Sun.,  J. Phys. Chem. Lett. 11, 8208-8215 (2020), doi: 10.1021/acs.jpclett.0c02405
    [ 1] J. W. Furness, A. D. Kaplan, J. Ning, J. P. Perdew, and J. Sun.,  J. Phys. Chem. Lett. 11, 9248-9248 (2020), doi: 10.1021/acs.jpclett.0c03077
  Functional external parameters        .... 6
    Parameter  0 _c1        =  6.670000e-01 : c1 parameter        
    Parameter  1 _c2        =  8.000000e-01 : c2 parameter        
    Parameter  2 _d         =  1.240000e+00 : d parameter         
    Parameter  3 _k1        =  6.500000e-02 : k1 parameter        
    Parameter  4 _eta       =  1.000000e-03 : eta parameter       
    Parameter  5 _dp2       =  3.610000e-01 : dp2 parameter       
  Functional kind                       .... Correlation
  Functional name                       .... Re-regularized SCAN correlation by Furness et al
  Functional family                     .... MGGA
  Functional refs                              
    [ 0] J. W. Furness, A. D. Kaplan, J. Ning, J. P. Perdew, and J. Sun.,  J. Phys. Chem. Lett. 11, 8208-8215 (2020), doi: 10.1021/acs.jpclett.0c02405
    [ 1] J. W. Furness, A. D. Kaplan, J. Ning, J. P. Perdew, and J. Sun.,  J. Phys. Chem. Lett. 11, 9248-9248 (2020), doi: 10.1021/acs.jpclett.0c03077
  Functional external parameters        .... 1
    Parameter  0 _eta       =  1.000000e-03 : Regularization parameter
 Gradients option       PostSCFGGA      .... off
 RI-approximation to the Coulomb term is turned on
   Number of AuxJ basis functions       .... 518


General Settings:
 Integral files         IntName         .... sp
 Hartree-Fock type      HFTyp           .... RHF
 Total Charge           Charge          ....    0
 Multiplicity           Mult            ....    1
 Number of Electrons    NEL             ....   64
 Basis Dimension        Dim             ....  216
 Nuclear Repulsion      ENuc            ....    407.0070887917 Eh

Convergence Acceleration:
 AO-DIIS                CNVDIIS         .... on
   Start iteration      DIISMaxIt       ....    12
   Startup error        DIISStart       ....  0.200000
   # of expansion vecs  DIISMaxEq       ....     5
   Bias factor          DIISBfac        ....   1.050
   Max. coefficient     DIISMaxC        ....  10.000
 MO-DIIS                CNVKDIIS        .... off
 Trust-Rad. Augm. Hess. CNVTRAH         .... auto
   Auto Start mean grad. ratio tolernc. ....  1.125000
   Auto Start start iteration           ....     1
   Auto Start num. interpolation iter.  ....    10
   Max. Number of Micro iterations      ....    24
   Max. Number of Macro iterations      .... Maxiter - #DIIS iter
   Number of Davidson start vectors     ....     2
   Converg. threshold    (grad. norm)   ....   3.330e-04
   Grad. Scal. Fac. for Micro threshold ....   0.100
   Minimum threshold for Micro iter.    ....   1.000e-02
   NR start threshold (gradient norm)   ....   1.000e-04
   Initial trust radius                 ....   0.400
   Minimum AH scaling param. (alpha)    ....   1.000
   Maximum AH scaling param. (alpha)    .... 1000.000
   Quad. conv. algorithm                .... NR
   White noise on init. David. guess    .... on
   Maximum white noise                  ....   0.010
   Pseudo random numbers                .... off
   Inactive MOs                         .... canonical
   Orbital update algorithm             .... Taylor
   Preconditioner                       .... Diag
   Full preconditioner red. dimension   ....   250
   COSX micro iterations for RIJONX calc.... off
 SOSCF                  CNVSOSCF        .... on
   Start iteration      SOSCFMaxIt      ....   150
   Startup grad/error   SOSCFStart      ....  0.003300
   Hessian update       SOSCFHessUp     .... L-BFGS
 Level Shifting         CNVShift        .... on
   Level shift para.    LevelShift      ....    0.2500
   Turn off err/grad.   ShiftErr        ....    0.0010
 Zerner damping         CNVZerner       .... off
 Static damping         CNVDamp         .... on
   Fraction old density DampFac         ....    0.7000
   Max. Damping (<1)    DampMax         ....    0.9800
   Min. Damping (>=0)   DampMin         ....    0.0000
   Turn off err/grad.   DampErr         ....    0.1000

SCF Procedure:
 Maximum # iterations   MaxIter         ....   125
 SCF integral mode      SCFMode         .... Direct
   Integral package                     .... SHARK and LIBINT hybrid scheme
 Reset frequency        DirectResetFreq ....    20
 Integral Threshold     Thresh          ....  1.000e-10 Eh
 Primitive CutOff       TCut            ....  1.000e-11 Eh

Convergence Tolerance:
 Convergence Check Mode ConvCheckMode   .... Total+1el-Energy
 Convergence forced     ConvForced      .... 0
 Energy Change          TolE            ....  1.000e-06 Eh
 1-El. energy change                    ....  1.000e-03 Eh
 Orbital Gradient       TolG            ....  3.330e-04
 Orbital Rotation angle TolX            ....  3.330e-04
 DIIS Error             TolErr          ....  1.000e-06

---------------------
INITIAL GUESS: MOREAD
---------------------
Guess MOs are being read from file: sp.ges
Input Geometry matches current geometry (good)
Atom 0: N(Shells)= 9 and 6 - projection required
Input basis set needs projection
NBasis(read)= 140
NBasis(calc)= 216
Basis set overlap was calculated
Using GuessMode=FMatrix for the initial guess
C*T matrix was formed
Effective Fockian was calculated
Effective Fockian was diagonalized
Initial density was built
                      ------------------
                      INITIAL GUESS DONE (   0.0 sec)
                      ------------------
             **** ENERGY FILE WAS UPDATED (sp.en.tmp) ****
Finished Guess after   0.1 sec
Maximum memory used throughout the entire GUESS-calculation: 15.7 MB

-------------------------------------------------------------------------------------------
                                      ORCA LEAN-SCF
                              memory conserving SCF solver
-------------------------------------------------------------------------------------------

----------------------------------------D-I-I-S--------------------------------------------
Iteration    Energy (Eh)           Delta-E    RMSDP     MaxDP     DIISErr   Damp  Time(sec)
-------------------------------------------------------------------------------------------
               ***  Starting incremental Fock matrix formation  ***
    1    -400.6501993359465814     0.00e+00  6.04e-03  2.08e-01  6.24e-01  0.700   1.8
    2    -400.7048097350239004    -5.46e-02  4.85e-03  1.74e-01  4.39e-01  0.700   1.6
    3    -400.7433677347452203    -3.86e-02  3.56e-03  1.29e-01  3.08e-01  0.700   1.5
    4    -400.7704310737133255    -2.71e-02  2.56e-03  9.32e-02  2.15e-01  0.700   1.5
                               ***Turning on AO-DIIS***
    5    -400.7894095875060430    -1.90e-02  1.85e-03  6.78e-02  1.51e-01  0.700   1.5
    6    -400.8027105475931648    -1.33e-02  1.31e-03  4.83e-02  1.05e-01  0.700   1.5
    7    -400.8120329434887026    -9.32e-03  9.24e-04  3.42e-02  7.38e-02  0.700   1.5
    8    -400.8185636343968099    -6.53e-03  2.17e-03  8.04e-02  5.17e-02  0.000   1.5
                              *** Initializing SOSCF ***
---------------------------------------S-O-S-C-F--------------------------------------
Iteration    Energy (Eh)           Delta-E    RMSDP     MaxDP     MaxGrad    Time(sec)
--------------------------------------------------------------------------------------
    9    -400.8338192426361957    -1.53e-02  1.15e-05  3.26e-04  2.17e-04     1.5
               *** Restarting incremental Fock matrix formation ***
   10    -400.8338191909276702     5.17e-08  2.87e-05  1.63e-03  1.09e-04     2.1
   11    -400.8338181834199077     1.01e-06  1.71e-05  8.76e-04  3.24e-04     2.0
   12    -400.8338193515381818    -1.17e-06  2.15e-06  3.77e-05  1.04e-05     1.6
                  *** Gradient check signals convergence ***

               *****************************************************
               *                     SUCCESS                       *
               *           SCF CONVERGED AFTER  12 CYCLES          *
               *****************************************************

             **** ENERGY FILE WAS UPDATED (sp.en.tmp) ****

----------------
TOTAL SCF ENERGY
----------------

Total Energy       :       -400.83381935153818 Eh          -10907.24274 eV

Components:
Nuclear Repulsion  :        407.00708879166950 Eh           11075.22594 eV
Electronic Energy  :       -807.84090814320768 Eh          -21982.46868 eV
One Electron Energy:      -1348.77742194632583 Eh          -36702.09955 eV
Two Electron Energy:        540.93651380311815 Eh           14719.63087 eV

Virial components:
Potential Energy   :       -800.16923203019155 Eh          -21773.71176 eV
Kinetic Energy     :        399.33541267865331 Eh           10866.46902 eV
Virial Ratio       :          2.00375225092820

DFT components:
N(Alpha)           :       31.999973073510 electrons
N(Beta)            :       31.999973073510 electrons
N(Total)           :       63.999946147020 electrons
E(X)               :      -53.878793308492 Eh       
E(C)               :       -2.078690945403 Eh       
E(XC)              :      -55.957484253894 Eh       

---------------
SCF CONVERGENCE
---------------

  Last Energy change         ...    1.1681e-06  Tolerance :   1.0000e-06
  Last MAX-Density change    ...    3.7729e-05  Tolerance :   1.0000e-05
  Last RMS-Density change    ...    2.1452e-06  Tolerance :   1.0000e-06
  Last DIIS Error            ...    2.1703e-04  Tolerance :   1.0000e-06
  Last Orbital Gradient      ...    1.0367e-05  Tolerance :   3.3300e-04
  Last Orbital Rotation      ...    5.1418e-05  Tolerance :   3.3300e-04


----------------
ORBITAL ENERGIES
----------------

  NO   OCC          E(Eh)            E(eV) 
   0   2.0000     -18.945900      -515.5441 
   1   2.0000     -14.167240      -385.5102 
   2   2.0000     -10.131634      -275.6958 
   3   2.0000     -10.084083      -274.4019 
   4   2.0000     -10.079942      -274.2892 
   5   2.0000     -10.073947      -274.1260 
   6   2.0000     -10.062939      -273.8265 
   7   2.0000     -10.060574      -273.7621 
   8   2.0000     -10.043192      -273.2892 
   9   2.0000      -1.018219       -27.7071 
  10   2.0000      -0.930762       -25.3273 
  11   2.0000      -0.799944       -21.7676 
  12   2.0000      -0.755702       -20.5637 
  13   2.0000      -0.719424       -19.5765 
  14   2.0000      -0.631813       -17.1925 
  15   2.0000      -0.613138       -16.6843 
  16   2.0000      -0.540006       -14.6943 
  17   2.0000      -0.501951       -13.6588 
  18   2.0000      -0.473608       -12.8875 
  19   2.0000      -0.445383       -12.1195 
  20   2.0000      -0.431639       -11.7455 
  21   2.0000      -0.423908       -11.5351 
  22   2.0000      -0.401804       -10.9336 
  23   2.0000      -0.391350       -10.6492 
  24   2.0000      -0.387570       -10.5463 
  25   2.0000      -0.373478       -10.1629 
  26   2.0000      -0.349891        -9.5210 
  27   2.0000      -0.346876        -9.4390 
  28   2.0000      -0.288940        -7.8625 
  29   2.0000      -0.261322        -7.1109 
  30   2.0000      -0.243414        -6.6236 
  31   2.0000      -0.220801        -6.0083 
  32   0.0000      -0.099351        -2.7035 
  33   0.0000      -0.064670        -1.7598 
  34   0.0000      -0.006127        -0.1667 
  35   0.0000       0.065246         1.7754 
  36   0.0000       0.098520         2.6809 
  37   0.0000       0.106690         2.9032 
  38   0.0000       0.108988         2.9657 
  39   0.0000       0.122673         3.3381 
  40   0.0000       0.127562         3.4711 
  41   0.0000       0.132334         3.6010 
  42   0.0000       0.143827         3.9137 
*Only the first 10 virtual orbitals were printed.

                    ********************************
                    * MULLIKEN POPULATION ANALYSIS *
                    ********************************

-----------------------
MULLIKEN ATOMIC CHARGES
-----------------------
   0 C :   -0.554764
   1 C :    0.242976
   2 O :   -0.338820
   3 C :    0.205578
   4 C :   -0.166294
   5 C :   -0.121073
   6 C :   -0.064985
   7 N :   -0.173091
   8 C :   -0.163228
   9 H :    0.166297
  10 H :    0.173238
  11 H :    0.184267
  12 H :    0.152404
  13 H :    0.151531
  14 H :    0.137087
  15 H :    0.168877
Sum of atomic charges:    0.0000000

--------------------------------
MULLIKEN REDUCED ORBITAL CHARGES
--------------------------------
  0 C s       :     3.363507  s :     3.363507
      pz      :     1.045882  p :     3.166867
      px      :     1.109912
      py      :     1.011074
      dz2     :     0.004759  d :     0.024390
      dxz     :     0.002264
      dyz     :     0.005901
      dx2y2   :     0.005907
      dxy     :     0.005559

  1 C s       :     3.191509  s :     3.191509
      pz      :     0.744660  p :     2.471313
      px      :     0.933078
      py      :     0.793574
      dz2     :     0.006442  d :     0.094202
      dxz     :     0.009343
      dyz     :     0.015036
      dx2y2   :     0.035858
      dxy     :     0.027523

  2 O s       :     3.845560  s :     3.845560
      pz      :     1.353546  p :     4.469412
      px      :     1.721618
      py      :     1.394249
      dz2     :     0.004019  d :     0.023848
      dxz     :     0.004936
      dyz     :     0.008088
      dx2y2   :     0.002193
      dxy     :     0.004613

  3 C s       :     3.072140  s :     3.072140
      pz      :     1.015626  p :     2.678751
      px      :     0.765604
      py      :     0.897520
      dz2     :     0.003935  d :     0.043531
      dxz     :     0.004164
      dyz     :     0.005799
      dx2y2   :     0.015026
      dxy     :     0.014606

  4 C s       :     3.191519  s :     3.191519
      pz      :     0.941889  p :     2.936920
      px      :     0.968916
      py      :     1.026114
      dz2     :     0.003284  d :     0.037855
      dxz     :     0.006095
      dyz     :     0.003471
      dx2y2   :     0.011815
      dxy     :     0.013190

  5 C s       :     3.156906  s :     3.156906
      pz      :     0.996277  p :     2.927946
      px      :     0.932879
      py      :     0.998790
      dz2     :     0.003332  d :     0.036221
      dxz     :     0.004943
      dyz     :     0.003345
      dx2y2   :     0.011874
      dxy     :     0.012727

  6 C s       :     3.233571  s :     3.233571
      pz      :     0.887626  p :     2.776169
      px      :     0.996776
      py      :     0.891767
      dz2     :     0.004062  d :     0.055246
      dxz     :     0.003167
      dyz     :     0.009078
      dx2y2   :     0.022513
      dxy     :     0.016426

  7 N s       :     3.453888  s :     3.453888
      pz      :     1.151660  p :     3.651741
      px      :     1.097555
      py      :     1.402526
      dz2     :     0.005395  d :     0.067462
      dxz     :     0.008759
      dyz     :     0.014705
      dx2y2   :     0.020954
      dxy     :     0.017648

  8 C s       :     3.320122  s :     3.320122
      pz      :     0.852763  p :     2.788199
      px      :     0.943392
      py      :     0.992044
      dz2     :     0.003901  d :     0.054907
      dxz     :     0.008829
      dyz     :     0.003314
      dx2y2   :     0.016060
      dxy     :     0.022803

  9 H s       :     0.815097  s :     0.815097
      pz      :     0.007059  p :     0.018606
      px      :     0.003834
      py      :     0.007713

 10 H s       :     0.808252  s :     0.808252
      pz      :     0.009638  p :     0.018509
      px      :     0.004107
      py      :     0.004765

 11 H s       :     0.797775  s :     0.797775
      pz      :     0.003400  p :     0.017958
      px      :     0.010954
      py      :     0.003605

 12 H s       :     0.827816  s :     0.827816
      pz      :     0.003905  p :     0.019780
      px      :     0.005537
      py      :     0.010338

 13 H s       :     0.828857  s :     0.828857
      pz      :     0.004197  p :     0.019612
      px      :     0.005706
      py      :     0.009710

 14 H s       :     0.843882  s :     0.843882
      pz      :     0.003504  p :     0.019031
      px      :     0.012885
      py      :     0.002643

 15 H s       :     0.811699  s :     0.811699
      pz      :     0.003401  p :     0.019423
      px      :     0.005427
      py      :     0.010595


------------------------
MULLIKEN OVERLAP CHARGES
------------------------
B(  0-C ,  1-C ) :   0.4550 B(  0-C ,  2-O ) :  -0.1482 B(  0-C ,  3-C ) :  -0.2953 
B(  0-C ,  9-H ) :   0.7730 B(  0-C , 10-H ) :   0.8394 B(  0-C , 11-H ) :   0.8218 
B(  1-C ,  2-O ) :   1.1952 B(  1-C ,  3-C ) :  -0.3801 B(  1-C , 10-H ) :  -0.1267 
B(  1-C , 11-H ) :  -0.0721 B(  2-O ,  3-C ) :  -0.4384 B(  2-O ,  8-C ) :   0.0981 
B(  3-C ,  4-C ) :   0.5894 B(  3-C ,  6-C ) :  -0.1368 B(  3-C ,  7-N ) :  -0.1180 
B(  3-C ,  8-C ) :   0.4480 B(  3-C , 10-H ) :   0.0512 B(  3-C , 12-H ) :  -0.0552 
B(  3-C , 15-H ) :  -0.1794 B(  4-C ,  5-C ) :   0.6941 B(  4-C ,  6-C ) :  -0.0678 
B(  4-C ,  8-C ) :  -0.0976 B(  4-C , 12-H ) :   0.7819 B(  4-C , 13-H ) :  -0.0609 
B(  5-C ,  6-C ) :   0.7322 B(  5-C ,  7-N ) :  -0.1390 B(  5-C ,  8-C ) :  -0.1539 
B(  5-C , 12-H ) :  -0.0531 B(  5-C , 13-H ) :   0.7765 B(  5-C , 14-H ) :  -0.1751 
B(  6-C ,  7-N ) :   0.9446 B(  6-C ,  8-C ) :  -0.1795 B(  6-C , 14-H ) :   0.9166 
B(  7-N ,  8-C ) :   0.8986 B(  7-N , 14-H ) :  -0.1091 B(  7-N , 15-H ) :  -0.1150 
B(  8-C , 15-H ) :   0.9512 B(  9-H , 10-H ) :  -0.0540 


                     *******************************
                     * LOEWDIN POPULATION ANALYSIS *
                     *******************************

----------------------
LOEWDIN ATOMIC CHARGES
----------------------
   0 C :   -0.384021
   1 C :    0.237782
   2 O :   -0.454889
   3 C :   -0.060950
   4 C :   -0.100934
   5 C :   -0.143330
   6 C :    0.099092
   7 N :   -0.601430
   8 C :    0.140988
   9 H :    0.174643
  10 H :    0.172780
  11 H :    0.177850
  12 H :    0.175604
  13 H :    0.172292
  14 H :    0.187239
  15 H :    0.207284

-------------------------------
LOEWDIN REDUCED ORBITAL CHARGES
-------------------------------
  0 C s       :     2.966585  s :     2.966585
      pz      :     1.133618  p :     3.360407
      px      :     1.142177
      py      :     1.084612
      dz2     :     0.011617  d :     0.057029
      dxz     :     0.004729
      dyz     :     0.014511
      dx2y2   :     0.014014
      dxy     :     0.012158

  1 C s       :     2.809425  s :     2.809425
      pz      :     0.743456  p :     2.749927
      px      :     1.002858
      py      :     1.003613
      dz2     :     0.014107  d :     0.202866
      dxz     :     0.017258
      dyz     :     0.028530
      dx2y2   :     0.079565
      dxy     :     0.063405

  2 O s       :     3.554263  s :     3.554263
      pz      :     1.361680  p :     4.657370
      px      :     1.737380
      py      :     1.558310
      dz2     :     0.028825  d :     0.243256
      dxz     :     0.020164
      dyz     :     0.039760
      dx2y2   :     0.077370
      dxy     :     0.077137

  3 C s       :     2.862866  s :     2.862866
      pz      :     0.984189  p :     3.106494
      px      :     1.029369
      py      :     1.092936
      dz2     :     0.007705  d :     0.091590
      dxz     :     0.006683
      dyz     :     0.010688
      dx2y2   :     0.033975
      dxy     :     0.032540

  4 C s       :     2.899078  s :     2.899078
      pz      :     0.927876  p :     3.120004
      px      :     1.099881
      py      :     1.092247
      dz2     :     0.005535  d :     0.081852
      dxz     :     0.011035
      dyz     :     0.005909
      dx2y2   :     0.028210
      dxy     :     0.031163

  5 C s       :     2.904808  s :     2.904808
      pz      :     0.980557  p :     3.159323
      px      :     1.097644
      py      :     1.081122
      dz2     :     0.005771  d :     0.079199
      dxz     :     0.008983
      dyz     :     0.005466
      dx2y2   :     0.028111
      dxy     :     0.030867

  6 C s       :     2.833494  s :     2.833494
      pz      :     0.849911  p :     2.943106
      px      :     1.054615
      py      :     1.038579
      dz2     :     0.008346  d :     0.124308
      dxz     :     0.004682
      dyz     :     0.018188
      dx2y2   :     0.055913
      dxy     :     0.037180

  7 N s       :     3.231741  s :     3.231741
      pz      :     1.123386  p :     3.898071
      px      :     1.299495
      py      :     1.475190
      dz2     :     0.051774  d :     0.471618
      dxz     :     0.075484
      dyz     :     0.046495
      dx2y2   :     0.141978
      dxy     :     0.155888

  8 C s       :     2.825817  s :     2.825817
      pz      :     0.826023  p :     2.909762
      px      :     1.030612
      py      :     1.053127
      dz2     :     0.008087  d :     0.123433
      dxz     :     0.016309
      dyz     :     0.005966
      dx2y2   :     0.036965
      dxy     :     0.056107

  9 H s       :     0.780292  s :     0.780292
      pz      :     0.017531  p :     0.045065
      px      :     0.008774
      py      :     0.018760

 10 H s       :     0.782221  s :     0.782221
      pz      :     0.024213  p :     0.044999
      px      :     0.009614
      py      :     0.011172

 11 H s       :     0.778750  s :     0.778750
      pz      :     0.007325  p :     0.043401
      px      :     0.028006
      py      :     0.008069

 12 H s       :     0.779015  s :     0.779015
      pz      :     0.008403  p :     0.045381
      px      :     0.012623
      py      :     0.024355

 13 H s       :     0.782066  s :     0.782066
      pz      :     0.009288  p :     0.045642
      px      :     0.013322
      py      :     0.023032

 14 H s       :     0.771950  s :     0.771950
      pz      :     0.007311  p :     0.040811
      px      :     0.027633
      py      :     0.005867

 15 H s       :     0.750367  s :     0.750367
      pz      :     0.007175  p :     0.042349
      px      :     0.010467
      py      :     0.024707


---------------------------------
LOEWDIN BOND ORDERS (THRESH 0.050000)
---------------------------------
B(  0-C ,  1-C ) :   1.0279 B(  0-C ,  2-O ) :   0.2142 B(  0-C ,  3-C ) :   0.0852 
B(  0-C ,  9-H ) :   0.8999 B(  0-C , 10-H ) :   0.9033 B(  0-C , 11-H ) :   0.9088 
B(  1-C ,  2-O ) :   2.3423 B(  1-C ,  3-C ) :   0.9760 B(  1-C ,  4-C ) :   0.0847 
B(  1-C ,  8-C ) :   0.0913 B(  2-O ,  3-C ) :   0.2113 B(  2-O ,  4-C ) :   0.0501 
B(  2-O ,  8-C ) :   0.0758 B(  3-C ,  4-C ) :   1.4120 B(  3-C ,  5-C ) :   0.0919 
B(  3-C ,  6-C ) :   0.1199 B(  3-C ,  7-N ) :   0.2070 B(  3-C ,  8-C ) :   1.2810 
B(  3-C , 12-H ) :   0.0513 B(  4-C ,  5-C ) :   1.5073 B(  4-C ,  6-C ) :   0.0927 
B(  4-C ,  7-N ) :   0.1306 B(  4-C ,  8-C ) :   0.0816 B(  4-C , 12-H ) :   0.8606 
B(  4-C , 13-H ) :   0.0549 B(  5-C ,  6-C ) :   1.3912 B(  5-C ,  7-N ) :   0.2149 
B(  5-C ,  8-C ) :   0.1255 B(  5-C , 12-H ) :   0.0533 B(  5-C , 13-H ) :   0.8688 
B(  5-C , 14-H ) :   0.0524 B(  6-C ,  7-N ) :   1.7969 B(  6-C ,  8-C ) :   0.1096 
B(  6-C , 13-H ) :   0.0573 B(  6-C , 14-H ) :   0.8064 B(  7-N ,  8-C ) :   1.8418 
B(  7-N , 14-H ) :   0.1156 B(  7-N , 15-H ) :   0.1150 B(  8-C , 15-H ) :   0.7825 


------------------------------------------
LOEWDIN REDUCED ORBITAL POPULATIONS PER MO
-------------------------------------------
THRESHOLD FOR PRINTING IS 0.1%%
                      0         1         2         3         4         5   
                 -18.94590 -14.16724 -10.13163 -10.08408 -10.07994 -10.07395
                   2.00000   2.00000   2.00000   2.00000   2.00000   2.00000
                  --------  --------  --------  --------  --------  --------
 1 C  s               0.0       0.0      99.2       0.0       0.0       0.0
 2 O  s              99.9       0.0       0.0       0.0       0.0       0.0
 2 O  py              0.0       0.0       0.2       0.0       0.0       0.0
 2 O  dxy             0.0       0.0       0.2       0.0       0.0       0.0
 4 C  s               0.0       0.0       0.0       0.0       0.0      99.5
 5 C  px              0.0       0.0       0.0       0.0       0.0       0.1
 6 C  s               0.0       0.0       0.0      99.2       0.0       0.0
 7 N  s               0.0      99.8       0.0       0.0       0.0       0.0
 7 N  px              0.0       0.0       0.0       0.0       0.2       0.0
 7 N  py              0.0       0.0       0.0       0.1       0.0       0.0
 7 N  dx2y2           0.0       0.0       0.0       0.1       0.2       0.0
 7 N  dxy             0.0       0.0       0.0       0.2       0.0       0.0
 8 C  s               0.0       0.0       0.0       0.0      99.2       0.0

                      6         7         8         9        10        11   
                 -10.06294 -10.06057 -10.04319  -1.01822  -0.93076  -0.79994
                   2.00000   2.00000   2.00000   2.00000   2.00000   2.00000
                  --------  --------  --------  --------  --------  --------
 0 C  s               0.0       0.0      99.7       1.1       0.0       1.8
 0 C  pz              0.0       0.0       0.0       0.1       0.0       0.0
 0 C  px              0.0       0.0       0.0       0.2       0.0       0.6
 0 C  py              0.0       0.0       0.0       1.6       0.0       0.1
 1 C  s               0.0       0.0       0.0      17.8       0.1       2.2
 1 C  pz              0.0       0.0       0.0       0.7       0.0       0.2
 1 C  px              0.1       0.0       0.0       2.5       0.6       3.2
 1 C  py              0.0       0.0       0.1       9.5       0.1       2.2
 1 C  dz2             0.0       0.0       0.0       0.4       0.0       0.0
 1 C  dyz             0.0       0.0       0.0       0.2       0.0       0.0
 1 C  dx2y2           0.0       0.0       0.0       0.3       0.0       0.1
 1 C  dxy             0.0       0.0       0.0       0.7       0.0       0.0
 2 O  s               0.0       0.0       0.0      52.5       0.3       1.4
 2 O  pz              0.0       0.0       0.0       0.4       0.0       0.0
 2 O  px              0.0       0.0       0.0       1.4       0.0       0.1
 2 O  py              0.0       0.0       0.0       4.7       0.0       0.2
 2 O  dz2             0.0       0.0       0.0       0.1       0.0       0.1
 2 O  dx2y2           0.0       0.0       0.0       0.1       0.0       0.0
 2 O  dxy             0.0       0.0       0.0       0.3       0.0       0.2
 3 C  s              99.5       0.0       0.0       1.4       3.5      16.3
 3 C  px              0.0       0.0       0.0       1.9       2.2       0.2
 3 C  py              0.0       0.0       0.0       0.2       0.3       3.5
 3 C  dz2             0.0       0.0       0.0       0.0       0.0       0.1
 4 C  s               0.1       0.1       0.0       0.1       2.5      22.8
 4 C  px              0.0       0.1       0.0       0.1       0.4       0.1
 4 C  py              0.1       0.0       0.0       0.1       1.1       1.3
 4 C  dz2             0.0       0.0       0.0       0.0       0.0       0.2
 5 C  s               0.0      99.5       0.0       0.0       3.9       8.8
 5 C  px              0.0       0.0       0.0       0.0       0.0       4.2
 5 C  py              0.0       0.0       0.0       0.0       2.4       0.1
 5 C  dx2y2           0.0       0.0       0.0       0.0       0.0       0.1
 6 C  s               0.0       0.0       0.0       0.0      13.2       0.2
 6 C  pz              0.0       0.0       0.0       0.0       0.1       0.1
 6 C  px              0.0       0.0       0.0       0.0       3.9       0.3
 6 C  py              0.0       0.1       0.0       0.0       2.6       5.9
 6 C  dz2             0.0       0.0       0.0       0.0       0.2       0.0
 6 C  dxy             0.0       0.0       0.0       0.0       0.2       0.3
 7 N  s               0.0       0.0       0.0       0.1      34.1       8.0
 7 N  px              0.0       0.0       0.0       0.0       1.1       0.1
 7 N  py              0.0       0.0       0.0       0.0       3.4       0.3
 7 N  dz2             0.0       0.0       0.0       0.0       0.7       0.1
 7 N  dxy             0.0       0.0       0.0       0.0       0.1       0.3
 8 C  s               0.0       0.0       0.0       0.3      12.8       0.1
 8 C  px              0.0       0.0       0.0       0.4       6.1       5.2
 8 C  py              0.1       0.0       0.0       0.1       0.7       3.0
 8 C  dz2             0.0       0.0       0.0       0.0       0.2       0.0
 8 C  dx2y2           0.0       0.0       0.0       0.0       0.3       0.3
 9 H  s               0.0       0.0       0.0       0.1       0.0       0.3
10 H  s               0.0       0.0       0.0       0.1       0.0       0.3
11 H  s               0.0       0.0       0.0       0.1       0.0       0.2
12 H  s               0.0       0.0       0.0       0.0       0.2       3.0
12 H  py              0.0       0.0       0.0       0.0       0.0       0.2
13 H  s               0.0       0.0       0.0       0.0       0.3       1.1
14 H  s               0.0       0.0       0.0       0.0       0.9       0.0
15 H  s               0.0       0.0       0.0       0.0       0.8       0.0

                     12        13        14        15        16        17   
                  -0.75570  -0.71942  -0.63181  -0.61314  -0.54001  -0.50195
                   2.00000   2.00000   2.00000   2.00000   2.00000   2.00000
                  --------  --------  --------  --------  --------  --------
 0 C  s               3.0      32.8       3.2       1.1       2.5       0.7
 0 C  pz              0.0       0.0       0.0       0.0       0.2       0.4
 0 C  px              0.2       0.2       0.7       0.3       4.2       0.6
 0 C  py              0.1       0.1       0.4       0.0       2.5       5.6
 0 C  dxy             0.0       0.0       0.0       0.0       0.1       0.1
 1 C  s               2.2       4.2       2.1       0.0       6.6       3.6
 1 C  pz              0.2       0.9       0.0       0.0       0.0       0.1
 1 C  px              2.1       2.8       8.5       0.0       3.9       0.3
 1 C  py              2.1      11.0       0.1       0.1       0.8       1.1
 1 C  dx2y2           0.1       0.0       0.2       0.0       0.0       0.0
 1 C  dxy             0.1       0.2       0.0       0.1       0.0       0.0
 2 O  s               1.9       1.5       1.1       0.3       2.7       1.9
 2 O  pz              0.0       0.1       0.0       0.0       0.1       0.3
 2 O  px              0.2       0.1       1.2       0.1       2.2       0.0
 2 O  py              0.3       1.0       0.2       0.0       2.0       5.0
 2 O  dz2             0.2       0.1       0.1       0.0       0.1       0.0
 2 O  dyz             0.0       0.2       0.0       0.0       0.0       0.1
 2 O  dx2y2           0.0       0.9       0.1       0.0       0.0       0.5
 2 O  dxy             0.2       0.0       0.7       0.0       0.7       0.2
 3 C  s               7.6       1.7       6.6       0.0       0.7       0.1
 3 C  pz              0.0       0.0       0.0       0.2       0.0       0.0
 3 C  px              0.6       3.3       4.3       0.0      17.6       0.1
 3 C  py              2.2       0.9       0.7      14.9       0.2       0.5
 3 C  dx2y2           0.0       0.1       0.0       0.0       0.2       0.4
 3 C  dxy             0.1       0.0       0.0       0.2       0.0       0.0
 4 C  s               1.6       1.0       4.2       8.6       0.2       2.0
 4 C  pz              0.0       0.0       0.1       0.0       0.2       0.1
 4 C  px              7.9       0.1       2.8       6.1       0.0       3.6
 4 C  py              1.3       0.4       3.2       0.4      10.0       7.3
 4 C  dx2y2           0.2       0.0       0.0       0.1       0.2       0.1
 5 C  s              18.2       0.0       1.3       7.4       2.2       0.9
 5 C  pz              0.0       0.0       0.1       0.0       0.1       0.0
 5 C  px              0.3       1.1       5.7       7.5       0.6       0.3
 5 C  py              0.6       0.3       3.7       0.1       7.7       2.1
 5 C  dz2             0.1       0.0       0.0       0.0       0.0       0.0
 5 C  dx2y2           0.0       0.0       0.1       0.1       0.0       0.0
 6 C  s              10.5       2.9       9.0       0.5       0.3       2.2
 6 C  pz              0.1       0.0       0.0       0.3       0.0       0.0
 6 C  px              0.1       0.2       2.3       0.1       0.4      13.3
 6 C  py              3.7       0.2       0.2      14.3       0.0       1.2
 6 C  dxy             0.1       0.0       0.0       0.3       0.0       0.0
 7 N  s               0.5       0.5       0.7       3.3       2.5       0.3
 7 N  px              6.6       3.0      10.4       5.4       0.4       2.8
 7 N  py              2.3       0.7       3.7       1.0       3.5       0.7
 7 N  dz2             0.0       0.0       0.1       0.4       0.1       0.2
 7 N  dx2y2           2.0       0.4       0.2       0.2       0.0       1.4
 7 N  dxy             0.5       0.3       0.4       0.1       0.6       1.8
 8 C  s               9.8       3.3       1.3       8.4       0.0       2.4
 8 C  pz              0.0       0.0       0.0       0.0       0.1       0.1
 8 C  px              0.6       0.6       6.0       2.9       1.6       5.5
 8 C  py              0.2       0.2       2.9       0.5       7.6       3.4
 8 C  dx2y2           0.0       0.0       0.1       0.0       0.3       0.1
 9 H  s               0.5       6.6       1.0       0.3       1.3       1.3
 9 H  pz              0.0       0.3       0.0       0.0       0.1       0.1
 9 H  py              0.0       0.3       0.0       0.0       0.0       0.0
10 H  s               0.6       6.5       0.9       0.3       1.2       1.3
10 H  pz              0.0       0.5       0.1       0.0       0.1       0.0
11 H  s               0.4       6.0       1.3       0.5       2.7       0.4
11 H  px              0.0       0.5       0.1       0.0       0.1       0.0
12 H  s               0.2       0.0       1.8       4.5       2.1       7.6
12 H  py              0.0       0.0       0.1       0.3       0.1       0.2
13 H  s               2.9       0.0       0.5       3.6       4.6       0.1
13 H  px              0.1       0.0       0.1       0.0       0.1       0.0
13 H  py              0.2       0.0       0.0       0.3       0.2       0.0
14 H  s               1.8       0.7       4.1       0.1       0.0       8.3
14 H  px              0.2       0.1       0.3       0.0       0.0       0.4
15 H  s               1.7       0.7       0.4       4.0       0.6       5.6
15 H  py              0.1       0.1       0.0       0.3       0.0       0.3

                     18        19        20        21        22        23   
                  -0.47361  -0.44538  -0.43164  -0.42391  -0.40180  -0.39135
                   2.00000   2.00000   2.00000   2.00000   2.00000   2.00000
                  --------  --------  --------  --------  --------  --------
 0 C  s               0.2       0.3       0.0       0.0       0.1       0.0
 0 C  pz              0.2       0.9      30.2       0.0       2.1       8.1
 0 C  px              1.1       1.5       0.3       1.9       5.4       0.8
 0 C  py              0.3      16.5       2.1       1.8       4.6       0.5
 0 C  dz2             0.0       0.1       0.0       0.0       0.0       0.0
 0 C  dxz             0.0       0.0       0.1       0.0       0.0       0.0
 0 C  dxy             0.0       0.0       0.0       0.0       0.2       0.0
 1 C  s               0.1       1.1       0.0       0.1       0.5       0.0
 1 C  pz              0.0       0.3      19.3       0.1       0.7       0.0
 1 C  px              0.7      13.3       0.0       1.3       0.4       0.3
 1 C  py              1.3       0.5       1.0       0.1      14.2       0.1
 1 C  dxy             0.1       0.0       0.0       0.0       0.0       0.0
 2 O  s               1.0       4.7       0.1       0.1       6.6       0.0
 2 O  pz              0.1       1.9       9.5       0.0       1.9       0.0
 2 O  px              2.5       0.6       0.1       2.9      14.7       0.2
 2 O  py              0.3      16.2       2.0       0.2      16.6       0.1
 2 O  dz2             0.0       0.1       0.2       0.0       0.1       0.0
 2 O  dxz             0.0       0.0       0.2       0.0       0.0       0.0
 2 O  dyz             0.0       0.2       0.7       0.0       0.0       0.0
 2 O  dx2y2           0.2       0.6       0.1       0.1       0.2       0.0
 2 O  dxy             0.0       0.3       0.0       0.0       0.2       0.0
 3 C  s               0.0       0.5       0.0       2.4       0.0       0.1
 3 C  pz              0.2       0.0       7.2       0.0       0.1       6.7
 3 C  px              0.3       3.8       0.0       3.2       0.1       0.1
 3 C  py             13.8       0.3       0.1       0.0       0.4       1.8
 3 C  dx2y2           0.0       0.1       0.0       0.0       0.0       0.0
 3 C  dxy             0.0       0.0       0.0       0.1       0.0       0.1
 4 C  s               0.1       1.2       0.0       0.4       0.1       0.1
 4 C  pz              0.1       0.0       2.4       0.0       0.0       7.7
 4 C  px             13.2       0.5       0.0       2.1       3.2       0.8
 4 C  py              3.0       0.1       0.1       0.8       2.9       1.5
 4 C  dx2y2           0.1       0.0       0.0       0.2       0.1       0.1
 4 C  dxy             0.0       0.0       0.0       0.4       0.1       0.1
 5 C  s               0.4       0.7       0.0       0.4       0.3       0.1
 5 C  pz              0.1       0.0       0.7       0.5       0.1       8.3
 5 C  px              8.9       2.8       0.0       7.5       1.9       0.6
 5 C  py              6.0       0.7       0.1      22.9       0.7       0.4
 5 C  dx2y2           0.0       0.1       0.0       0.0       0.0       0.1
 5 C  dxy             0.1       0.0       0.0       0.4       0.1       0.0
 6 C  s               0.9       0.6       0.0       0.8       0.1       0.1
 6 C  pz              0.2       0.0       0.8       0.0       0.0      13.6
 6 C  px              3.1       4.4       0.0       5.0       0.0       0.6
 6 C  py             12.2       0.4       0.0       1.8       2.1       0.0
 6 C  dxz             0.0       0.0       0.0       0.0       0.0       0.1
 6 C  dx2y2           0.1       0.1       0.0       0.0       0.0       0.0
 6 C  dxy             0.1       0.0       0.0       0.2       0.0       0.0
 7 N  s               0.2       0.6       0.0       0.6       0.1       0.2
 7 N  pz              0.1       0.0       1.3       0.0       0.1      21.3
 7 N  px              9.7       0.5       0.0       0.1       3.0       0.2
 7 N  py              4.0       0.1       0.1       0.1       0.2       0.3
 7 N  dz2             0.0       0.3       0.0       0.1       0.0       0.0
 7 N  dxz             0.0       0.0       0.1       0.0       0.0       0.3
 7 N  dyz             0.0       0.0       0.1       0.0       0.0       0.8
 7 N  dx2y2           0.2       0.5       0.0       0.6       0.1       0.0
 7 N  dxy             0.5       0.4       0.0       0.7       0.1       0.0
 8 C  s               0.0       1.3       0.0       0.1       0.2       0.1
 8 C  pz              0.0       0.0       2.1       0.3       0.0      13.6
 8 C  px              7.5       2.1       0.0       1.2       2.0       0.1
 8 C  py              2.4       0.9       0.2      10.7       2.7       0.4
 8 C  dxz             0.0       0.0       0.0       0.0       0.0       0.1
 8 C  dx2y2           0.0       0.2       0.0       0.0       0.1       0.0
 8 C  dxy             0.0       0.0       0.0       0.2       0.0       0.0
 9 H  s               0.1       3.4       9.1       0.6       0.1       3.2
 9 H  pz              0.0       0.2       0.0       0.0       0.0       0.0
 9 H  py              0.0       0.0       0.2       0.0       0.0       0.1
10 H  s               0.2       3.6       8.5       0.3       1.1       2.3
10 H  pz              0.0       0.1       0.1       0.0       0.0       0.0
10 H  py              0.0       0.0       0.2       0.0       0.0       0.0
11 H  s               0.5       0.7       0.0       1.1       1.6       0.6
11 H  pz              0.0       0.0       0.2       0.0       0.0       0.1
12 H  s               0.1       0.2       0.0       0.4       4.1       2.0
13 H  s               0.5       2.3       0.0      17.0       0.2       0.0
13 H  px              0.1       0.0       0.0       0.1       0.0       0.0
13 H  py              0.0       0.1       0.0       0.2       0.0       0.0
14 H  s               2.3       3.7       0.0       0.9       0.0       0.2
14 H  px              0.1       0.1       0.0       0.0       0.0       0.0
14 H  py              0.1       0.0       0.0       0.0       0.0       0.0
15 H  s               0.0       2.4       0.0       6.1       2.9       0.2
15 H  py              0.0       0.1       0.0       0.1       0.1       0.0

                     24        25        26        27        28        29   
                  -0.38757  -0.37348  -0.34989  -0.34688  -0.28894  -0.26132
                   2.00000   2.00000   2.00000   2.00000   2.00000   2.00000
                  --------  --------  --------  --------  --------  --------
 0 C  pz              0.2       0.4       0.4      12.7       0.1       0.0
 0 C  px              7.3      27.5       2.7       0.0       0.0       0.0
 0 C  py              2.0       5.6       1.5       1.5       0.0       0.1
 0 C  dz2             0.0       0.2       0.0       0.1       0.0       0.0
 0 C  dyz             0.0       0.0       0.0       0.4       0.0       0.0
 0 C  dx2y2           0.0       0.4       0.1       0.1       0.0       0.0
 1 C  s               0.0       0.2       0.4       0.0       0.0       0.0
 1 C  pz              0.4       0.0       0.3      13.6       0.1       0.2
 1 C  px              2.4       1.5       4.2       0.0       0.0       0.0
 1 C  py              2.4       0.4       0.9       1.4       0.0       0.0
 1 C  dz2             0.0       0.0       0.0       0.2       0.0       0.0
 1 C  dxz             0.0       0.0       0.0       0.0       0.1       0.4
 1 C  dyz             0.0       0.0       0.0       0.7       0.1       0.1
 1 C  dx2y2           0.0       0.3       0.1       0.1       0.0       0.0
 1 C  dxy             0.0       0.0       0.2       0.0       0.0       0.0
 2 O  s               0.4       0.3       1.0       0.0       0.0       0.0
 2 O  pz              0.0       0.1       0.2      40.1       3.3       8.2
 2 O  px              4.9       0.4       0.1       0.0       0.0       0.1
 2 O  py              0.3       3.2       8.4       2.4       0.3       1.2
 2 O  dz2             0.0       0.1       0.0       0.1       0.0       0.0
 2 O  dxz             0.0       0.0       0.0       0.3       0.0       0.2
 2 O  dyz             0.0       0.0       0.0       0.3       0.0       0.0
 2 O  dxy             0.0       0.1       0.3       0.0       0.0       0.0
 3 C  s               0.4       0.3       0.0       0.0       0.0       0.0
 3 C  pz              1.4       0.0       0.0       1.9       9.3      21.6
 3 C  px              0.5       3.0       2.8       0.0       0.0       0.0
 3 C  py              5.0       0.5       4.4       0.0       0.2       0.5
 3 C  dyz             0.0       0.0       0.0       0.0       0.4       0.1
 3 C  dx2y2           0.1       0.0       0.5       0.0       0.0       0.0
 3 C  dxy             0.7       0.0       0.1       0.0       0.0       0.0
 4 C  s               0.3       0.0       0.0       0.0       0.0       0.0
 4 C  pz              0.3       0.0       0.1       0.1      35.2       0.0
 4 C  px              3.4       4.4       5.8       0.0       0.0       0.0
 4 C  py             14.4       0.7       4.6       0.1       0.6       0.0
 4 C  dxz             0.0       0.0       0.0       0.0       0.0       0.4
 4 C  dyz             0.0       0.0       0.0       0.0       0.0       0.1
 4 C  dx2y2           0.2       0.0       0.0       0.0       0.0       0.0
 4 C  dxy             0.4       0.0       0.1       0.0       0.0       0.0
 5 C  s               0.2       0.0       0.2       0.0       0.0       0.0
 5 C  pz              1.7       0.0       0.0       1.4      14.1      21.7
 5 C  px              2.8       3.0       6.0       0.0       0.0       0.0
 5 C  py              0.3       0.7       0.8       0.1       0.3       0.3
 5 C  dxz             0.0       0.0       0.0       0.0       0.3       0.1
 5 C  dyz             0.0       0.0       0.0       0.0       0.0       0.1
 5 C  dx2y2           0.2       0.2       0.3       0.0       0.0       0.0
 5 C  dxy             0.1       0.0       0.4       0.0       0.0       0.0
 6 C  s               0.4       0.1       0.2       0.0       0.0       0.0
 6 C  pz              2.2       0.0       0.0       3.5       2.3      19.1
 6 C  px              3.8       7.8       7.2       0.0       0.0       0.0
 6 C  py              0.9       0.3       0.9       0.0       0.1       0.4
 6 C  dyz             0.0       0.0       0.0       0.0       0.6       0.2
 6 C  dx2y2           0.0       0.3       0.7       0.0       0.0       0.0
 7 N  s               1.3       0.1       0.1       0.0       0.0       0.0
 7 N  pz              2.3       0.1       0.0       3.8      26.1       0.0
 7 N  px              0.8       0.5       7.0       0.0       0.0       0.0
 7 N  py              9.5       0.6       0.7       0.0       0.5       0.1
 7 N  dxz             0.0       0.0       0.0       0.0       0.0       3.2
 7 N  dyz             0.1       0.0       0.0       0.1       0.0       0.9
 7 N  dx2y2           0.1       0.4       0.1       0.0       0.0       0.0
 7 N  dxy             0.3       0.0       0.1       0.0       0.0       0.1
 8 C  s               0.9       0.1       0.2       0.0       0.0       0.0
 8 C  pz              1.3       0.0       0.1       0.1       4.5      18.8
 8 C  px              0.8       0.8       4.8       0.0       0.0       0.0
 8 C  py              6.0       2.0       6.3       0.0       0.1       0.4
 8 C  dxz             0.0       0.0       0.0       0.1       0.5       0.1
 8 C  dyz             0.0       0.0       0.0       0.0       0.1       0.1
 8 C  dx2y2           0.0       0.0       0.4       0.0       0.0       0.0
 8 C  dxy             0.0       0.1       0.3       0.0       0.0       0.0
 9 H  s               0.5       2.3       0.2       7.8       0.0       0.0
 9 H  pz              0.0       0.1       0.0       0.0       0.0       0.0
 9 H  px              0.1       0.1       0.0       0.0       0.0       0.0
10 H  s               0.2       4.4       1.2       5.7       0.0       0.0
10 H  pz              0.0       0.2       0.0       0.0       0.0       0.0
11 H  s               2.8      17.6       2.2       0.1       0.0       0.0
11 H  pz              0.0       0.0       0.0       0.1       0.0       0.0
11 H  px              0.0       0.3       0.0       0.0       0.0       0.0
12 H  s              10.0       1.3       0.4       0.0       0.0       0.0
12 H  pz              0.0       0.0       0.0       0.0       0.3       0.0
12 H  px              0.0       0.0       0.1       0.0       0.0       0.0
13 H  s               0.0       0.1       4.7       0.0       0.0       0.0
13 H  pz              0.0       0.0       0.0       0.0       0.1       0.2
14 H  s               1.4       5.1       6.6       0.0       0.0       0.0
14 H  pz              0.0       0.0       0.0       0.0       0.0       0.2
15 H  s               0.3       1.2       7.7       0.0       0.0       0.0
15 H  pz              0.0       0.0       0.0       0.0       0.0       0.2
15 H  py              0.0       0.0       0.1       0.0       0.0       0.0

                     30        31        32        33        34        35   
                  -0.24341  -0.22080  -0.09935  -0.06467  -0.00613   0.06525
                   2.00000   2.00000   0.00000   0.00000   0.00000   0.00000
                  --------  --------  --------  --------  --------  --------
 0 C  s               0.3       1.0       0.0       0.0       0.0      14.0
 0 C  pz              0.1       0.4       0.1       0.2       0.2       0.1
 0 C  px              0.1       1.3       0.0       0.0       0.0       0.2
 0 C  py              1.9       5.5       0.0       0.0       0.0       1.9
 0 C  dz2             0.0       0.0       0.1       0.0       0.1       0.0
 0 C  dyz             0.0       0.0       0.3       0.0       0.9       0.0
 0 C  dx2y2           0.0       0.0       0.0       0.0       0.1       0.0
 1 C  s               0.1       0.0       0.0       0.0       0.0       6.3
 1 C  pz              0.0       0.1      17.2       0.8      21.1       0.1
 1 C  px              0.1       1.9       0.0       0.0       0.0       0.2
 1 C  py              0.2       0.4       1.3       0.1       1.9       0.4
 1 C  dz2             0.0       0.0       0.1       0.0       0.1       0.6
 1 C  dxz             0.0       0.1       0.6       0.0       0.0       0.0
 1 C  dyz             0.1       0.2       0.5       0.0       0.4       0.2
 1 C  dx2y2           1.0       1.6       0.0       0.0       0.1       0.0
 1 C  dxy             0.3       1.3       0.0       0.0       0.0       0.0
 2 O  s               0.0       0.0       0.0       0.0       0.0       0.8
 2 O  pz              0.6       1.1      16.0       0.2       9.9       0.0
 2 O  px             22.9      31.8       0.0       0.0       0.0       0.2
 2 O  py              4.8       8.4       1.4       0.0       0.7       0.1
 2 O  dz2             0.0       0.0       0.5       0.0       0.8       0.7
 2 O  dxz             0.0       0.0       0.8       0.2       0.2       0.0
 2 O  dyz             0.0       0.1       1.6       0.1       2.7       0.1
 2 O  dx2y2           0.3       0.4       0.1       0.0       0.3       0.1
 2 O  dxy             0.2       0.2       0.1       0.0       0.0       0.0
 3 C  s               1.7       0.3       0.0       0.0       0.0       5.0
 3 C  pz              0.3       0.0      10.9       0.0      11.0       0.0
 3 C  px              0.7       6.3       0.0       0.0       0.0       0.9
 3 C  py              3.0       1.0       0.2       0.0       0.2       0.2
 3 C  dz2             0.0       0.0       0.0       0.1       0.0       0.2
 3 C  dxz             0.0       0.0       0.8       0.0       0.3       0.0
 3 C  dyz             0.0       0.0       0.0       1.3       0.0       0.1
 3 C  dx2y2           0.0       0.1       0.0       0.0       0.0       0.8
 4 C  s               0.1       0.1       0.0       0.0       0.0      10.0
 4 C  pz              0.0       0.0      12.7      21.2       0.0       0.1
 4 C  px              0.1       0.3       0.0       0.0       0.0       2.0
 4 C  py              0.6       0.0       0.2       0.4       0.0       8.7
 4 C  dxz             0.0       0.0       0.1       0.5       0.6       0.0
 4 C  dyz             0.0       0.0       0.2       0.0       0.3       0.0
 4 C  dx2y2           0.0       0.2       0.0       0.0       0.0       0.3
 4 C  dxy             0.1       0.1       0.0       0.0       0.0       0.5
 5 C  s               0.6       0.1       0.0       0.0       0.0       5.1
 5 C  pz              0.0       0.1       0.8      20.1      12.1       0.1
 5 C  px              0.2       1.2       0.0       0.0       0.0       0.3
 5 C  py              2.6       0.9       0.0       0.4       0.2       3.2
 5 C  dxz             0.0       0.0       0.6       0.5       0.1       0.0
 5 C  dyz             0.0       0.0       0.2       0.0       0.4       0.0
 5 C  dx2y2           0.0       0.0       0.0       0.0       0.0       0.2
 5 C  dxy             0.1       0.0       0.0       0.0       0.0       0.7
 6 C  s               0.2       0.2       0.0       0.0       0.0       3.0
 6 C  pz              0.2       0.0      16.3       0.2      17.0       0.0
 6 C  px              0.2       0.1       0.0       0.0       0.0       0.5
 6 C  py              3.0       1.5       0.3       0.0       0.3       0.9
 6 C  dxz             0.0       0.0       0.1       0.0       0.3       0.0
 6 C  dyz             0.0       0.0       0.0       1.2       0.0       0.0
[...]
 1 C  dz2             0.0       0.0       1.1       0.0       0.0       0.0
 1 C  dxz             0.0       0.0       0.2       0.0       0.0       0.0
 1 C  dyz             0.0       0.0       0.8       0.0       0.0       0.0
 1 C  dx2y2           1.3       0.1       1.3       0.0       0.0       0.0
 1 C  dxy             0.2       0.3       2.8       0.0       0.0       0.0
 2 O  s               0.0       0.3      19.3       0.0       0.1       0.0
 2 O  pz              0.0       0.0       1.3       0.0       0.0       0.0
 2 O  px              0.0       0.4       4.8       0.0       0.0       0.0
 2 O  py              0.1       0.0      16.5       0.0       0.0       0.0
 2 O  dz2             0.0       0.0       5.7       0.0       0.0       0.0
 2 O  dxz             0.0       0.0       1.3       0.0       0.0       0.0
 2 O  dyz             0.0       0.0       4.3       0.0       0.0       0.0
 2 O  dx2y2           0.5       0.3       7.0       0.0       0.0       0.0
 2 O  dxy             0.3       0.1      16.6       0.0       0.0       0.0
 3 C  s               0.3       0.0       0.0      32.8      21.2       9.0
 3 C  px              0.4       0.1       0.0       0.0       0.0       0.0
 3 C  py              0.0       0.4       0.3       0.0       0.0       0.0
 3 C  dyz             0.1       0.0       0.0       0.0       0.0       0.0
 3 C  dx2y2           5.4       0.2       0.0       0.0       0.0       0.0
 3 C  dxy             0.1       0.9       0.2       0.0       0.0       0.0
 4 C  s               0.2       0.0       0.0      30.6       1.4       0.0
 4 C  px              0.4       0.5       0.0       0.0       0.0       0.0
 4 C  py              0.8       0.2       0.0       0.0       0.0       0.0
 4 C  dz2             0.1       0.0       0.0       0.0       0.0       0.0
 4 C  dxz             0.1       0.0       0.0       0.0       0.0       0.0
 4 C  dx2y2           2.6       0.4       0.0       0.0       0.0       0.0
 4 C  dxy             6.5       0.1       0.0       0.0       0.0       0.0
 5 C  s               0.1       0.0       0.0      18.3      25.8       3.7
 5 C  px              0.3       0.6       0.0       0.0       0.0       0.0
 5 C  py              1.1       0.0       0.0       0.0       0.0       0.0
 5 C  dxz             0.1       0.0       0.0       0.0       0.0       0.0
 5 C  dx2y2           1.8       1.0       0.0       0.0       0.0       0.0
 5 C  dxy             8.1       0.0       0.0       0.0       0.0       0.0
 6 C  s               0.3       2.0       0.0       6.4      12.7       5.9
 6 C  px              2.0       1.3       0.0       0.0       0.0       0.0
 6 C  py              0.0       3.7       0.0       0.0       0.0       0.0
 6 C  dz2             0.0       0.4       0.0       0.0       0.0       0.0
 6 C  dyz             0.3       0.1       0.0       0.0       0.0       0.0
 6 C  dx2y2          11.9       1.2       0.0       0.0       0.0       0.0
 6 C  dxy             0.3       5.1       0.0       0.0       0.0       0.0
 7 N  s               2.8       0.2       0.0       0.2       0.0       0.0
 7 N  pz              0.0       0.1       0.0       0.0       0.0       0.0
 7 N  px              0.0      19.1       0.0       0.0       0.0       0.0
 7 N  py              0.2       4.5       0.0       0.0       0.0       0.0
 7 N  dz2             2.2       0.2       0.0       0.0       0.0       0.0
 7 N  dxz             0.2       0.1       0.0       0.0       0.0       0.0
 7 N  dyz             0.0       0.4       0.0       0.0       0.0       0.0
 7 N  dx2y2           3.4      27.0       0.0       0.0       0.0       0.0
 7 N  dxy             9.1       9.1       0.0       0.0       0.0       0.0
 8 C  s               0.3       2.8       0.1       8.7       0.2       1.0
 8 C  px              0.6       6.6       0.0       0.0       0.0       0.0
 8 C  py              1.1       0.0       0.1       0.0       0.0       0.0
 8 C  dz2             0.1       0.7       0.0       0.0       0.0       0.0
 8 C  dxz             0.1       0.0       0.0       0.0       0.0       0.0
 8 C  dx2y2           3.3       7.7       0.0       0.0       0.0       0.0
 8 C  dxy             6.6       0.1       0.1       0.0       0.0       0.0
12 H  s               2.1       0.0       0.0       0.0       0.0       0.0
12 H  px              0.8       0.0       0.0       0.0       0.0       0.0
12 H  py              3.4       0.0       0.0       0.0       0.0       0.0
13 H  s               2.2       0.1       0.0       0.0       0.0       0.0
13 H  px              1.1       0.1       0.0       0.0       0.0       0.0
13 H  py              2.6       0.0       0.0       0.0       0.0       0.0
14 H  s               2.2       0.2       0.0       0.0       0.0       0.0
14 H  px              3.7       0.1       0.0       0.0       0.0       0.0
14 H  py              0.1       0.0       0.0       0.0       0.0       0.0
15 H  s               1.6       0.2       0.0       0.0       0.0       0.0
15 H  px              0.4       0.0       0.0       0.0       0.0       0.0
15 H  py              2.3       0.1       0.0       0.0       0.0       0.0

                    210       211       212       213       214       215   
                  22.08283  22.13064  22.19941  22.24489  31.92597  43.63609
                   0.00000   0.00000   0.00000   0.00000   0.00000   0.00000
                  --------  --------  --------  --------  --------  --------
 0 C  s               0.1       0.0       0.3       0.4       0.0       0.0
 1 C  s              21.5      48.6       2.8       4.7       0.0       0.0
 2 O  s               0.1       0.1       0.0       0.0       0.0      99.9
 3 C  s               0.1       5.0       7.2      24.4       0.0       0.0
 4 C  s              27.5       1.4      35.4       3.2       0.0       0.0
 5 C  s               0.0      15.4      36.0       0.3       0.0       0.0
 6 C  s              41.7       3.3      16.4      12.9       0.0       0.0
 7 N  s               0.1       0.1       0.0       0.0      99.8       0.0
 7 N  px              0.0       0.0       0.0       0.1       0.0       0.0
 8 C  s               8.5      25.5       1.6      53.6       0.1       0.0



                      *****************************
                      * MAYER POPULATION ANALYSIS *
                      *****************************

  NA   - Mulliken gross atomic population
  ZA   - Total nuclear charge
  QA   - Mulliken gross atomic charge
  VA   - Mayer's total valence
  BVA  - Mayer's bonded valence
  FA   - Mayer's free valence

  ATOM       NA         ZA         QA         VA         BVA        FA
  0 C      6.5548     6.0000    -0.5548     3.7667     3.7667     0.0000
  1 C      5.7570     6.0000     0.2430     3.6850     3.6850    -0.0000
  2 O      8.3388     8.0000    -0.3388     2.0169     2.0169     0.0000
  3 C      5.7944     6.0000     0.2056     3.3250     3.3250     0.0000
  4 C      6.1663     6.0000    -0.1663     3.8902     3.8902    -0.0000
  5 C      6.1211     6.0000    -0.1211     3.6939     3.6939    -0.0000
  6 C      6.0650     6.0000    -0.0650     3.9523     3.9523     0.0000
  7 N      7.1731     7.0000    -0.1731     2.9813     2.9813    -0.0000
  8 C      6.1632     6.0000    -0.1632     4.0213     4.0213    -0.0000
  9 H      0.8337     1.0000     0.1663     0.9581     0.9581     0.0000
 10 H      0.8268     1.0000     0.1732     0.9562     0.9562     0.0000
 11 H      0.8157     1.0000     0.1843     0.9579     0.9579     0.0000
 12 H      0.8476     1.0000     0.1524     0.9652     0.9652    -0.0000
 13 H      0.8485     1.0000     0.1515     0.9682     0.9682     0.0000
 14 H      0.8629     1.0000     0.1371     0.9670     0.9670     0.0000
 15 H      0.8311     1.0000     0.1689     0.9560     0.9560     0.0000

  Mayer bond orders larger than 0.100000
B(  0-C ,  1-C ) :   0.8764 B(  0-C ,  9-H ) :   0.9461 B(  0-C , 10-H ) :   0.9683 
B(  0-C , 11-H ) :   0.9763 B(  1-C ,  2-O ) :   1.9402 B(  1-C ,  3-C ) :   0.8986 
B(  2-O ,  3-C ) :  -0.1056 B(  3-C ,  4-C ) :   1.3474 B(  3-C ,  8-C ) :   1.2525 
B(  4-C ,  5-C ) :   1.4124 B(  4-C , 12-H ) :   0.9226 B(  5-C ,  6-C ) :   1.3508 
B(  5-C , 13-H ) :   0.9413 B(  6-C ,  7-N ) :   1.4434 B(  6-C , 14-H ) :   0.9841 
B(  7-N ,  8-C ) :   1.4785 B(  8-C , 15-H ) :   1.0002 

-------
TIMINGS
-------

Total SCF time: 0 days 0 hours 0 min 23 sec 

Total time                  ....      23.149 sec
Sum of individual times     ....      23.085 sec  ( 99.7%)

SCF preparation             ....       0.661 sec  (  2.9%)
Fock matrix formation       ....      19.261 sec  ( 83.2%)
  Startup                   ....       0.010 sec  (  0.1% of F)
  Split-RI-J                ....       4.269 sec  ( 22.2% of F)
  XC integration            ....      14.824 sec  ( 77.0% of F)
    XC Preparation          ....       0.000 sec  (  0.0% of XC)
    Basis function eval.    ....       2.606 sec  ( 17.6% of XC)
    Density eval.           ....       4.974 sec  ( 33.6% of XC)
    XC-Functional eval.     ....       1.693 sec  ( 11.4% of XC)
    XC-Potential eval.      ....       5.056 sec  ( 34.1% of XC)
Diagonalization             ....       0.000 sec  (  0.0%)
Density matrix formation    ....       0.061 sec  (  0.3%)
Total Energy calculation    ....       0.004 sec  (  0.0%)
Population analysis         ....       2.890 sec  ( 12.5%)
Orbital Transformation      ....       0.021 sec  (  0.1%)
Orbital Orthonormalization  ....       0.000 sec  (  0.0%)
DIIS solution               ....       0.144 sec  (  0.6%)
  MO trafo                  ....       0.000 sec  (  0.0 % of DIIS)
  Orb grad                  ....       0.000 sec  (  0.0 % of DIIS)
  Energy W gradient         ....       0.000 sec  (  0.0 % of DIIS)
  DIIS error                ....       0.016 sec  ( 11.2 % of DIIS)
  DIIS work                 ....       0.115 sec  ( 79.8 % of DIIS)
  Form Q                    ....       0.000 sec  (  0.0 % of DIIS)
  Form QpQm                 ....       0.000 sec  (  0.0 % of DIIS)
  Exp/Cayley                ....       0.000 sec  (  0.0 % of DIIS)
  Orb update                ....       0.000 sec  (  0.0 % of DIIS)
  Wake-sleep                ....       0.002 sec  (  1.2 % of DIIS)
SOSCF solution              ....       0.044 sec  (  0.2%)
  MO trafo                  ....       0.023 sec  ( 52.9 % of SOSCF)
  Orb grad                  ....       0.000 sec  (  0.7 % of SOSCF)
  Rot update                ....       0.004 sec  (  9.9 % of SOSCF)
  Step                      ....       0.016 sec  ( 36.3 % of SOSCF)
Finished LeanSCF after  26.2 sec

Maximum memory used throughout the entire LEANSCF-calculation: 23.8 MB


-------------------------------------------------------------------------------
                          DFT DISPERSION CORRECTION                            
                                                                               
                                DFTD4 V3.4.0                                   
-------------------------------------------------------------------------------
The R2SCAN3C composite method is recognized
Using three-body term ABC
Active option DFTDOPT                   ...         5   

-------------------------   ----------------
Dispersion correction           -0.005275430
-------------------------   ----------------

------------------   -----------------
gCP correction             0.007398643
------------------   -----------------

-------------------------   --------------------
FINAL SINGLE POINT ENERGY      -400.831696138727
-------------------------   --------------------


------------------------------------------------------------------------------
                              ORCA PROPERTY CALCULATIONS
------------------------------------------------------------------------------

GBWName                                 ... sp.gbw
Number of atoms                         ...     16
Number of basis functions               ...    216
Max core memory                         ...   1024 MB

Electric properties:
Dipole moment                           ... YES
Quadrupole moment                       ...  NO
Static polarizability (Dipole/Dipole)   ...  NO
Static polarizability (Dipole/Quad.)    ...  NO
Static polarizability (Quad./Quad.)     ...  NO
Static polarizability (Velocity)        ...  NO

Atomic electric properties:
Dipole moment                           ...  NO
Quadrupole moment                       ...  NO
Static polarizability                   ...  NO

Choice of electric origin               ... Center of mass
Position of electric origin             ...    -0.000020     0.000011    -0.000004

General magnetic properties:
Magnetizability                         ...  NO

EPR properties:
g-Tensor (aka g-matrix)                 ...  NO
Zero-Field splitting spin-orbit         ...  NO
Zero-field splitting spin-spin          ...  NO
Hyperfine couplings                     ...  NO (   0 nuclei)
Quadrupole couplings                    ...  NO (   0 nuclei)
Contact density                         ...  NO (   0 nuclei)

NMR properties:
Chemical shifts                         ...  NO (   0 nuclei)
Spin-rotation constants                 ...  NO (   0 nuclei)
Spin-spin couplings                     ...  NO (   0 nuclei,    0 pairs)

Choice of magnetic origin               ... GIAO
Position of magnetic origin             ...     0.000000     0.000000     0.000000

Properties with geometric perturbations:
SCF Hessian                             ...  NO
IR spectrum                             ...  NO
VCD spectrum                            ...  NO
X-ray spectroscopy properties:
SCF XES/XAS/RIXS spectra                ...  NO


-------------
DIPOLE MOMENT
-------------

Method             : SCF
Type of density    : Electron Density
Multiplicity       :   1
Irrep              :   0
Energy             :  -400.8338193515381818 Eh
Relativity type    : 
Basis              : AO
                                X                 Y                 Z
Electronic contribution:     -2.173317211      -4.405090611       1.083847839
Nuclear contribution   :      1.868733668       6.022461284      -1.437171964
                        -----------------------------------------
Total Dipole Moment    :     -0.304583544       1.617370673      -0.353324125
                        -----------------------------------------
Magnitude (a.u.)       :      1.683299429
Magnitude (Debye)      :      4.278607121



--------------------
Rotational spectrum 
--------------------
 
Rotational constants in cm-1:             0.126578             0.041599             0.031565 
Rotational constants in MHz :          3794.716603          1247.097318           946.288580 

Dipole components along the rotational axes: 
x,y,z [a.u.] :    -0.275217     1.659935    -0.048669 
x,y,z [Debye]:    -0.699547     4.219219    -0.123706 

 

Dipole moment calculation done in   0.5 sec 

Maximum memory used throughout the entire PROP-calculation: 14.4 MB

--------------------------------
SUGGESTED CITATIONS FOR THIS RUN
--------------------------------

Below you find a list of papers that are relevant to this ORCA run
We neither can nor want to force you to cite these papers, but we appreciate if you do
You receive ORCA, which is the product of decades of hard work by many enthusiastic individuals, for free
The only thing we kindly ask in return is that you cite our papers,
We deeply appreciate it, if you show your appreciation for ORCA by not just citing the generic ORCA reference.

Please note that relegating all ORCA citations to the supporting information does *not* help us.
SI sections are not indexed - citations you put there will not count into any citation statistics
But we need these citations in order to attract the funding resources that allow us to do what we are doing

Therefore, if you are a happy ORCA user, please consider citing a few of the papers listed below in the main body of your paper

In addition to the list printed below, the program has created the file sp.bibtex that contains the list in bibtex format
You can import this file easily into all common literature databanks and citation aid programs


List of essential papers. We consider these as the minimum necessary citations

  1. Neese,F.
     Software update: the ORCA program system, version 5.0
     WIRES Comput. Molec. Sci., 2022 12(1)e1606
     doi.org/10.1002/wcms.1606
  2. Grimme,S.; Hansen,A.; Ehlert,S.; Mewes,J.
     r2SCAN-3c: A 'Swiss army knife' composite electronic-structure method
     J. Chem. Phys., 2021 154 064103
     doi.org/10.1063/5.0040021

List of papers to cite with high priority. The work reported in these papers was absolutely
necessary for this run to complete.
Our perspective: the developers of density functionals and basis sets usually get cited in chemistry papers
Good! But without the algorithms to do something with them, the functionals or basis sets would not do anything.
Hence, in our opinion, the algorithm design and method developments papers are equally worthy of getting cited

  1. Neese,F.
     An improvement of the resolution of the identity approximation for the formation of the Coulomb matrix
     J. Comp. Chem., 2003 24(14)1740-1747
     doi.org/10.1002/jcc.10318
  2. Neese,F.
     The SHARK Integral Generation and Digestion System
     J. Comp. Chem., 2022  1-16
     doi.org/10.1002/jcc.26942
  3. Lehtola,S.; Steigemann,C.; Oliveira,M.; Marques,M.
     Recent developments in Libxc - A comprehensive library of functionals for density functional theory
     Software X, 2018 7 
     doi.org/10.1016/j.softx.2017.11.002
  4. Caldeweyher,E.; Bannwarth,C.; Grimme,S.
     Extension of the D3 dispersion coefficient model
     J. Chem. Phys., 2017 147 034112
     doi.org/10.1063/1.4993215
  5. Caldeweyher,E.; Ehlert,S.; Hansen,A.; Neugebauer,H.; Spicher,S.; Bannwarth,C.; Grimme,S.
     A generally applicable atomic-charge dependent London dispersion correction
     J. Chem. Phys., 2019 150 154122
     doi.org/10.1063/1.5090222
  6. Caldeweyher,E.; Mewes,J.; Ehlert,S.; Grimme,S.
     Extension and evaluation of the D4 London-dispersion model for periodic systems
     Phys. Chem. Chem. Phys., 2020 22(16)8499-8512
     doi.org/10.1039/D0CP00502A
  7. Wittmann,L.; Gordiy,I.; Friede,M.; Helmich-Paris,B.; Grimme,S.; Hansen,A.; Bursch,M.
     Extension of the D3 and D4 London Dispersion Corrections to the full Actinides Series
     Phys. Chem. Chem. Phys., 2024 26(32)21379-21394
     doi.org/https://doi.org/10.1039/D4CP01514B 

List of suggested additional citations. These are papers that are important in the 'surrounding' of 
of this run, or papers that preceded the highly important papers. If you like your results we are grateful for a citation.

  1. Neese,F.
     The ORCA program system
     WIRES Comput. Molec. Sci., 2012 2(1)73-78
     doi.org/10.1002/wcms.81
  2. Neese,F.
     Software update: the ORCA program system, version 4.0
     WIRES Comput. Molec. Sci., 2018 8(1)1-6
     doi.org/10.1002/wcms.1327
  3. Neese,F.; Wennmohs,F.; Becker,U.; Riplinger,C.
     The ORCA quantum chemistry program package
     J. Chem. Phys., 2020 152 Art. No. L224108
     doi.org/10.1063/5.0004608

List of optional additional citations

  1. Neese,F.
     Approximate second-order SCF convergence for spin unrestricted wavefunctions
     Chem. Phys. Lett., 2000 325(1-3)93-98
     doi.org/10.1016/s0009-2614(00)00662-x

Timings for individual modules:

Sum of individual times          ...       27.610 sec (=   0.460 min)
Startup calculation              ...        0.766 sec (=   0.013 min)   2.8 %
SCF iterations                   ...       26.294 sec (=   0.438 min)  95.2 %
Property calculations            ...        0.550 sec (=   0.009 min)   2.0 %
                             ****ORCA TERMINATED NORMALLY****
TOTAL RUN TIME: 0 days 0 hours 0 minutes 29 seconds 304 msec
