
                                 *****************
                                 * O   R   C   A *
                                 *****************

                                            #,                                       
                                            ###                                      
                                            ####                                     
                                            #####                                    
                                            ######                                   
                                           ########,                                 
                                     ,,################,,,,,                         
                               ,,#################################,,                 
                          ,,##########################################,,             
                       ,#########################################, ''#####,          
                    ,#############################################,,   '####,        
                  ,##################################################,,,,####,       
                ,###########''''           ''''###############################       
              ,#####''   ,,,,##########,,,,          '''####'''          '####       
            ,##' ,,,,###########################,,,                        '##       
           ' ,,###''''                  '''############,,,                           
         ,,##''                                '''############,,,,        ,,,,,,###''
      ,#''                                            '''#######################'''  
     '                                                          ''''####''''         
             ,#######,   #######,   ,#######,      ##                                
            ,#'     '#,  ##    ##  ,#'     '#,    #''#        ,####,   ,####,        
            ##       ##  ##   ,#'  ##            #'  '#       #'       #'  '#        
            ##       ##  #######   ##           ,######,      #####,   #    #        
            '#,     ,#'  ##    ##  '#,     ,#' ,#      #,     #,   #   #,  ,#        
             '#######'   ##     ##  '#######'  #'      '#     '####' # '####'        



                #########################################################
                #                        -***-                          #
                #          Department of theory and spectroscopy        #
                #                                                       #
                #                      Frank Neese                      #
                #                                                       #
                #     Directorship, Architecture, Infrastructure        #
                #                    SHARK, DRIVERS                     #
                #        Core code/Algorithms in most modules           #
                #                                                       #
                #        Max Planck Institute fuer Kohlenforschung      #
                #                Kaiser Wilhelm Platz 1                 #
                #                 D-45470 Muelheim/Ruhr                 #
                #                      Germany                          #
                #                                                       #
                #                  All rights reserved                  #
                #                        -***-                          #
                #########################################################


                         Program Version 6.0.1  -  RELEASE   -


 With contributions from (in alphabetic order):
[Max-Planck-Institut fuer Kohlenforschung]                               
  Daniel Aravena         : Magnetic Suceptibility                        
  Michael Atanasov       : Ab Initio Ligand Field Theory (pilot matlab implementation)
  Alexander A. Auer      : GIAO ZORA, VPT2 properties, NMR spectrum      
  Ute Becker             : All parallelization in ORCA, NUMFREQ, NUMCALC 
  Giovanni Bistoni       : ED, misc. LED, open-shell LED, HFLD           
  Martin Brehm           : Molecular dynamics                            
  Dmytro Bykov           : pre 5.0 version of the SCF Hessian            
  Marcos Casanova-Páez   : Triplet and SCS-CIS(D). UHF-(DLPNO)-IP/EA/STEOM-CCSD. UHF-CVS-IP/STEOM-CCSD   
  Vijay G. Chilkuri      : MRCI spin determinant printing, contributions to CSF-ICE 
  Pauline Colinet        : FMM embedding                                 
  Dipayan Datta          : RHF DLPNO-CCSD density                        
  Achintya Kumar Dutta   : EOM-CC, STEOM-CC                              
  Nicolas Foglia         : Exact transition moments, OPA infrastructure, MCD improvements    
  Dmitry Ganyushin       : Spin-Orbit,Spin-Spin,Magnetic field MRCI      
  Miquel Garcia-Rates    : C-PCM and meta-GGA Hessian, CCSD/C-PCM, Gaussian charge scheme 
  Tiago L. C. Gouveia    : GS-ROHF, GS-ROCIS                             
  Yang Guo               : DLPNO-NEVPT2, F12-NEVPT2, CIM, IAO-localization        
  Andreas Hansen         : Spin unrestricted coupled pair/coupled cluster methods 
  Ingolf Harden          : AUTO-CI MPn and infrastructure                
  Benjamin Helmich-Paris : MC-RPA, TRAH-(SCF,CASSCF), AVAS, COSX integrals, SCF dyn. polar. 
  Lee Huntington         : MR-EOM, pCC                                   
  Robert Izsak           : Overlap fitted RIJCOSX, COSX-SCS-MP3, EOM     
  Riya Kayal             : Wick's Theorem for AUTO-CI, AUTO-CI UHF-CCSDT 
  Emily Kempfer          : AUTO-CI, RHF CISDT and CCSDT                  
  Christian Kollmar      : KDIIS, OOCD, Brueckner-CCSD(T), CCSD density, CASPT2, CASPT2-K, improved NEVPT2 
  Axel Koslowski         : Symmetry handling                             
  Simone Kossmann        : meta-GGA functionals, TD-DFT gradient, OOMP2, (MP2 Hessian; deprecated post 5.0) 
  Lucas Lang             : DCDCAS                                        
  Marvin Lechner         : AUTO-CI (C++ implementation), FIC-MRCC        
  Spencer Leger          : CASSCF response                               
  Dagmar Lenk            : GEPOL surface, SMD, ORCA-2-JSON               
  Dimitrios Liakos       : Extrapolation schemes; Compound Job, initial MDCI parallelization 
  Dimitrios Manganas     : Further ROCIS development; embedding schemes. LFT, Crystal Embedding 
  Dimitrios Pantazis     : SARC Basis sets                               
  Anastasios Papadopoulos: AUTO-CI, single reference methods and gradients 
  Taras Petrenko         : pre 6.0 DFT Hessian and TD-DFT gradient, (ASA, deprecated), ECA, 1-Electron XAS/XES, NRVS 
  Peter Pinski           : DLPNO-MP2, DLPNO-MP2 Gradient                 
  Christoph Reimann      : Effective Core Potentials                     
  Marius Retegan         : Local ZFS, SOC                                
  Christoph Riplinger    : Optimizer, TS searches, QM/MM, DLPNO-CCSD(T), (RO)-DLPNO pert. Triples 
  Michael Roemelt        : Original ROCIS implementation                 
  Masaaki Saitow         : Open-shell DLPNO-CCSD energy and density      
  Barbara Sandhoefer     : DKH picture change effects                    
  Kantharuban Sivalingam : CASSCF convergence/infrastructure, NEVPT2 and variants, FIC-MRCI 
  Bernardo de Souza      : ESD, SOC TD-DFT                               
  Georgi L. Stoychev     : AutoAux, RI-MP2 NMR, DLPNO-MP2 response, X2C  
  Van Anh Tran           : RI-MP2 g-tensors                              
  Willem Van den Heuvel  : Paramagnetic NMR                              
  Zikuan Wang            : NOTCH, Electric field optimization            
  Frank Wennmohs         : Technical directorship and infrastructure     
  Hang Xu                : AUTO-CI-Response properties                   
                                                                         
[FACCTs GmbH]                                                            
  Markus Bursch, Miquel Garcia-Rates, Christoph Riplinger, Bernardo de Souza, Georgi L. Stoychev 
                                                                 
  APM, Basis sets (HGBS, AHGBS, def-TZVP (Ac-Lr), def2-XVPD (La-Lu)), CI-OPT, improved COSX, DLPNO-Multilevel,           
  DOCKER, DRACO, updates on ESD, GOAT, IRC, LR-CPCM, MBIS, meta-GGA TD-DFT gradient, ML-optimized integration grids, 
  MM, NACMEs, nearIR, NEB, NEB-TS, NL-DFT gradient (VV10), 2- and 3-layer-ONIOM, interface openCOSMO-RS, QMMM,   
  Crystal-QMMM, SF, symmetry and pop. for TD-DFT, r2SCAN hybrids, SOLVATOR                                   
                                                                         
[Other institutions]                                                     
  V. Asgeirsson          : NEB                                           
  Christoph Bannwarth    : sTDA-DFT, sTD-DFT, PBEh-3c, B97-3c, D3        
  Sebastian Ehlert       : rSCAN, r2SCAN, r2SCAN-3c, D4, dhf basis sets  
  Marvin Friede          : D4 for Fr, Ra, Ac-Lr                          
  Lars Goerigk           : TD-DFT with DH, B97 family of functionals     
  Stefan Grimme          : VdW corrections, initial TS optimization, DFT functionals, gCP, sTDA/sTD-DF 
  Waldemar Hujo          : DFT-NL                                        
  H. Jonsson             : NEB                                           
  Holger Kruse           : gCP                                           
  Marcel Mueller         : wB97X-3c, vDZP basis set                      
  Hagen Neugebauer       : wr2SCAN                                       
  Tobias Risthaus        : range-separated hybrid DFT                    
  Lukas Wittmann         : regularized MP2, r2SCAN double-hybrids, wr2SCAN        
                                                                         
We gratefully acknowledge several colleagues who have allowed us to      
interface, adapt or use parts of their codes:                            
  Ed Valeev, F. Pavosevic, A. Kumar             : LibInt (2-el integral package), F12 methods 
  Garnet Chan, S. Sharma, J. Yang, R. Olivares  : DMRG                   
  Ulf Ekstrom                                   : XCFun DFT Library      
  Mihaly Kallay                                 : mrcc  (arbitrary order and MRCC methods)
  Frank Weinhold                                : gennbo (NPA and NBO analysis)           
  Simon Mueller                                 : openCOSMO-RS                            
  Christopher J. Cramer and Donald G. Truhlar   : smd solvation model                     
  S Lehtola, MJT Oliveira, MAL Marques          : LibXC Library                           
  Liviu Ungur et al                             : ANISO software                          


 Your calculation uses the libint2 library for the computation of 2-el integrals
 For citations please refer to: http://libint.valeyev.net

 Your ORCA version has been built with support for libXC version: 6.2.2
 For citations please refer to: https://libxc.gitlab.io

 This ORCA versions uses:
   CBLAS   interface :  Fast vector & matrix operations
   LAPACKE interface :  Fast linear algebra routines
   SCALAPACK package :  Parallel linear algebra routines
   Shared memory     :  Shared parallel matrices
   BLAS/LAPACK       :  OpenBLAS 0.3.27  USE64BITINT DYNAMIC_ARCH NO_AFFINITY Zen SINGLE_THREADED
        Core in use  :  Zen
   Copyright (c) 2011-2014, The OpenBLAS Project


Your calculation utilizes the geometrical counterpoise correction gCP
Please cite in your paper:
H.Kruse, S. Grimme J.Chem.Phys., 136, (2012), 154101 
   

Your calculation utilizes the atom-pairwise dispersion correction
based on EEQ partial charges (D4)


================================================================================

----- Orbital basis set information -----
Your calculation utilizes the basis: def2-mTZVPP
   Stefan Grimme, Andreas Hansen, Sebastian Ehlert, and Jan-Michael Mewes 
   J. Chem. Phys. 154, 064103 (2021). DOI: 10.1063/5.0040021

----- AuxJ basis set information -----
Your calculation utilizes the auxiliary basis: def2/J
   F. Weigend, Phys. Chem. Chem. Phys. 8, 1057 (2006).

================================================================================
                                        WARNINGS
                       Please study these warnings very carefully!
================================================================================



WARNING: SCAN, rSCAN, or r2SCAN functional requested.
  ===> : libXC variant has now been activated.



================================================================================
                                       INPUT FILE
================================================================================
NAME = sp.inp
|  1> ! r2scan-3c def2/J RI DEFGRID2 scfconv6 printgap
|  2> %output
|  3>     printlevel normal
|  4> end
|  5> * xyz 0 1
|  6> C -1.9553131937 0.1467791149 -0.0032799504
|  7> C -0.5905640242 -0.5280449966 0.0203099054
|  8> C 0.5440339626 0.4959470048 -0.0282063496
|  9> O 1.8193726753 -0.0957554316 0.0532968739
| 10> H -2.0717456702 0.7412813688 -0.9069707095
| 11> H -2.7474382219 -0.5972988213 0.0236193798
| 12> H -2.0701737786 0.8038407117 0.8555075422
| 13> H -0.5002613421 -1.2031152387 -0.8362035675
| 14> H -0.485455159 -1.1248757534 0.9285481544
| 15> H 0.4587504873 1.0993218776 -0.9449326118
| 16> H 0.4812955025 1.1680179441 0.8308945296
| 17> H 1.9099941092 -0.7337893302 -0.6633095553
| 18> *
| 19> 
| 20>                          ****END OF INPUT****
================================================================================

                       ****************************
                       * Single Point Calculation *
                       ****************************

---------------------------------
CARTESIAN COORDINATES (ANGSTROEM)
---------------------------------
  C     -1.955313    0.146779   -0.003280
  C     -0.590564   -0.528045    0.020310
  C      0.544034    0.495947   -0.028206
  O      1.819373   -0.095755    0.053297
  H     -2.071746    0.741281   -0.906971
  H     -2.747438   -0.597299    0.023619
  H     -2.070174    0.803841    0.855508
  H     -0.500261   -1.203115   -0.836204
  H     -0.485455   -1.124876    0.928548
  H      0.458750    1.099322   -0.944933
  H      0.481296    1.168018    0.830895
  H      1.909994   -0.733789   -0.663310

----------------------------
CARTESIAN COORDINATES (A.U.)
----------------------------
  NO LB      ZA    FRAG     MASS         X           Y           Z
   0 C     6.0000    0    12.011   -3.695006    0.277372   -0.006198
   1 C     6.0000    0    12.011   -1.116004   -0.997860    0.038380
   2 C     6.0000    0    12.011    1.028075    0.937204   -0.053302
   3 O     8.0000    0    15.999    3.438116   -0.180952    0.100716
   4 H     1.0000    0     1.008   -3.915032    1.400819   -1.713926
   5 H     1.0000    0     1.008   -5.191906   -1.128731    0.044634
   6 H     1.0000    0     1.008   -3.912061    1.519039    1.616675
   7 H     1.0000    0     1.008   -0.945357   -2.273558   -1.580196
   8 H     1.0000    0     1.008   -0.917377   -2.125707    1.754702
   9 H     1.0000    0     1.008    0.866913    2.077417   -1.785664
  10 H     1.0000    0     1.008    0.909517    2.207234    1.570163
  11 H     1.0000    0     1.008    3.609366   -1.386661   -1.253473

--------------------------------
INTERNAL COORDINATES (ANGSTROEM)
--------------------------------
 C      0   0   0     0.000000000000     0.00000000     0.00000000
 C      1   0   0     1.522657006160     0.00000000     0.00000000
 C      2   1   0     1.529125906386   111.57791959     0.00000000
 O      3   2   1     1.408276741551   112.87665871   177.30205521
 H      1   2   3     1.087955164315   110.54638785    59.49986234
 H      1   2   3     1.087123548363   110.44796772   179.53770189
 H      1   2   3     1.087400042946   110.50172903   299.58337190
 H      2   1   3     1.094298741397   109.58707113   239.06801632
 H      2   1   3     1.091856924122   109.96375736   120.72615827
 H      3   2   1     1.100782243722   109.63328185   300.82762311
 H      3   2   1     1.092551958705   110.14372320    59.84525818
 H      4   3   2     0.963755297996   108.67979392    57.06933207

---------------------------
INTERNAL COORDINATES (A.U.)
---------------------------
 C      0   0   0     0.000000000000     0.00000000     0.00000000
 C      1   0   0     2.877404737540     0.00000000     0.00000000
 C      2   1   0     2.889629187354   111.57791959     0.00000000
 O      3   2   1     2.661257362303   112.87665871   177.30205521
 H      1   2   3     2.055937306540   110.54638785    59.49986234
 H      1   2   3     2.054365780143   110.44796772   179.53770189
 H      1   2   3     2.054888279182   110.50172903   299.58337190
 H      2   1   3     2.067924929935   109.58707113   239.06801632
 H      2   1   3     2.063310564016   109.96375736   120.72615827
 H      3   2   1     2.080176973717   109.63328185   300.82762311
 H      3   2   1     2.064623989031   110.14372320    59.84525818
 H      4   3   2     1.821233573328   108.67979392    57.06933207

---------------------
BASIS SET INFORMATION
---------------------
There are 3 groups of distinct atoms

 Group   1 Type C   : 11s6p1d contracted to 5s3p1d pattern {62111/411/1}
 Group   2 Type O   : 11s6p2d contracted to 5s3p2d pattern {62111/411/11}
 Group   3 Type H   : 4s1p contracted to 2s1p pattern {31/1}

Atom   0C    basis set group =>   1
Atom   1C    basis set group =>   1
Atom   2C    basis set group =>   1
Atom   3O    basis set group =>   2
Atom   4H    basis set group =>   3
Atom   5H    basis set group =>   3
Atom   6H    basis set group =>   3
Atom   7H    basis set group =>   3
Atom   8H    basis set group =>   3
Atom   9H    basis set group =>   3
Atom  10H    basis set group =>   3
Atom  11H    basis set group =>   3
---------------------------------
AUXILIARY/J BASIS SET INFORMATION
---------------------------------
There are 3 groups of distinct atoms

 Group   1 Type C   : 12s5p4d2f1g contracted to 6s4p3d1f1g pattern {711111/2111/211/2/1}
 Group   2 Type O   : 12s5p4d2f1g contracted to 6s4p3d1f1g pattern {711111/2111/211/2/1}
 Group   3 Type H   : 5s2p1d contracted to 3s1p1d pattern {311/2/1}

Atom   0C    basis set group =>   1
Atom   1C    basis set group =>   1
Atom   2C    basis set group =>   1
Atom   3O    basis set group =>   2
Atom   4H    basis set group =>   3
Atom   5H    basis set group =>   3
Atom   6H    basis set group =>   3
Atom   7H    basis set group =>   3
Atom   8H    basis set group =>   3
Atom   9H    basis set group =>   3
Atom  10H    basis set group =>   3
Atom  11H    basis set group =>   3

Checking for AutoStart:
The File: sp.gbw exists
Trying to determine its content:
     ... Fine, the file contains calculation information
     ... Fine, the calculation information was read
     ... Fine, the file contains a basis set
     ... Fine, the basis set was read
     ... Fine, the file contains a geometry
     ... Fine, the geometry was read
     ... Fine, the file contains a set of orbitals
     ... Fine, the orbitals can be read
     => possible old guess file was deleted
     => GBW file was renamed to GES file
     => GES file is set as startup file
     => Guess is set to MORead
     ... now leaving AutoStart

------------------------------------------------------------------------------
                             ORCA STARTUP CALCULATIONS
                           -- RI-GTO INTEGRALS CHOSEN --
------------------------------------------------------------------------------
------------------------------------------------------------------------------
                   ___                                                        
                  /   \      - P O W E R E D   B Y -                         
                 /     \                                                     
                 |  |  |   _    _      __       _____    __    __             
                 |  |  |  | |  | |    /  \     |  _  \  |  |  /  |          
                  \  \/   | |  | |   /    \    | | | |  |  | /  /          
                 / \  \   | |__| |  /  /\  \   | |_| |  |  |/  /          
                |  |  |   |  __  | /  /__\  \  |    /   |      \           
                |  |  |   | |  | | |   __   |  |    \   |  |\   \          
                \     /   | |  | | |  |  |  |  | |\  \  |  | \   \       
                 \___/    |_|  |_| |__|  |__|  |_| \__\ |__|  \__/        
                                                                              
                      - O R C A' S   B I G   F R I E N D -                    
                                      &                                       
                       - I N T E G R A L  F E E D E R -                       
                                                                              
 v1 FN, 2020, v2 2021, v3 2022-2024                                           
------------------------------------------------------------------------------


----------------------
SHARK INTEGRAL PACKAGE
----------------------

Number of atoms                             ...     12
Number of basis functions                   ...    121
Number of shells                            ...     61
Maximum angular momentum                    ...      2
Integral batch strategy                     ... SHARK/LIBINT Hybrid
RI-J (if used) integral strategy            ... SPLIT-RIJ (Revised 2003 algorithm where possible)
Printlevel                                  ...      1
Contraction scheme used                     ... SEGMENTED contraction
Prescreening option                         ... SCHWARTZ
   Thresh                                   ... 1.000e-10
   Tcut                                     ... 1.000e-11
   Tpresel                                  ... 1.000e-11 
Coulomb Range Separation                    ... NOT USED
Exchange Range Separation                   ... NOT USED
Multipole approximations                    ... NOT USED
Finite Nucleus Model                        ... NOT USED
CABS basis                                  ... NOT available
Auxiliary Coulomb fitting basis             ... AVAILABLE
   # of basis functions in Aux-J            ...    284
   # of shells in Aux-J                     ...    100
   Maximum angular momentum in Aux-J        ...      4
Auxiliary J/K fitting basis                 ... NOT available
Auxiliary Correlation fitting basis         ... NOT available
Auxiliary 'external' fitting basis          ... NOT available

Checking pre-screening integrals            ... done (  0.0 sec) Dimension = 61
Check shell pair data                       ... done (  0.0 sec)
Shell pair information
Shell pair cut-off parameter TPreSel        ...   1.0e-11
Total number of shell pairs                 ...      1891
Shell pairs after pre-screening             ...      1821
Total number of primitive shell pairs       ...      6553
Primitive shell pairs kept                  ...      4974
          la=0 lb=0:    635 shell pairs
          la=1 lb=0:    695 shell pairs
          la=1 lb=1:    204 shell pairs
          la=2 lb=0:    175 shell pairs
          la=2 lb=1:     97 shell pairs
          la=2 lb=2:     15 shell pairs

Calculating one electron integrals          ... done (  0.0 sec)
Calculating RI/J V-Matrix + Cholesky decomp.... done (  0.0 sec)
Calculating Nuclear repulsion               ... done (  0.0 sec) ENN=    130.751050649102 Eh

Diagonalization of the overlap matrix:
Smallest eigenvalue                        ... 3.893e-04
Time for diagonalization                   ...    0.002 sec
Threshold for overlap eigenvalues          ... 1.000e-07
Number of eigenvalues below threshold      ... 0
Time for construction of square roots      ...    0.003 sec
Total time needed                          ...    0.006 sec

-------------------
DFT GRID GENERATION
-------------------

General Integration Accuracy     IntAcc      ... 4.388
Radial Grid Type                 RadialGrid  ... OptM3 with GC (2021)
Angular Grid (max. ang.)         AngularGrid ... 4 (Lebedev-302)
Angular grid pruning method      GridPruning ... 4 (adaptive)
Weight generation scheme         WeightScheme... mBecke (2022)
Basis function cutoff            BFCut       ... 1.0000e-10
Integration weight cutoff        WCut        ... 1.0000e-14
Partially contracted basis set               ... off
Rotationally invariant grid construction     ... off
Angular grids for H and He will be reduced by one unit
Diffuse basis detected: some atoms will have their outermost
                        angular grid increased by 1.

Total number of grid points                  ...    50381
Total number of batches                      ...      795
Average number of points per batch           ...       63
Average number of grid points per atom       ...     4198
Initializing property integral containers    ... done (  0.0 sec)

SHARK setup successfully completed in   0.4 seconds

Maximum memory used throughout the entire STARTUP-calculation: 22.0 MB
-------------------------------------------------------------------------------
                                 ORCA GUESS
                   Start orbitals & Density for SCF / CASSCF
-------------------------------------------------------------------------------

------------
SCF SETTINGS
------------
Hamiltonian:
 Density Functional     Method          .... DFT(GTOs)
  Functional kind                       .... Exchange
  Functional name                       .... Re-regularized SCAN exchange by Furness et al
  Functional family                     .... MGGA
  Functional refs                              
    [ 0] J. W. Furness, A. D. Kaplan, J. Ning, J. P. Perdew, and J. Sun.,  J. Phys. Chem. Lett. 11, 8208-8215 (2020), doi: 10.1021/acs.jpclett.0c02405
    [ 1] J. W. Furness, A. D. Kaplan, J. Ning, J. P. Perdew, and J. Sun.,  J. Phys. Chem. Lett. 11, 9248-9248 (2020), doi: 10.1021/acs.jpclett.0c03077
  Functional external parameters        .... 6
    Parameter  0 _c1        =  6.670000e-01 : c1 parameter        
    Parameter  1 _c2        =  8.000000e-01 : c2 parameter        
    Parameter  2 _d         =  1.240000e+00 : d parameter         
    Parameter  3 _k1        =  6.500000e-02 : k1 parameter        
    Parameter  4 _eta       =  1.000000e-03 : eta parameter       
    Parameter  5 _dp2       =  3.610000e-01 : dp2 parameter       
  Functional kind                       .... Correlation
  Functional name                       .... Re-regularized SCAN correlation by Furness et al
  Functional family                     .... MGGA
  Functional refs                              
    [ 0] J. W. Furness, A. D. Kaplan, J. Ning, J. P. Perdew, and J. Sun.,  J. Phys. Chem. Lett. 11, 8208-8215 (2020), doi: 10.1021/acs.jpclett.0c02405
    [ 1] J. W. Furness, A. D. Kaplan, J. Ning, J. P. Perdew, and J. Sun.,  J. Phys. Chem. Lett. 11, 9248-9248 (2020), doi: 10.1021/acs.jpclett.0c03077
  Functional external parameters        .... 1
    Parameter  0 _eta       =  1.000000e-03 : Regularization parameter
 Gradients option       PostSCFGGA      .... off
 RI-approximation to the Coulomb term is turned on
   Number of AuxJ basis functions       .... 284


General Settings:
 Integral files         IntName         .... sp
 Hartree-Fock type      HFTyp           .... RHF
 Total Charge           Charge          ....    0
 Multiplicity           Mult            ....    1
 Number of Electrons    NEL             ....   34
 Basis Dimension        Dim             ....  121
 Nuclear Repulsion      ENuc            ....    130.7510506491 Eh

Convergence Acceleration:
 AO-DIIS                CNVDIIS         .... on
   Start iteration      DIISMaxIt       ....    12
   Startup error        DIISStart       ....  0.200000
   # of expansion vecs  DIISMaxEq       ....     5
   Bias factor          DIISBfac        ....   1.050
   Max. coefficient     DIISMaxC        ....  10.000
 MO-DIIS                CNVKDIIS        .... off
 Trust-Rad. Augm. Hess. CNVTRAH         .... auto
   Auto Start mean grad. ratio tolernc. ....  1.125000
   Auto Start start iteration           ....     1
   Auto Start num. interpolation iter.  ....    10
   Max. Number of Micro iterations      ....    24
   Max. Number of Macro iterations      .... Maxiter - #DIIS iter
   Number of Davidson start vectors     ....     2
   Converg. threshold    (grad. norm)   ....   3.330e-04
   Grad. Scal. Fac. for Micro threshold ....   0.100
   Minimum threshold for Micro iter.    ....   1.000e-02
   NR start threshold (gradient norm)   ....   1.000e-04
   Initial trust radius                 ....   0.400
   Minimum AH scaling param. (alpha)    ....   1.000
   Maximum AH scaling param. (alpha)    .... 1000.000
   Quad. conv. algorithm                .... NR
   White noise on init. David. guess    .... on
   Maximum white noise                  ....   0.010
   Pseudo random numbers                .... off
   Inactive MOs                         .... canonical
   Orbital update algorithm             .... Taylor
   Preconditioner                       .... Diag
   Full preconditioner red. dimension   ....   250
   COSX micro iterations for RIJONX calc.... off
 SOSCF                  CNVSOSCF        .... on
   Start iteration      SOSCFMaxIt      ....   150
   Startup grad/error   SOSCFStart      ....  0.003300
   Hessian update       SOSCFHessUp     .... L-BFGS
 Level Shifting         CNVShift        .... on
   Level shift para.    LevelShift      ....    0.2500
   Turn off err/grad.   ShiftErr        ....    0.0010
 Zerner damping         CNVZerner       .... off
 Static damping         CNVDamp         .... on
   Fraction old density DampFac         ....    0.7000
   Max. Damping (<1)    DampMax         ....    0.9800
   Min. Damping (>=0)   DampMin         ....    0.0000
   Turn off err/grad.   DampErr         ....    0.1000

SCF Procedure:
 Maximum # iterations   MaxIter         ....   125
 SCF integral mode      SCFMode         .... Direct
   Integral package                     .... SHARK and LIBINT hybrid scheme
 Reset frequency        DirectResetFreq ....    20
 Integral Threshold     Thresh          ....  1.000e-10 Eh
 Primitive CutOff       TCut            ....  1.000e-11 Eh

Convergence Tolerance:
 Convergence Check Mode ConvCheckMode   .... Total+1el-Energy
 Convergence forced     ConvForced      .... 0
 Energy Change          TolE            ....  1.000e-06 Eh
 1-El. energy change                    ....  1.000e-03 Eh
 Orbital Gradient       TolG            ....  3.330e-04
 Orbital Rotation angle TolX            ....  3.330e-04
 DIIS Error             TolErr          ....  1.000e-06

---------------------
INITIAL GUESS: MOREAD
---------------------
Guess MOs are being read from file: sp.ges
Input Geometry matches current geometry (good)
Atom 0: N(Shells)= 9 and 6 - projection required
Input basis set needs projection
NBasis(read)= 72
NBasis(calc)= 121
Basis set overlap was calculated
Using GuessMode=FMatrix for the initial guess
C*T matrix was formed
Effective Fockian was calculated
Effective Fockian was diagonalized
Initial density was built
                      ------------------
                      INITIAL GUESS DONE (   0.0 sec)
                      ------------------
             **** ENERGY FILE WAS UPDATED (sp.en.tmp) ****
Finished Guess after   0.1 sec
Maximum memory used throughout the entire GUESS-calculation: 8.9 MB

-------------------------------------------------------------------------------------------
                                      ORCA LEAN-SCF
                              memory conserving SCF solver
-------------------------------------------------------------------------------------------

----------------------------------------D-I-I-S--------------------------------------------
Iteration    Energy (Eh)           Delta-E    RMSDP     MaxDP     DIISErr   Damp  Time(sec)
-------------------------------------------------------------------------------------------
               ***  Starting incremental Fock matrix formation  ***
    1    -194.1899564817759369     0.00e+00  3.69e-03  7.95e-02  6.24e-01  0.700   0.6
    2    -194.2236075297167872    -3.37e-02  3.11e-03  6.66e-02  4.38e-01  0.700   0.6
    3    -194.2474880433489943    -2.39e-02  2.31e-03  4.88e-02  3.07e-01  0.700   0.6
    4    -194.2642699490490372    -1.68e-02  1.66e-03  3.48e-02  2.15e-01  0.700   0.6
                               ***Turning on AO-DIIS***
    5    -194.2760507396488379    -1.18e-02  1.21e-03  2.48e-02  1.51e-01  0.700   0.6
    6    -194.2843153301334951    -8.26e-03  8.60e-04  1.75e-02  1.05e-01  0.700   0.6
    7    -194.2901121172919829    -5.80e-03  6.08e-04  1.23e-02  7.38e-02  0.700   0.5
    8    -194.2941759270219109    -4.06e-03  1.43e-03  2.88e-02  5.17e-02  0.000   0.6
                              *** Initializing SOSCF ***
---------------------------------------S-O-S-C-F--------------------------------------
Iteration    Energy (Eh)           Delta-E    RMSDP     MaxDP     MaxGrad    Time(sec)
--------------------------------------------------------------------------------------
    9    -194.3036773371429149    -9.50e-03  9.37e-06  1.23e-04  1.56e-04     0.6
               *** Restarting incremental Fock matrix formation ***
   10    -194.3036774082220290    -7.11e-08  7.92e-06  1.11e-04  2.87e-05     0.6
                  *** Gradient check signals convergence ***

               *****************************************************
               *                     SUCCESS                       *
               *           SCF CONVERGED AFTER  10 CYCLES          *
               *****************************************************

             **** ENERGY FILE WAS UPDATED (sp.en.tmp) ****

----------------
TOTAL SCF ENERGY
----------------

Total Energy       :       -194.30367740822203 Eh           -5287.27186 eV

Components:
Nuclear Repulsion  :        130.75105064910224 Eh            3557.91697 eV
Electronic Energy  :       -325.05472805732427 Eh           -8845.18883 eV
One Electron Energy:       -521.53603204899093 Eh          -14191.71692 eV
Two Electron Energy:        196.48130399166664 Eh            5346.52809 eV

Virial components:
Potential Energy   :       -387.77655632038511 Eh          -10551.93655 eV
Kinetic Energy     :        193.47287891216305 Eh            5264.66469 eV
Virial Ratio       :          2.00429413414805

DFT components:
N(Alpha)           :       16.999970689194 electrons
N(Beta)            :       16.999970689194 electrons
N(Total)           :       33.999941378389 electrons
E(X)               :      -26.740883865793 Eh       
E(C)               :       -1.061418190820 Eh       
E(XC)              :      -27.802302056613 Eh       

---------------
SCF CONVERGENCE
---------------

  Last Energy change         ...    7.1079e-08  Tolerance :   1.0000e-06
  Last MAX-Density change    ...    1.1110e-04  Tolerance :   1.0000e-05
  Last RMS-Density change    ...    7.9181e-06  Tolerance :   1.0000e-06
  Last DIIS Error            ...    1.5595e-04  Tolerance :   1.0000e-06
  Last Orbital Gradient      ...    2.8750e-05  Tolerance :   3.3300e-04
  Last Orbital Rotation      ...    3.8942e-05  Tolerance :   3.3300e-04


----------------
ORBITAL ENERGIES
----------------

  NO   OCC          E(Eh)            E(eV) 
   0   2.0000     -18.945058      -515.5212 
   1   2.0000     -10.072643      -274.0905 
   2   2.0000     -10.029086      -272.9053 
   3   2.0000     -10.023199      -272.7451 
   4   2.0000      -0.984229       -26.7822 
   5   2.0000      -0.747629       -20.3440 
   6   2.0000      -0.640266       -17.4225 
   7   2.0000      -0.566843       -15.4246 
   8   2.0000      -0.474084       -12.9005 
   9   2.0000      -0.435464       -11.8496 
  10   2.0000      -0.393001       -10.6941 
  11   2.0000      -0.386258       -10.5106 
  12   2.0000      -0.357403        -9.7254 
  13   2.0000      -0.325500        -8.8573 
  14   2.0000      -0.313978        -8.5438 
  15   2.0000      -0.287513        -7.8236 
  16   2.0000      -0.233677        -6.3587 
  17   0.0000       0.063887         1.7385 
  18   0.0000       0.096255         2.6192 
  19   0.0000       0.131456         3.5771 
  20   0.0000       0.139280         3.7900 
  21   0.0000       0.142524         3.8783 
  22   0.0000       0.157220         4.2782 
  23   0.0000       0.178998         4.8708 
  24   0.0000       0.192930         5.2499 
  25   0.0000       0.200193         5.4475 
  26   0.0000       0.213423         5.8075 
  27   0.0000       0.215846         5.8735 
*Only the first 10 virtual orbitals were printed.

                    ********************************
                    * MULLIKEN POPULATION ANALYSIS *
                    ********************************

-----------------------
MULLIKEN ATOMIC CHARGES
-----------------------
   0 C :   -0.466713
   1 C :   -0.210609
   2 C :   -0.153776
   3 O :   -0.414217
   4 H :    0.140751
   5 H :    0.148034
   6 H :    0.143003
   7 H :    0.119968
   8 H :    0.148186
   9 H :    0.121817
  10 H :    0.133067
  11 H :    0.290489
Sum of atomic charges:    0.0000000

--------------------------------
MULLIKEN REDUCED ORBITAL CHARGES
--------------------------------
  0 C s       :     3.313612  s :     3.313612
      pz      :     1.077563  p :     3.126122
      px      :     0.985766
      py      :     1.062794
      dz2     :     0.004884  d :     0.026979
      dxz     :     0.002480
      dyz     :     0.007484
      dx2y2   :     0.004404
      dxy     :     0.007727

  1 C s       :     3.171203  s :     3.171203
      pz      :     1.096592  p :     3.003493
      px      :     0.921061
      py      :     0.985840
      dz2     :     0.005608  d :     0.035913
      dxz     :     0.003968
      dyz     :     0.010167
      dx2y2   :     0.006305
      dxy     :     0.009865

  2 C s       :     3.311197  s :     3.311197
      pz      :     1.088720  p :     2.782899
      px      :     0.751607
      py      :     0.942573
      dz2     :     0.007815  d :     0.059679
      dxz     :     0.008399
      dyz     :     0.012492
      dx2y2   :     0.014486
      dxy     :     0.016487

  3 O s       :     3.760723  s :     3.760723
      pz      :     1.620458  p :     4.640566
      px      :     1.445779
      py      :     1.574329
      dz2     :     0.002796  d :     0.012928
      dxz     :     0.000346
      dyz     :     0.004835
      dx2y2   :     0.002856
      dxy     :     0.002095

  4 H s       :     0.840957  s :     0.840957
      pz      :     0.008615  p :     0.018292
      px      :     0.003733
      py      :     0.005944

  5 H s       :     0.833589  s :     0.833589
      pz      :     0.003747  p :     0.018377
      px      :     0.007663
      py      :     0.006967

  6 H s       :     0.838707  s :     0.838707
      pz      :     0.008158  p :     0.018291
      px      :     0.003705
      py      :     0.006428

  7 H s       :     0.862120  s :     0.862120
      pz      :     0.007940  p :     0.017912
      px      :     0.003477
      py      :     0.006496

  8 H s       :     0.834063  s :     0.834063
      pz      :     0.008596  p :     0.017751
      px      :     0.003398
      py      :     0.005757

  9 H s       :     0.861221  s :     0.861221
      pz      :     0.008636  p :     0.016962
      px      :     0.002482
      py      :     0.005844

 10 H s       :     0.849643  s :     0.849643
      pz      :     0.008353  p :     0.017290
      px      :     0.002423
      py      :     0.006514

 11 H s       :     0.665895  s :     0.665895
      pz      :     0.017812  p :     0.043616
      px      :     0.009061
      py      :     0.016744


------------------------
MULLIKEN OVERLAP CHARGES
------------------------
B(  0-C ,  1-C ) :   0.3817 B(  0-C ,  2-C ) :  -0.1388 B(  0-C ,  4-H ) :   0.8432 
B(  0-C ,  5-H ) :   0.7890 B(  0-C ,  6-H ) :   0.8461 B(  0-C ,  7-H ) :  -0.0582 
B(  1-C ,  2-C ) :   0.5210 B(  1-C ,  3-O ) :  -0.1457 B(  1-C ,  4-H ) :  -0.0863 
B(  1-C ,  5-H ) :  -0.0586 B(  1-C ,  6-H ) :  -0.0923 B(  1-C ,  7-H ) :   0.8151 
B(  1-C ,  8-H ) :   0.8176 B(  1-C ,  9-H ) :  -0.1721 B(  1-C , 10-H ) :  -0.0658 
B(  2-C ,  3-O ) :   0.4554 B(  2-C ,  7-H ) :  -0.0681 B(  2-C ,  8-H ) :  -0.0714 
B(  2-C ,  9-H ) :   0.8871 B(  2-C , 10-H ) :   0.8294 B(  2-C , 11-H ) :  -0.0973 
B(  3-O ,  9-H ) :  -0.1151 B(  3-O , 10-H ) :  -0.1038 B(  3-O , 11-H ) :   0.5841 
B(  4-H ,  6-H ) :  -0.0525 B(  7-H ,  8-H ) :  -0.0555 B(  9-H , 10-H ) :  -0.0715 



                     *******************************
                     * LOEWDIN POPULATION ANALYSIS *
                     *******************************

----------------------
LOEWDIN ATOMIC CHARGES
----------------------
   0 C :   -0.423209
   1 C :   -0.307177
   2 C :   -0.002122
   3 O :   -0.617533
   4 H :    0.150351
   5 H :    0.152832
   6 H :    0.151567
   7 H :    0.148272
   8 H :    0.157945
   9 H :    0.152718
  10 H :    0.174256
  11 H :    0.262100

-------------------------------
LOEWDIN REDUCED ORBITAL CHARGES
-------------------------------
  0 C s       :     2.971776  s :     2.971776
      pz      :     1.157365  p :     3.387980
      px      :     1.088128
      py      :     1.142486
      dz2     :     0.012346  d :     0.063453
      dxz     :     0.004473
      dyz     :     0.018684
      dx2y2   :     0.009496
      dxy     :     0.018453

  1 C s       :     2.948364  s :     2.948364
      pz      :     1.142149  p :     3.280726
      px      :     1.037688
      py      :     1.100890
      dz2     :     0.013287  d :     0.078086
      dxz     :     0.006482
      dyz     :     0.023918
      dx2y2   :     0.012968
      dxy     :     0.021431

  2 C s       :     2.876652  s :     2.876652
      pz      :     1.095540  p :     2.991820
      px      :     0.880338
      py      :     1.015942
      dz2     :     0.019015  d :     0.133650
      dxz     :     0.016290
      dyz     :     0.029761
      dx2y2   :     0.030864
      dxy     :     0.037720

  3 O s       :     3.521257  s :     3.521257
      pz      :     1.663409  p :     4.820572
      px      :     1.537174
      py      :     1.619989
      dz2     :     0.025448  d :     0.275705
      dxz     :     0.055937
      dyz     :     0.054427
      dx2y2   :     0.069983
      dxy     :     0.069909

  4 H s       :     0.806256  s :     0.806256
      pz      :     0.021238  p :     0.043393
      px      :     0.008256
      py      :     0.013899

  5 H s       :     0.803560  s :     0.803560
      pz      :     0.008125  p :     0.043608
      px      :     0.018441
      py      :     0.017042

  6 H s       :     0.805053  s :     0.805053
      pz      :     0.020033  p :     0.043379
      px      :     0.008189
      py      :     0.015157

  7 H s       :     0.809166  s :     0.809166
      pz      :     0.019189  p :     0.042562
      px      :     0.007947
      py      :     0.015426

  8 H s       :     0.798907  s :     0.798907
      pz      :     0.021326  p :     0.043148
      px      :     0.007834
      py      :     0.013988

  9 H s       :     0.807431  s :     0.807431
      pz      :     0.020437  p :     0.039851
      px      :     0.005959
      py      :     0.013455

 10 H s       :     0.786715  s :     0.786715
      pz      :     0.019710  p :     0.039029
      px      :     0.005274
      py      :     0.014045

 11 H s       :     0.614245  s :     0.614245
      pz      :     0.052726  p :     0.123655
      px      :     0.023724
      py      :     0.047205


---------------------------------
LOEWDIN BOND ORDERS (THRESH 0.050000)
---------------------------------
B(  0-C ,  1-C ) :   1.1406 B(  0-C ,  2-C ) :   0.0804 B(  0-C ,  4-H ) :   0.9292 
B(  0-C ,  5-H ) :   0.9288 B(  0-C ,  6-H ) :   0.9291 B(  1-C ,  2-C ) :   1.0410 
B(  1-C ,  3-O ) :   0.1778 B(  1-C ,  7-H ) :   0.8939 B(  1-C ,  8-H ) :   0.8929 
B(  2-C ,  3-O ) :   1.4610 B(  2-C ,  9-H ) :   0.8371 B(  2-C , 10-H ) :   0.8292 
B(  3-O ,  9-H ) :   0.1057 B(  3-O , 10-H ) :   0.0996 B(  3-O , 11-H ) :   0.9784 


------------------------------------------
LOEWDIN REDUCED ORBITAL POPULATIONS PER MO
-------------------------------------------
THRESHOLD FOR PRINTING IS 0.1%%
                      0         1         2         3         4         5   
                 -18.94506 -10.07264 -10.02909 -10.02320  -0.98423  -0.74763
                   2.00000   2.00000   2.00000   2.00000   2.00000   2.00000
                  --------  --------  --------  --------  --------  --------
 0 C  s               0.0       0.0       0.0      99.7       0.1      21.5
 0 C  px              0.0       0.0       0.1       0.0       0.1       2.9
 0 C  py              0.0       0.0       0.0       0.0       0.0       0.4
 1 C  s               0.0       0.0      99.7       0.0       0.9      29.3
 1 C  px              0.0       0.0       0.0       0.1       1.3       0.8
 1 C  py              0.0       0.0       0.0       0.0       0.3       1.4
 2 C  s               0.0      99.4       0.0       0.0       9.8       8.3
 2 C  px              0.0       0.0       0.0       0.0       6.7       6.2
 2 C  py              0.0       0.0       0.0       0.0       2.0       0.6
 2 C  dz2             0.0       0.0       0.0       0.0       0.2       0.0
 2 C  dx2y2           0.0       0.0       0.0       0.0       0.2       0.0
 2 C  dxy             0.0       0.0       0.0       0.0       0.4       0.2
 3 O  s              99.9       0.0       0.0       0.0      60.3       2.1
 3 O  pz              0.0       0.0       0.0       0.0       1.0       0.2
 3 O  px              0.0       0.1       0.0       0.0       1.7       1.5
 3 O  py              0.0       0.0       0.0       0.0       0.0       0.4
 3 O  dz2             0.0       0.1       0.0       0.0       0.0       0.3
 3 O  dx2y2           0.0       0.1       0.0       0.0       0.1       0.5
 3 O  dxy             0.0       0.1       0.0       0.0       0.1       0.0
 4 H  s               0.0       0.0       0.0       0.0       0.0       3.2
 4 H  pz              0.0       0.0       0.0       0.0       0.0       0.2
 5 H  s               0.0       0.0       0.0       0.0       0.0       3.1
 5 H  px              0.0       0.0       0.0       0.0       0.0       0.2
 5 H  py              0.0       0.0       0.0       0.0       0.0       0.1
 6 H  s               0.0       0.0       0.0       0.0       0.0       3.2
 6 H  pz              0.0       0.0       0.0       0.0       0.0       0.2
 6 H  py              0.0       0.0       0.0       0.0       0.0       0.1
 7 H  s               0.0       0.0       0.0       0.0       0.1       4.3
 7 H  pz              0.0       0.0       0.0       0.0       0.0       0.2
 7 H  py              0.0       0.0       0.0       0.0       0.0       0.2
 8 H  s               0.0       0.0       0.0       0.0       0.1       4.2
 8 H  pz              0.0       0.0       0.0       0.0       0.0       0.3
 8 H  py              0.0       0.0       0.0       0.0       0.0       0.1
 9 H  s               0.0       0.0       0.0       0.0       0.7       1.3
10 H  s               0.0       0.0       0.0       0.0       0.7       1.3
11 H  s               0.0       0.0       0.0       0.0      10.7       0.7
11 H  pz              0.0       0.0       0.0       0.0       1.2       0.1
11 H  py              0.0       0.0       0.0       0.0       1.1       0.1

                      6         7         8         9        10        11   
                  -0.64027  -0.56684  -0.47408  -0.43546  -0.39300  -0.38626
                   2.00000   2.00000   2.00000   2.00000   2.00000   2.00000
                  --------  --------  --------  --------  --------  --------
 0 C  s              19.2       7.0       0.0       0.0       0.1       0.1
 0 C  pz              0.0       0.0       1.7      11.1       0.9      19.0
 0 C  px              1.6       4.6       0.4       2.0       0.2       9.7
 0 C  py              0.0       3.3       2.2       2.9      19.1       1.2
 0 C  dz2             0.0       0.1       0.0       0.0       0.2       0.0
 0 C  dyz             0.0       0.0       0.0       0.0       0.0       0.1
 0 C  dxy             0.0       0.1       0.0       0.0       0.0       0.1
 1 C  s               0.4      14.2       0.4       0.0       0.1       0.3
 1 C  pz              0.0       0.0       6.3      19.5       0.4       5.5
 1 C  px             11.3       0.9       0.6       0.2      11.8       2.2
 1 C  py              0.3       7.4       5.7       5.7       3.2       2.3
 1 C  dxz             0.0       0.0       0.0       0.0       0.0       0.1
 1 C  dxy             0.3       0.0       0.0       0.0       0.0       0.1
 2 C  s              17.7       4.3       1.4       0.1       0.4       0.4
 2 C  pz              0.1       0.2      15.1      10.7       0.3       7.5
 2 C  px              0.5       2.5       8.4       7.1       0.6       1.0
 2 C  py              0.6       8.5       2.3       0.9      23.8       1.4
 2 C  dz2             0.0       0.0       0.1       0.0       0.2       0.0
 2 C  dx2y2           0.0       0.0       0.1       0.0       0.0       0.1
 2 C  dxy             0.0       0.1       0.1       0.0       0.0       0.0
 3 O  s               2.9       0.0       1.4       0.1       0.5       3.2
 3 O  pz              1.0       1.3      16.9       0.1       0.7      11.5
 3 O  px              6.9       2.2       4.0       5.9      12.5       9.3
 3 O  py              4.6       7.4       8.9       6.9       3.0       0.2
 3 O  dz2             0.5       0.0       0.1       0.0       0.0       0.0
 3 O  dxz             0.0       0.0       0.5       0.8       0.0       0.3
 3 O  dyz             0.1       0.1       0.1       0.3       0.0       0.1
 3 O  dx2y2           0.7       0.0       0.0       0.0       0.7       0.0
 3 O  dxy             0.7       0.9       0.2       0.1       0.8       0.0
 4 H  s               4.7       3.6       0.8       1.6       5.0       5.7
 4 H  pz              0.3       0.2       0.0       0.0       0.2       0.0
 4 H  px              0.0       0.0       0.0       0.0       0.0       0.1
 4 H  py              0.1       0.0       0.0       0.1       0.0       0.1
 5 H  s               5.5       2.6       0.6       1.6       2.7       4.7
 5 H  pz              0.0       0.0       0.0       0.1       0.0       0.1
 5 H  px              0.2       0.0       0.0       0.0       0.1       0.0
 5 H  py              0.2       0.1       0.0       0.0       0.0       0.1
 6 H  s               4.6       3.7       0.0       3.6       2.0       4.6
 6 H  pz              0.2       0.2       0.0       0.0       0.1       0.0
 6 H  py              0.1       0.1       0.0       0.0       0.0       0.2
 7 H  s               0.1       7.5       0.0       7.8       0.2       0.7
 7 H  pz              0.0       0.4       0.0       0.1       0.0       0.0
 7 H  px              0.0       0.0       0.0       0.0       0.1       0.0
 7 H  py              0.0       0.1       0.0       0.1       0.0       0.1
 8 H  s               0.1       6.4       4.2       1.8       0.9       2.3
 8 H  pz              0.0       0.4       0.1       0.0       0.0       0.0
 8 H  px              0.0       0.0       0.0       0.0       0.1       0.0
 8 H  py              0.0       0.1       0.0       0.2       0.0       0.0
 9 H  s               4.4       2.3       9.2       0.9       4.8       2.0
 9 H  pz              0.3       0.2       0.2       0.0       0.2       0.0
 9 H  py              0.1       0.0       0.2       0.1       0.0       0.1
10 H  s               5.3       3.7       0.1       4.7       3.3       2.3
10 H  pz              0.3       0.2       0.0       0.1       0.2       0.0
10 H  py              0.2       0.1       0.1       0.1       0.0       0.0
11 H  s               3.1       2.3       7.0       1.9       0.1       0.4
11 H  pz              0.3       0.1       0.1       0.2       0.0       0.0
11 H  px              0.0       0.0       0.0       0.1       0.2       0.2
11 H  py              0.2       0.0       0.1       0.0       0.1       0.0

                     12        13        14        15        16        17   
                  -0.35740  -0.32550  -0.31398  -0.28751  -0.23368   0.06389
                   2.00000   2.00000   2.00000   2.00000   2.00000   0.00000
                  --------  --------  --------  --------  --------  --------
 0 C  s               0.1       0.6       0.0       0.1       0.0       3.0
 0 C  pz              7.7       0.1      17.1       0.3       0.0       0.1
 0 C  px             21.5       5.4       0.9       3.4       1.6       1.1
 0 C  py              5.3      21.9       0.5       0.3       0.0       1.0
 0 C  dz2             0.0       0.3       0.0       0.0       0.0       0.1
 0 C  dxz             0.0       0.0       0.2       0.0       0.0       0.0
 0 C  dyz             0.1       0.0       0.6       0.1       0.0       0.0
 0 C  dx2y2           0.0       0.3       0.0       0.0       0.0       0.0
 0 C  dxy             0.4       0.0       0.0       0.1       0.1       0.0
 1 C  s               0.6       0.6       0.0       0.1       0.8       1.3
 1 C  pz              0.0       0.1      21.8       3.5       0.1       0.6
 1 C  px              6.7       5.3       0.8       5.0       4.9       7.6
 1 C  py              1.2      22.0       0.6       1.9       2.9       0.9
 1 C  dz2             0.0       0.4       0.0       0.0       0.0       0.0
 1 C  dxz             0.1       0.0       0.1       0.0       0.0       0.0
 1 C  dyz             0.0       0.0       0.7       0.4       0.0       0.0
 1 C  dx2y2           0.0       0.5       0.0       0.0       0.0       0.5
 1 C  dxy             0.3       0.0       0.0       0.1       0.1       0.4
 2 C  s               1.0       0.6       0.0       0.1       0.1       3.3
 2 C  pz              8.5       0.0       0.4      10.0       2.2       2.0
 2 C  px              2.5       0.4       1.9       4.9       1.3      16.8
 2 C  py              0.1       5.5       0.3       1.9       3.1       4.6
 2 C  dz2             0.1       0.1       0.0       0.0       0.2       0.6
 2 C  dxz             0.0       0.0       0.2       0.1       0.3       0.0
 2 C  dyz             0.1       0.0       0.1       0.8       0.4       0.0
 2 C  dx2y2           0.4       0.2       0.0       0.0       0.4       0.2
 2 C  dxy             0.0       0.0       0.0       0.3       0.7       1.0
 3 O  s               0.7       0.1       0.8       3.9       0.0       9.6
 3 O  pz              0.1       0.1       8.7      18.3      23.3       4.0
 3 O  px              0.3       6.4       1.8      13.5      10.8       2.1
 3 O  py             11.9       0.9       0.7       1.0      35.1       1.4
 3 O  dz2             0.1       0.0       0.0       0.0       0.0       1.2
 3 O  dxz             0.4       0.0       0.1       0.5       0.2       0.1
 3 O  dyz             0.5       0.0       0.1       1.4       0.1       2.2
 3 O  dx2y2           0.0       0.1       0.1       0.6       0.6       1.0
 3 O  dxy             0.0       0.0       0.0       0.2       0.2       0.1
 4 H  s               1.1       3.4      11.0       0.1       0.0       0.1
 4 H  pz              0.0       0.1       0.0       0.0       0.0       0.0
 4 H  px              0.2       0.0       0.0       0.0       0.0       0.0
 4 H  py              0.1       0.1       0.1       0.0       0.0       0.1
 5 H  s              12.8       2.3       1.2       2.1       0.7       0.4
 5 H  pz              0.1       0.0       0.1       0.0       0.0       0.0
 5 H  px              0.0       0.2       0.0       0.0       0.0       0.2
 5 H  py              0.2       0.0       0.0       0.0       0.0       0.1
 6 H  s               4.9       6.2       6.4       0.8       0.0       0.1
 6 H  pz              0.0       0.1       0.0       0.0       0.0       0.0
 6 H  px              0.2       0.0       0.0       0.0       0.0       0.0
 6 H  py              0.0       0.0       0.1       0.0       0.0       0.2
 7 H  s               0.1       7.8       7.9       4.1       0.0       0.6
 7 H  pz              0.0       0.2       0.0       0.0       0.0       0.3
 7 H  px              0.0       0.0       0.0       0.1       0.1       0.4
 7 H  py              0.0       0.0       0.2       0.0       0.0       0.0
 8 H  s               0.0       4.6      13.1       1.9       0.5       0.1
 8 H  pz              0.0       0.2       0.0       0.0       0.0       0.1
 8 H  px              0.1       0.0       0.0       0.0       0.0       0.2
 8 H  py              0.0       0.1       0.1       0.1       0.0       0.1
 9 H  s               0.8       1.1       0.4       5.2       7.3       0.8
 9 H  pz              0.0       0.0       0.0       0.0       0.0       0.6
 9 H  px              0.0       0.0       0.0       0.1       0.0       0.5
 9 H  py              0.0       0.0       0.0       0.1       0.0       0.0
10 H  s               6.7       1.2       0.3       9.6       0.1       0.3
10 H  pz              0.0       0.0       0.0       0.0       0.0       0.2
10 H  px              0.0       0.0       0.0       0.0       0.0       0.5
10 H  py              0.1       0.0       0.0       0.0       0.1       0.0
11 H  s               1.5       0.1       0.3       2.6       0.0      21.5
11 H  pz              0.1       0.0       0.0       0.0       0.5       3.1
11 H  px              0.0       0.1       0.0       0.3       0.2       0.1
11 H  py              0.0       0.0       0.1       0.0       0.7       2.6

                     18        19        20        21        22        23   
                   0.09626   0.13146   0.13928   0.14252   0.15722   0.17900
                   0.00000   0.00000   0.00000   0.00000   0.00000   0.00000
                  --------  --------  --------  --------  --------  --------
 0 C  s              23.1       1.4       9.1       0.2       3.7       0.7
 0 C  pz              0.1       1.3       2.2       5.1       7.5       0.9
 0 C  px              1.7       0.1      25.7       0.2      15.3       6.3
 0 C  py              0.3       3.8       1.0       7.3       7.5       9.5
 0 C  dz2             0.1       0.2       0.0       0.6       1.2       0.2
 0 C  dxz             0.0       0.1       0.1       0.1       0.2       0.0
 0 C  dyz             0.0       0.1       0.1       0.2       0.1       0.1
 0 C  dx2y2           0.1       0.0       0.2       0.1       0.4       1.9
 0 C  dxy             0.8       0.1       2.1       0.2       0.0       0.0
 1 C  s              15.4       1.1       4.1       6.6       4.7       1.6
 1 C  pz              0.2       2.6       2.2       4.6       4.4       0.1
 1 C  px              1.2       0.2       8.0       2.4       1.1       5.3
 1 C  py              3.0      15.4       6.2       0.9       2.8      18.4
 1 C  dz2             0.3       0.3       0.3       0.2       0.1       2.7
 1 C  dyz             0.0       0.2       0.3       0.7       1.1       0.1
 1 C  dx2y2           0.3       0.7       0.0       0.0       0.1       0.8
 1 C  dxy             0.1       0.0       0.8       0.4       0.1       1.4
 2 C  s               5.9      10.9       1.7       5.7       0.4       4.8
 2 C  pz              0.6       3.8       5.3      10.9       5.3       0.4
 2 C  px              7.5       6.4       1.0       0.2       0.4       0.7
 2 C  py              0.9      11.6       4.3      21.0       3.6       5.7
 2 C  dz2             0.0       0.4       0.2       0.7       0.8       0.1
 2 C  dxz             0.0       0.0       0.0       0.0       0.1       0.0
 2 C  dyz             0.0       0.3       0.2       0.6       0.3       0.1
 2 C  dx2y2           0.4       0.7       0.0       0.0       0.1       0.3
 2 C  dxy             0.6       0.2       0.1       0.0       0.1       0.1
 3 O  s               0.2       0.2       0.3       0.3       0.5       1.3
 3 O  pz              0.0       0.8       0.7       0.2       1.0       0.5
 3 O  px              1.0       0.5       0.1       1.5       0.9       1.2
 3 O  py              2.0       2.2       0.8       0.3       0.9       0.5
 3 O  dz2             2.1       0.7       0.2       0.1       0.2       0.1
 3 O  dxz             0.0       0.1       0.2       0.4       0.2       0.0
 3 O  dyz             0.2       0.5       0.3       0.0       1.0       0.5
 3 O  dx2y2           0.1       0.2       0.4       0.8       2.4       2.1
 3 O  dxy             0.7       0.7       2.7       2.0       0.0       0.2
 4 H  s               3.0       0.2       3.3       0.3       1.7       4.4
 4 H  pz              1.4       0.3       1.2       0.0       0.5       0.6
 4 H  px              0.2       0.0       1.0       0.0       0.0       0.0
 4 H  py              0.4       0.0       0.4       0.5       0.0       0.8
 5 H  s               4.4       0.8       3.3       3.0       4.4       0.2
 5 H  px              0.5       0.0       0.2       0.2       1.5       1.5
 5 H  py              1.7       0.0       0.1       0.0       0.2       0.3
 6 H  s               2.3       3.0       0.4       2.9       0.9       1.0
 6 H  pz              1.0       1.0       0.3       0.6       0.0       0.4
 6 H  px              0.2       0.0       0.7       0.1       0.2       0.0
 6 H  py              0.3       0.2       0.0       0.0       0.9       0.3
 7 H  s               3.7       1.5       0.6       0.4       3.8       7.5
 7 H  pz              1.7       0.1       0.1       0.2       1.1       2.4
 7 H  px              0.0       0.0       0.5       0.2       0.0       0.1
 7 H  py              0.5       1.6       0.1       0.1       0.5       0.0
 8 H  s               2.1       0.5       0.9       5.2       1.1       4.9
 8 H  pz              1.3       0.1       0.2       2.0       0.0       1.8
 8 H  px              0.0       0.0       0.8       0.0       0.0       0.4
 8 H  py              0.1       0.2       1.1       0.6       0.4       0.3
 9 H  s               1.8       2.2       0.3       4.0       4.4       0.1
 9 H  pz              0.7       1.3       0.1       0.7       1.4       0.0
 9 H  px              0.5       0.2       0.0       0.0       0.0       0.1
 9 H  py              0.0       0.0       0.0       2.7       0.1       0.2
10 H  s               1.1       9.5       1.5       0.8       0.2       0.2
10 H  pz              0.4       3.2       0.2       0.1       0.1       0.0
10 H  px              0.4       0.1       0.1       0.0       0.0       0.0
10 H  py              0.0       1.1       0.8       0.2       0.7       0.0
11 H  s               1.2       3.9       0.6       0.3       6.1       3.0
11 H  pz              0.2       0.3       0.1       0.0       0.6       0.3
11 H  px              0.1       0.0       0.1       0.0       0.0       0.1
11 H  py              0.0       0.4       0.1       0.0       0.8       0.2

                     24        25        26        27        28        29   
                   0.19293   0.20019   0.21342   0.21585   0.22733   0.23965
                   0.00000   0.00000   0.00000   0.00000   0.00000   0.00000
                  --------  --------  --------  --------  --------  --------
 0 C  s               1.2       1.5       1.0       1.6       1.1       0.1
 0 C  pz             21.4       7.8       4.0       0.2       0.4      55.7
 0 C  px              3.4       7.6       2.1       1.0       3.0       0.4
 0 C  py              1.5      12.0       9.3      10.3      15.1       0.9
 0 C  dz2             0.0       0.3       0.9       1.4       0.3       0.0
 0 C  dxz             0.1       0.1       0.5       0.1       0.0       0.0
 0 C  dyz             3.6       2.4       0.2       0.0       0.0       0.1
 0 C  dx2y2           0.1       0.0       0.1       0.0       0.1       0.0
 0 C  dxy             0.0       0.2       0.3       0.0       1.2       0.0
 1 C  s               0.1       0.3       0.6       0.4       4.4       0.0
 1 C  pz              1.9       0.3       7.9       6.1       4.5       4.7
 1 C  px              0.9       2.9       4.8       9.0       2.6       1.5
 1 C  py              4.7       2.7       4.6       6.2      16.4       0.2
 1 C  dz2             0.4       0.1       0.1       0.1       0.0       0.0
 1 C  dxz             0.8       0.7       0.3       0.0       0.0       0.0
 1 C  dyz             0.3       0.2       0.7       0.2       0.0       1.4
 1 C  dx2y2           0.1       0.1       0.0       0.1       0.1       0.0
 1 C  dxy             0.0       0.2       0.2       0.7       0.0       0.2
 2 C  s               1.6       0.8       1.7       4.3       0.2       0.0
 2 C  pz              4.7       1.2      19.0       8.9       1.7       0.6
 2 C  px              3.9       7.2       0.7       2.7       2.9       0.7
 2 C  py              1.6       3.4       2.8       5.3       3.0       2.4
 2 C  dz2             0.0       0.1       0.4       0.7       0.2       0.0
 2 C  dxz             0.2       0.1       0.3       0.1       0.0       0.3
 2 C  dyz             1.0       0.2       0.2       0.0       0.2       0.9
 2 C  dx2y2           0.2       0.5       0.0       0.0       0.0       0.0
 2 C  dxy             0.4       0.9       0.1       0.0       0.0       0.0
 3 O  s               1.2       0.5       0.0       0.3       0.0       0.1
 3 O  pz              0.8       0.3       0.1       0.2       1.2       0.4
 3 O  px              0.9       1.4       0.1       0.4       0.0       0.1
 3 O  py              0.6       2.9       0.1       2.2       0.0       0.4
 3 O  dz2             1.4       3.6       1.5       2.3       1.8       0.0
 3 O  dxz             0.5       0.9       2.4       1.1       0.5       0.0
 3 O  dyz             2.1       0.4       0.1       0.8       1.3       0.0
 3 O  dx2y2           0.0       0.1       0.2       1.6       1.2       0.0
 3 O  dxy             0.1       0.1       0.1       0.3       1.2       0.0
 4 H  s               6.6      13.0       0.4       3.2       2.5       3.2
 4 H  pz              0.1       1.2       0.2       2.1       0.5       1.2
 4 H  px              0.0       0.0       0.5       0.0       0.5       0.0
 4 H  py              1.1       1.0       0.3       0.1       0.0       0.5
 5 H  s               0.8       2.0       0.2       1.9      13.4       0.4
 5 H  pz              2.2       1.0       0.0       0.0       0.0       0.1
 5 H  px              0.0       0.4       0.0       0.4       2.3       0.0
 5 H  py              0.6       1.1       0.3       0.2       2.3       0.0
 6 H  s              14.8       4.9       3.6       4.6       0.3       1.9
 6 H  pz              0.5       0.1       1.4       2.1       0.2       0.9
 6 H  px              0.1       0.2       0.0       0.0       0.5       0.1
 6 H  py              1.9       1.8       0.0       0.0       0.1       0.2
 7 H  s               0.6       0.3       6.2       1.5       0.7       7.4
 7 H  pz              0.0       0.0       0.7       0.2       0.1       0.6
 7 H  px              0.4       0.2       0.0       0.5       0.0       0.0
 7 H  py              0.5       0.1       2.0       0.1       0.1       1.4
 8 H  s               2.0       1.5       2.8       2.0       4.8       5.1
 8 H  pz              0.4       0.1       0.3       0.3       1.0       0.3
 8 H  px              0.4       0.0       0.1       0.4       0.1       0.4
 8 H  py              0.1       0.0       0.3       1.0       0.8       1.2
 9 H  s               0.8       2.0       0.7       6.0       0.6       1.2
 9 H  pz              0.0       0.6       0.1       2.1       0.0       0.0
 9 H  px              0.4       0.6       0.0       0.0       0.0       0.1
 9 H  py              0.3       0.0       1.0       0.1       0.7       0.4
10 H  s               3.1       0.1       7.7       0.1       2.1       1.7
10 H  pz              0.3       0.0       2.3       0.1       0.6       0.0
10 H  px              0.1       0.5       0.1       0.1       0.0       0.1
10 H  py              0.3       0.3       0.5       0.6       0.1       0.1
11 H  s               0.0       1.9       0.4       1.1       0.9       0.1
11 H  pz              0.1       0.6       0.0       0.0       0.2       0.0
11 H  px              0.1       0.0       0.1       0.0       0.0       0.0
11 H  py              0.0       0.1       0.0       0.3       0.1       0.0

                     30        31        32        33        34        35   
                   0.24727   0.26720   0.29924   0.31088   0.34055   0.36727
                   0.00000   0.00000   0.00000   0.00000   0.00000   0.00000
                  --------  --------  --------  --------  --------  --------
 0 C  s               0.4       0.7       0.9       0.1       0.6       7.8
 0 C  pz              1.7       3.4       0.2       2.7       0.1       0.1
 0 C  px              4.7       8.6      10.1       0.3       1.0       8.9
 0 C  py              7.4       1.9      18.9       0.4       0.1       0.3
 0 C  dz2             0.2       0.0       0.5       0.0       0.0       0.1
 0 C  dxz             0.0       0.2       0.1       1.1       0.0       0.0
 0 C  dyz             0.2       0.0       0.0       0.2       0.0       0.0
 0 C  dx2y2           0.0       0.0       0.1       0.0       0.2       0.2
 0 C  dxy             0.3       0.0       1.1       0.0       0.0       0.0
 1 C  s               0.3       0.5       0.7       0.2       0.5       8.4
 1 C  pz             12.3      23.4       2.8      26.7       0.3       0.5
 1 C  px              7.1       3.9       2.0       0.1       0.6       2.8
 1 C  py              1.1       3.0       3.2       0.1       1.0      17.4
 1 C  dz2             0.1       0.3       0.9       0.0       0.3       0.6
 1 C  dxz             0.0       0.0       0.0       0.5       0.0       0.0
 1 C  dyz             1.1       0.8       0.0       0.9       0.0       0.0
 1 C  dx2y2           0.1       0.4       0.1       0.0       0.1       0.4
 1 C  dxy             1.1       0.8       0.0       0.1       0.0       0.0
 2 C  s               0.2       0.6       3.1       0.1       2.5       6.1
 2 C  pz              5.9      12.3       0.6      18.6       0.4       0.1
 2 C  px              5.3       3.1       8.0       0.1      28.1       5.7
 2 C  py             13.7       2.6       0.6       0.1      16.3       2.8
 2 C  dz2             0.7       0.4       0.1       0.0       0.1       0.0
 2 C  dxz             0.1       0.0       0.0       0.5       0.0       0.0
 2 C  dyz             0.9       0.6       0.0       1.4       0.1       0.0
 2 C  dx2y2           0.0       0.4       0.0       0.1       0.3       0.3
 2 C  dxy             0.0       0.0       0.4       0.0       0.1       2.9
 3 O  s               0.3       0.4       1.5       0.3       0.2       0.9
 3 O  pz              2.5       0.2       0.2      15.4       0.4       0.6
 3 O  px              1.7       5.8       2.6       0.7       3.7       0.7
 3 O  py              1.2       0.4       5.8       0.8       2.3       0.2
 3 O  dz2             0.1       1.0       0.5       0.0       7.0       0.2
 3 O  dxz             0.4       1.1       0.0       2.0       0.5       0.0
 3 O  dyz             2.4       0.1       1.0       3.7       2.2       0.8
 3 O  dx2y2           0.3       0.4       0.5       0.5       4.0       5.3
 3 O  dxy             0.1       0.2       1.0       0.1      10.0       4.7
 4 H  s               0.6       1.1       0.2       1.0       1.3       1.6
 4 H  pz              0.0       0.1       0.0       0.1       0.2       0.3
 4 H  px              0.0       0.5       0.6       0.5       0.0       0.1
 4 H  py              0.5       0.2       0.9       0.3       0.1       0.4
 5 H  s               3.6       0.1       6.2       0.0       1.1       2.1
 5 H  pz              0.0       0.0       0.1       1.4       0.0       0.0
 5 H  px              0.3       0.0       0.0       0.0       0.0       0.1
 5 H  py              0.2       0.0       0.2       0.0       0.6       0.2
 6 H  s               1.6       0.9       0.3       0.8       1.6       2.2
 6 H  pz              0.0       0.1       0.0       0.1       0.3       0.4
 6 H  px              0.4       0.3       0.1       0.8       0.0       0.0
 6 H  py              0.0       0.2       0.9       0.2       0.3       0.6
 7 H  s               1.5       3.0       2.5       2.6       1.7       1.1
 7 H  pz              0.3       0.1       1.8       0.0       0.5       0.2
 7 H  px              0.4       0.7       0.0       0.6       0.1       0.0
 7 H  py              0.1       0.0       0.0       0.3       0.0       0.1
 8 H  s               3.6       0.6       4.3       0.8       2.2       1.9
 8 H  pz              0.0       0.5       0.9       0.1       1.0       0.2
 8 H  px              0.7       0.1       0.0       0.2       0.0       0.0
 8 H  py              0.2       0.3       0.0       0.1       0.0       0.1
 9 H  s               6.6       0.2       5.6       5.3       0.4       2.3
 9 H  pz              0.5       0.7       0.8       0.2       0.1       0.9
 9 H  px              0.1       0.0       0.3       0.9       0.0       0.5
 9 H  py              0.2       0.2       0.4       0.6       0.5       0.0
10 H  s               1.7       5.3       3.5       2.8       0.2       2.8
10 H  pz              0.1       0.1       1.1       0.0       0.2       1.0
10 H  px              0.0       0.2       0.5       0.7       0.0       0.5
10 H  py              1.8       0.1       0.3       0.6       0.3       0.2
11 H  s               0.6       5.5       0.5       1.1       2.3       0.8
11 H  pz              0.2       0.7       0.2       0.0       0.0       0.1
11 H  px              0.1       0.1       0.1       0.1       1.4       0.0
11 H  py              0.0       0.5       0.0       0.1       0.5       0.1

                     36        37        38        39        40        41   
                   0.41466   0.44374   0.47171   0.48924   0.51119   0.53492
                   0.00000   0.00000   0.00000   0.00000   0.00000   0.00000
                  --------  --------  --------  --------  --------  --------
 0 C  s               2.2      15.5       1.3      11.6      11.0       4.3
 0 C  pz              0.1       0.1       0.0       0.3       0.0       0.4
 0 C  px              9.0       2.3       0.7       4.2       1.7       3.0
 0 C  py              5.0       0.5       1.0       1.6       0.5       0.7
 0 C  dz2             0.2       0.0       0.0       0.4       0.1       0.1
 0 C  dxz             0.0       0.0       0.0       0.1       0.0       0.1
 0 C  dx2y2           0.5       0.0       0.2       0.0       0.0       0.0
 0 C  dxy             0.8       0.1       0.5       0.0       0.1       0.0
 1 C  s               0.9       5.5      12.4       1.4      31.2       3.2
 1 C  pz              0.3       0.2       0.1       1.5       0.1       1.8
 1 C  px             30.2      10.8       8.2       1.6       1.6       1.0
 1 C  py              0.2       2.8       2.9       2.9       3.8       0.6
 1 C  dz2             0.2       0.1       0.0       0.0       0.0       0.0
 1 C  dxz             0.0       0.0       0.0       0.1       0.0       0.2
 1 C  dx2y2           0.4       0.0       0.0       0.0       0.0       0.0
 1 C  dxy             1.2       0.3       0.1       0.6       0.1       0.1
 2 C  s               0.5       7.6       6.9       1.0      15.3       0.2
 2 C  pz              1.0       0.3       0.2       0.7       0.1       1.5
 2 C  px              0.7       5.2       2.7       0.6       7.0       1.6
 2 C  py              1.6       5.4       2.8       1.5       1.7       0.1
 2 C  dz2             0.1       0.7       0.0       0.1       0.2       0.2
 2 C  dxz             0.1       0.2       0.0       0.0       0.0       0.0
 2 C  dyz             0.2       0.0       0.0       0.2       0.0       0.4
 2 C  dx2y2           0.2       0.1       0.0       0.0       0.0       0.0
 2 C  dxy             0.4       0.5       0.2       0.0       0.0       0.1
 3 O  s               0.5       1.6       0.2       0.4       0.2       0.3
 3 O  pz              2.3       2.3       0.7       1.8       0.7      14.6
 3 O  px              7.6       1.1      20.5       7.3       0.3      14.3
 3 O  py              4.8       3.8       0.1       0.3       0.1       2.3
 3 O  dz2             5.5       2.4      17.6       4.8       0.0       1.3
 3 O  dxz             0.3       0.8       2.8      13.2       1.8      27.1
 3 O  dyz            11.3       7.6       1.2       8.8       0.1       5.8
 3 O  dx2y2           0.2       0.1       0.2      13.5       0.0       2.6
 3 O  dxy             0.2       0.8       0.1       2.8       0.1       2.0
 4 H  s               0.6       2.5       1.5       3.3       0.1       0.4
 4 H  pz              0.1       0.8       0.4       1.3       0.2       0.1
 4 H  px              0.1       0.1       0.4       0.0       0.1       0.2
 4 H  py              0.0       0.3       0.0       0.1       0.1       0.0
 5 H  s               0.9       6.6       0.5       0.1       0.5       0.1
 5 H  pz              0.0       0.0       0.0       0.1       0.0       0.2
 5 H  px              0.9       2.3       0.0       0.0       0.0       0.0
 5 H  py              0.0       0.8       0.0       0.0       0.0       0.1
 6 H  s               0.7       2.7       1.7       1.7       0.1       1.5
 6 H  pz              0.1       0.6       0.4       0.7       0.2       0.4
 6 H  px              0.1       0.2       0.4       0.3       0.1       0.0
 6 H  py              0.0       0.3       0.1       0.0       0.0       0.2
 7 H  s               0.7       0.7       0.4       0.1       3.0       1.6
 7 H  pz              0.1       0.0       0.2       0.0       0.7       0.1
 7 H  px              0.0       0.0       0.0       0.1       0.0       0.3
 7 H  py              0.1       0.2       0.1       0.1       0.6       0.2
 8 H  s               0.8       0.8       0.6       0.5       3.3       0.9
 8 H  pz              0.3       0.1       0.3       0.0       0.8       0.3
 8 H  px              0.1       0.0       0.0       0.7       0.0       0.0
 8 H  py              0.0       0.2       0.1       0.1       0.5       0.1
 9 H  s               1.1       0.5       1.5       0.3       3.7       1.1
 9 H  pz              0.0       0.0       0.4       0.3       0.9       0.4
 9 H  px              0.1       0.1       0.1       0.0       0.4       0.1
 9 H  py              0.1       0.0       0.0       0.0       0.2       0.3
10 H  s               0.1       0.1       3.2       0.5       4.3       0.8
10 H  pz              0.0       0.1       1.0       0.0       1.3       0.0
10 H  px              0.4       0.0       0.2       0.1       0.4       0.0
10 H  py              0.0       0.1       0.2       0.4       0.5       0.0
11 H  s               3.5       1.1       1.8       3.4       0.3       0.0
11 H  pz              0.4       0.1       0.2       0.3       0.0       0.2
11 H  px              0.1       0.0       0.4       1.1       0.1       0.2
11 H  py              0.0       0.0       0.2       0.7       0.0       0.1

                     42        43        44        45        46        47   
                   0.56351   0.62864   0.66284   0.69553   0.73596   0.75130
                   0.00000   0.00000   0.00000   0.00000   0.00000   0.00000
                  --------  --------  --------  --------  --------  --------
 0 C  s               2.1       7.1       0.3       1.1       0.9       1.7
[...]
 5 H  s               0.2       0.3       0.1       9.1       0.4       2.0
 5 H  pz              0.0       1.2       0.0       0.0       0.0       0.0
 5 H  px              0.3       0.3       0.0      10.6       0.5       3.6
 5 H  py              0.3       0.6       0.3      13.0       0.3       1.2
 6 H  s               0.0       4.0       2.5       0.1       2.9       1.3
 6 H  pz              0.0       4.1       6.3       0.2       4.6       2.7
 6 H  px              0.0       0.0       0.0       0.4       0.2       0.0
 6 H  py              0.0       4.5       1.9       0.1       2.5       0.8
 7 H  s               0.0       3.1       0.1       0.4       0.9       1.9
 7 H  pz              0.0       4.0       0.1       2.2       1.1       5.1
 7 H  px              0.0       0.0       0.9       0.0       0.3       0.0
 7 H  py              0.1       3.4       0.0       0.0       1.0       1.4
 8 H  s               1.0       1.8       0.0       0.9       0.4       2.3
 8 H  pz              2.8       1.8       0.0       3.1       0.4       5.9
 8 H  px              0.0       0.1       0.8       0.0       0.4       0.1
 8 H  py              1.6       2.3       0.1       0.0       0.3       1.2
 9 H  s               0.3       0.5       1.9       0.2       5.2       0.1
 9 H  pz              1.3       0.3       5.1       0.9       7.0       0.4
 9 H  px              0.3       0.1       0.3       0.0       0.2       0.2
 9 H  py              0.6       0.7       0.8       0.2       5.1       0.0
10 H  s               0.2       0.9       0.4       0.1       5.4       1.7
10 H  pz              0.1       0.8       2.3       0.3       6.2       3.0
10 H  px              2.3       0.2       0.1       0.0       0.1       0.4
10 H  py              0.8       1.0       0.0       0.1       6.3       1.5
11 H  pz              1.1       0.1       0.0       0.0       0.0       0.0
11 H  px             10.4       0.1       0.5       0.4       0.0       0.0
11 H  py              0.5       0.0       0.1       0.0       0.1       0.0

                    114       115       116       117       118       119   
                   3.63133   4.10956   4.58875  21.88850  21.96430  22.00438
                   0.00000   0.00000   0.00000   0.00000   0.00000   0.00000
                  --------  --------  --------  --------  --------  --------
 0 C  s               0.0       0.1       0.0      70.6      26.5       2.6
 0 C  pz              1.7       0.0       0.0       0.0       0.0       0.0
 0 C  px              0.0       0.3       0.0       0.0       0.0       0.0
 0 C  dz2             0.2       0.0       0.0       0.0       0.0       0.0
 0 C  dyz             5.0       0.0       0.0       0.0       0.0       0.0
 1 C  s               0.0       0.1       0.0      20.2      69.7       9.8
 1 C  pz              6.7       0.0       0.0       0.0       0.0       0.0
 1 C  dz2             0.2       0.0       0.0       0.0       0.0       0.0
 1 C  dxz             0.4       0.0       0.0       0.0       0.0       0.0
 1 C  dyz            19.2       0.0       0.0       0.0       0.0       0.0
 1 C  dxy             0.0       0.3       0.0       0.0       0.0       0.0
 2 C  s               0.0       1.8       0.2       8.7       3.6      87.3
 2 C  pz              2.5       0.1       0.0       0.0       0.0       0.0
 2 C  px              0.0       6.9       0.9       0.0       0.0       0.0
 2 C  py              0.0       2.3       0.3       0.0       0.0       0.0
 2 C  dz2             0.0       4.1       0.5       0.0       0.0       0.0
 2 C  dxz             0.7       0.1       0.0       0.0       0.0       0.0
 2 C  dyz             7.5       0.0       0.2       0.0       0.0       0.0
 2 C  dx2y2           0.0       4.5       0.7       0.0       0.0       0.0
 2 C  dxy             0.0       4.6       0.5       0.0       0.0       0.0
 3 O  s               0.2      24.8       6.0       0.0       0.0       0.1
 3 O  pz              0.1       1.0       7.8       0.0       0.0       0.0
 3 O  px              0.0      16.4       2.2       0.0       0.0       0.0
 3 O  py              0.0       1.6       9.5       0.0       0.0       0.0
 3 O  dz2             0.0       3.2       6.9       0.0       0.0       0.0
 3 O  dxz             1.0       0.2       0.5       0.0       0.0       0.0
 3 O  dyz             0.0       3.6      25.3       0.0       0.0       0.0
 3 O  dx2y2           0.0       4.8       8.0       0.0       0.0       0.0
 3 O  dxy             0.0      13.0       0.1       0.0       0.0       0.0
 4 H  s               1.5       0.0       0.0       0.0       0.0       0.0
 4 H  pz              2.4       0.0       0.0       0.0       0.0       0.0
 4 H  px              0.2       0.1       0.0       0.0       0.0       0.0
 4 H  py              1.2       0.0       0.0       0.0       0.0       0.0
 6 H  s               1.0       0.0       0.0       0.0       0.0       0.0
 6 H  pz              1.2       0.0       0.0       0.0       0.0       0.0
 6 H  px              0.2       0.1       0.0       0.0       0.0       0.0
 6 H  py              1.0       0.0       0.0       0.0       0.0       0.0
 7 H  s               4.3       0.0       0.0       0.0       0.0       0.0
 7 H  pz              5.2       0.0       0.0       0.0       0.0       0.0
 7 H  px              0.1       0.0       0.0       0.0       0.0       0.0
 7 H  py              4.9       0.1       0.0       0.0       0.0       0.0
 8 H  s               5.3       0.0       0.0       0.0       0.0       0.0
 8 H  pz              7.9       0.0       0.0       0.0       0.0       0.0
 8 H  py              4.5       0.1       0.0       0.0       0.0       0.0
 9 H  s               1.8       0.7       0.0       0.0       0.0       0.0
 9 H  pz              2.8       1.0       0.0       0.0       0.0       0.0
 9 H  px              0.0       0.2       0.0       0.0       0.0       0.0
 9 H  py              1.9       0.1       0.0       0.0       0.0       0.0
10 H  s               1.9       0.2       0.2       0.0       0.0       0.0
10 H  pz              2.6       0.5       0.2       0.0       0.0       0.0
10 H  px              0.1       0.5       0.0       0.0       0.0       0.0
10 H  py              2.2       0.0       0.1       0.0       0.0       0.0
11 H  s               0.0       0.8      14.0       0.0       0.0       0.0
11 H  pz              0.1       0.6       8.8       0.0       0.0       0.0
11 H  px              0.1       0.1       0.1       0.0       0.0       0.0
11 H  py              0.0       0.6       7.0       0.0       0.0       0.0

                    120   
                  43.58383
                   0.00000
                  --------
 3 O  s              99.9


                      *****************************
                      * MAYER POPULATION ANALYSIS *
                      *****************************

  NA   - Mulliken gross atomic population
  ZA   - Total nuclear charge
  QA   - Mulliken gross atomic charge
  VA   - Mayer's total valence
  BVA  - Mayer's bonded valence
  FA   - Mayer's free valence

  ATOM       NA         ZA         QA         VA         BVA        FA
  0 C      6.4667     6.0000    -0.4667     3.8176     3.8176     0.0000
  1 C      6.2106     6.0000    -0.2106     3.6394     3.6394     0.0000
  2 C      6.1538     6.0000    -0.1538     3.7825     3.7825     0.0000
  3 O      8.4142     8.0000    -0.4142     1.8133     1.8133    -0.0000
  4 H      0.8592     1.0000     0.1408     0.9651     0.9651     0.0000
  5 H      0.8520     1.0000     0.1480     0.9619     0.9619     0.0000
  6 H      0.8570     1.0000     0.1430     0.9648     0.9648    -0.0000
  7 H      0.8800     1.0000     0.1200     0.9653     0.9653     0.0000
  8 H      0.8518     1.0000     0.1482     0.9601     0.9601     0.0000
  9 H      0.8782     1.0000     0.1218     0.9521     0.9521     0.0000
 10 H      0.8669     1.0000     0.1331     0.9569     0.9569    -0.0000
 11 H      0.7095     1.0000     0.2905     0.9121     0.9121     0.0000

  Mayer bond orders larger than 0.100000
B(  0-C ,  1-C ) :   0.9056 B(  0-C ,  4-H ) :   0.9781 B(  0-C ,  5-H ) :   0.9683 
B(  0-C ,  6-H ) :   0.9797 B(  1-C ,  2-C ) :   0.9240 B(  1-C ,  7-H ) :   0.9589 
B(  1-C ,  8-H ) :   0.9639 B(  2-C ,  3-O ) :   0.9405 B(  2-C ,  9-H ) :   0.9774 
B(  2-C , 10-H ) :   0.9745 B(  3-O , 11-H ) :   0.8981 

-------
TIMINGS
-------

Total SCF time: 0 days 0 hours 0 min 6 sec 

Total time                  ....       6.080 sec
Sum of individual times     ....       6.045 sec  ( 99.4%)

SCF preparation             ....       0.227 sec  (  3.7%)
Fock matrix formation       ....       5.599 sec  ( 92.1%)
  Startup                   ....       0.007 sec  (  0.1% of F)
  Split-RI-J                ....       0.744 sec  ( 13.3% of F)
  XC integration            ....       4.752 sec  ( 84.9% of F)
    XC Preparation          ....       0.000 sec  (  0.0% of XC)
    Basis function eval.    ....       0.943 sec  ( 19.8% of XC)
    Density eval.           ....       1.339 sec  ( 28.2% of XC)
    XC-Functional eval.     ....       0.855 sec  ( 18.0% of XC)
    XC-Potential eval.      ....       1.382 sec  ( 29.1% of XC)
Diagonalization             ....       0.000 sec  (  0.0%)
Density matrix formation    ....       0.039 sec  (  0.6%)
Total Energy calculation    ....       0.002 sec  (  0.0%)
Population analysis         ....       0.081 sec  (  1.3%)
Orbital Transformation      ....       0.011 sec  (  0.2%)
Orbital Orthonormalization  ....       0.000 sec  (  0.0%)
DIIS solution               ....       0.076 sec  (  1.2%)
  MO trafo                  ....       0.000 sec  (  0.0 % of DIIS)
  Orb grad                  ....       0.000 sec  (  0.0 % of DIIS)
  Energy W gradient         ....       0.000 sec  (  0.0 % of DIIS)
  DIIS error                ....       0.002 sec  (  3.3 % of DIIS)
  DIIS work                 ....       0.066 sec  ( 87.4 % of DIIS)
  Form Q                    ....       0.000 sec  (  0.0 % of DIIS)
  Form QpQm                 ....       0.000 sec  (  0.0 % of DIIS)
  Exp/Cayley                ....       0.000 sec  (  0.0 % of DIIS)
  Orb update                ....       0.000 sec  (  0.0 % of DIIS)
  Wake-sleep                ....       0.001 sec  (  1.6 % of DIIS)
SOSCF solution              ....       0.010 sec  (  0.2%)
  MO trafo                  ....       0.007 sec  ( 74.4 % of SOSCF)
  Orb grad                  ....       0.000 sec  (  0.6 % of SOSCF)
  Rot update                ....       0.000 sec  (  0.2 % of SOSCF)
  Step                      ....       0.002 sec  ( 24.4 % of SOSCF)
Finished LeanSCF after   6.1 sec

Maximum memory used throughout the entire LEANSCF-calculation: 12.9 MB


-------------------------------------------------------------------------------
                          DFT DISPERSION CORRECTION                            
                                                                               
                                DFTD4 V3.4.0                                   
-------------------------------------------------------------------------------
The R2SCAN3C composite method is recognized
Using three-body term ABC
Active option DFTDOPT                   ...         5   

-------------------------   ----------------
Dispersion correction           -0.002070009
-------------------------   ----------------

------------------   -----------------
gCP correction             0.006964843
------------------   -----------------

-------------------------   --------------------
FINAL SINGLE POINT ENERGY      -194.298782574595
-------------------------   --------------------


------------------------------------------------------------------------------
                              ORCA PROPERTY CALCULATIONS
------------------------------------------------------------------------------

GBWName                                 ... sp.gbw
Number of atoms                         ...     12
Number of basis functions               ...    121
Max core memory                         ...   1024 MB

Electric properties:
Dipole moment                           ... YES
Quadrupole moment                       ...  NO
Static polarizability (Dipole/Dipole)   ...  NO
Static polarizability (Dipole/Quad.)    ...  NO
Static polarizability (Quad./Quad.)     ...  NO
Static polarizability (Velocity)        ...  NO

Atomic electric properties:
Dipole moment                           ...  NO
Quadrupole moment                       ...  NO
Static polarizability                   ...  NO

Choice of electric origin               ... Center of mass
Position of electric origin             ...    -0.000039     0.000002    -0.000003

General magnetic properties:
Magnetizability                         ...  NO

EPR properties:
g-Tensor (aka g-matrix)                 ...  NO
Zero-Field splitting spin-orbit         ...  NO
Zero-field splitting spin-spin          ...  NO
Hyperfine couplings                     ...  NO (   0 nuclei)
Quadrupole couplings                    ...  NO (   0 nuclei)
Contact density                         ...  NO (   0 nuclei)

NMR properties:
Chemical shifts                         ...  NO (   0 nuclei)
Spin-rotation constants                 ...  NO (   0 nuclei)
Spin-spin couplings                     ...  NO (   0 nuclei,    0 pairs)

Choice of magnetic origin               ... GIAO
Position of magnetic origin             ...     0.000000     0.000000     0.000000

Properties with geometric perturbations:
SCF Hessian                             ...  NO
IR spectrum                             ...  NO
VCD spectrum                            ...  NO
X-ray spectroscopy properties:
SCF XES/XAS/RIXS spectra                ...  NO


-------------
DIPOLE MOMENT
-------------

Method             : SCF
Type of density    : Electron Density
Multiplicity       :   1
Irrep              :   0
Energy             :  -194.3036774082220290 Eh
Relativity type    : 
Basis              : AO
                                X                 Y                 Z
Electronic contribution:      4.202069353      -0.321853439       0.261495987
Nuclear contribution   :     -4.687307264       0.142477219      -0.667976281
                        -----------------------------------------
Total Dipole Moment    :     -0.485237911      -0.179376220      -0.406480294
                        -----------------------------------------
Magnitude (a.u.)       :      0.657919363
Magnitude (Debye)      :      1.672298121



--------------------
Rotational spectrum 
--------------------
 
Rotational constants in cm-1:             0.869614             0.127005             0.119021 
Rotational constants in MHz :         26070.357033          3807.506250          3568.163972 

Dipole components along the rotational axes: 
x,y,z [a.u.] :     0.485237    -0.179378    -0.406480 
x,y,z [Debye]:     1.233375    -0.455943    -1.033190 

 

Dipole moment calculation done in   0.0 sec 

Maximum memory used throughout the entire PROP-calculation: 7.1 MB

--------------------------------
SUGGESTED CITATIONS FOR THIS RUN
--------------------------------

Below you find a list of papers that are relevant to this ORCA run
We neither can nor want to force you to cite these papers, but we appreciate if you do
You receive ORCA, which is the product of decades of hard work by many enthusiastic individuals, for free
The only thing we kindly ask in return is that you cite our papers,
We deeply appreciate it, if you show your appreciation for ORCA by not just citing the generic ORCA reference.

Please note that relegating all ORCA citations to the supporting information does *not* help us.
SI sections are not indexed - citations you put there will not count into any citation statistics
But we need these citations in order to attract the funding resources that allow us to do what we are doing

Therefore, if you are a happy ORCA user, please consider citing a few of the papers listed below in the main body of your paper

In addition to the list printed below, the program has created the file sp.bibtex that contains the list in bibtex format
You can import this file easily into all common literature databanks and citation aid programs


List of essential papers. We consider these as the minimum necessary citations

  1. Neese,F.
     Software update: the ORCA program system, version 5.0
     WIRES Comput. Molec. Sci., 2022 12(1)e1606
     doi.org/10.1002/wcms.1606
  2. Grimme,S.; Hansen,A.; Ehlert,S.; Mewes,J.
     r2SCAN-3c: A 'Swiss army knife' composite electronic-structure method
     J. Chem. Phys., 2021 154 064103
     doi.org/10.1063/5.0040021

List of papers to cite with high priority. The work reported in these papers was absolutely
necessary for this run to complete.
Our perspective: the developers of density functionals and basis sets usually get cited in chemistry papers
Good! But without the algorithms to do something with them, the functionals or basis sets would not do anything.
Hence, in our opinion, the algorithm design and method developments papers are equally worthy of getting cited

  1. Neese,F.
     An improvement of the resolution of the identity approximation for the formation of the Coulomb matrix
     J. Comp. Chem., 2003 24(14)1740-1747
     doi.org/10.1002/jcc.10318
  2. Neese,F.
     The SHARK Integral Generation and Digestion System
     J. Comp. Chem., 2022  1-16
     doi.org/10.1002/jcc.26942
  3. Lehtola,S.; Steigemann,C.; Oliveira,M.; Marques,M.
     Recent developments in Libxc - A comprehensive library of functionals for density functional theory
     Software X, 2018 7 
     doi.org/10.1016/j.softx.2017.11.002
  4. Caldeweyher,E.; Bannwarth,C.; Grimme,S.
     Extension of the D3 dispersion coefficient model
     J. Chem. Phys., 2017 147 034112
     doi.org/10.1063/1.4993215
  5. Caldeweyher,E.; Ehlert,S.; Hansen,A.; Neugebauer,H.; Spicher,S.; Bannwarth,C.; Grimme,S.
     A generally applicable atomic-charge dependent London dispersion correction
     J. Chem. Phys., 2019 150 154122
     doi.org/10.1063/1.5090222
  6. Caldeweyher,E.; Mewes,J.; Ehlert,S.; Grimme,S.
     Extension and evaluation of the D4 London-dispersion model for periodic systems
     Phys. Chem. Chem. Phys., 2020 22(16)8499-8512
     doi.org/10.1039/D0CP00502A
  7. Wittmann,L.; Gordiy,I.; Friede,M.; Helmich-Paris,B.; Grimme,S.; Hansen,A.; Bursch,M.
     Extension of the D3 and D4 London Dispersion Corrections to the full Actinides Series
     Phys. Chem. Chem. Phys., 2024 26(32)21379-21394
     doi.org/https://doi.org/10.1039/D4CP01514B 

List of suggested additional citations. These are papers that are important in the 'surrounding' of 
of this run, or papers that preceded the highly important papers. If you like your results we are grateful for a citation.

  1. Neese,F.
     The ORCA program system
     WIRES Comput. Molec. Sci., 2012 2(1)73-78
     doi.org/10.1002/wcms.81
  2. Neese,F.
     Software update: the ORCA program system, version 4.0
     WIRES Comput. Molec. Sci., 2018 8(1)1-6
     doi.org/10.1002/wcms.1327
  3. Neese,F.; Wennmohs,F.; Becker,U.; Riplinger,C.
     The ORCA quantum chemistry program package
     J. Chem. Phys., 2020 152 Art. No. L224108
     doi.org/10.1063/5.0004608

List of optional additional citations

  1. Neese,F.
     Approximate second-order SCF convergence for spin unrestricted wavefunctions
     Chem. Phys. Lett., 2000 325(1-3)93-98
     doi.org/10.1016/s0009-2614(00)00662-x

Timings for individual modules:

Sum of individual times          ...        6.733 sec (=   0.112 min)
Startup calculation              ...        0.417 sec (=   0.007 min)   6.2 %
SCF iterations                   ...        6.247 sec (=   0.104 min)  92.8 %
Property calculations            ...        0.069 sec (=   0.001 min)   1.0 %
                             ****ORCA TERMINATED NORMALLY****
TOTAL RUN TIME: 0 days 0 hours 0 minutes 7 seconds 34 msec
