
                                 *****************
                                 * O   R   C   A *
                                 *****************

                                            #,                                       
                                            ###                                      
                                            ####                                     
                                            #####                                    
                                            ######                                   
                                           ########,                                 
                                     ,,################,,,,,                         
                               ,,#################################,,                 
                          ,,##########################################,,             
                       ,#########################################, ''#####,          
                    ,#############################################,,   '####,        
                  ,##################################################,,,,####,       
                ,###########''''           ''''###############################       
              ,#####''   ,,,,##########,,,,          '''####'''          '####       
            ,##' ,,,,###########################,,,                        '##       
           ' ,,###''''                  '''############,,,                           
         ,,##''                                '''############,,,,        ,,,,,,###''
      ,#''                                            '''#######################'''  
     '                                                          ''''####''''         
             ,#######,   #######,   ,#######,      ##                                
            ,#'     '#,  ##    ##  ,#'     '#,    #''#        ,####,   ,####,        
            ##       ##  ##   ,#'  ##            #'  '#       #'       #'  '#        
            ##       ##  #######   ##           ,######,      #####,   #    #        
            '#,     ,#'  ##    ##  '#,     ,#' ,#      #,     #,   #   #,  ,#        
             '#######'   ##     ##  '#######'  #'      '#     '####' # '####'        



                #########################################################
                #                        -***-                          #
                #          Department of theory and spectroscopy        #
                #                                                       #
                #                      Frank Neese                      #
                #                                                       #
                #     Directorship, Architecture, Infrastructure        #
                #                    SHARK, DRIVERS                     #
                #        Core code/Algorithms in most modules           #
                #                                                       #
                #        Max Planck Institute fuer Kohlenforschung      #
                #                Kaiser Wilhelm Platz 1                 #
                #                 D-45470 Muelheim/Ruhr                 #
                #                      Germany                          #
                #                                                       #
                #                  All rights reserved                  #
                #                        -***-                          #
                #########################################################


                         Program Version 6.0.1  -  RELEASE   -


 With contributions from (in alphabetic order):
[Max-Planck-Institut fuer Kohlenforschung]                               
  Daniel Aravena         : Magnetic Suceptibility                        
  Michael Atanasov       : Ab Initio Ligand Field Theory (pilot matlab implementation)
  Alexander A. Auer      : GIAO ZORA, VPT2 properties, NMR spectrum      
  Ute Becker             : All parallelization in ORCA, NUMFREQ, NUMCALC 
  Giovanni Bistoni       : ED, misc. LED, open-shell LED, HFLD           
  Martin Brehm           : Molecular dynamics                            
  Dmytro Bykov           : pre 5.0 version of the SCF Hessian            
  Marcos Casanova-Páez   : Triplet and SCS-CIS(D). UHF-(DLPNO)-IP/EA/STEOM-CCSD. UHF-CVS-IP/STEOM-CCSD   
  Vijay G. Chilkuri      : MRCI spin determinant printing, contributions to CSF-ICE 
  Pauline Colinet        : FMM embedding                                 
  Dipayan Datta          : RHF DLPNO-CCSD density                        
  Achintya Kumar Dutta   : EOM-CC, STEOM-CC                              
  Nicolas Foglia         : Exact transition moments, OPA infrastructure, MCD improvements    
  Dmitry Ganyushin       : Spin-Orbit,Spin-Spin,Magnetic field MRCI      
  Miquel Garcia-Rates    : C-PCM and meta-GGA Hessian, CCSD/C-PCM, Gaussian charge scheme 
  Tiago L. C. Gouveia    : GS-ROHF, GS-ROCIS                             
  Yang Guo               : DLPNO-NEVPT2, F12-NEVPT2, CIM, IAO-localization        
  Andreas Hansen         : Spin unrestricted coupled pair/coupled cluster methods 
  Ingolf Harden          : AUTO-CI MPn and infrastructure                
  Benjamin Helmich-Paris : MC-RPA, TRAH-(SCF,CASSCF), AVAS, COSX integrals, SCF dyn. polar. 
  Lee Huntington         : MR-EOM, pCC                                   
  Robert Izsak           : Overlap fitted RIJCOSX, COSX-SCS-MP3, EOM     
  Riya Kayal             : Wick's Theorem for AUTO-CI, AUTO-CI UHF-CCSDT 
  Emily Kempfer          : AUTO-CI, RHF CISDT and CCSDT                  
  Christian Kollmar      : KDIIS, OOCD, Brueckner-CCSD(T), CCSD density, CASPT2, CASPT2-K, improved NEVPT2 
  Axel Koslowski         : Symmetry handling                             
  Simone Kossmann        : meta-GGA functionals, TD-DFT gradient, OOMP2, (MP2 Hessian; deprecated post 5.0) 
  Lucas Lang             : DCDCAS                                        
  Marvin Lechner         : AUTO-CI (C++ implementation), FIC-MRCC        
  Spencer Leger          : CASSCF response                               
  Dagmar Lenk            : GEPOL surface, SMD, ORCA-2-JSON               
  Dimitrios Liakos       : Extrapolation schemes; Compound Job, initial MDCI parallelization 
  Dimitrios Manganas     : Further ROCIS development; embedding schemes. LFT, Crystal Embedding 
  Dimitrios Pantazis     : SARC Basis sets                               
  Anastasios Papadopoulos: AUTO-CI, single reference methods and gradients 
  Taras Petrenko         : pre 6.0 DFT Hessian and TD-DFT gradient, (ASA, deprecated), ECA, 1-Electron XAS/XES, NRVS 
  Peter Pinski           : DLPNO-MP2, DLPNO-MP2 Gradient                 
  Christoph Reimann      : Effective Core Potentials                     
  Marius Retegan         : Local ZFS, SOC                                
  Christoph Riplinger    : Optimizer, TS searches, QM/MM, DLPNO-CCSD(T), (RO)-DLPNO pert. Triples 
  Michael Roemelt        : Original ROCIS implementation                 
  Masaaki Saitow         : Open-shell DLPNO-CCSD energy and density      
  Barbara Sandhoefer     : DKH picture change effects                    
  Kantharuban Sivalingam : CASSCF convergence/infrastructure, NEVPT2 and variants, FIC-MRCI 
  Bernardo de Souza      : ESD, SOC TD-DFT                               
  Georgi L. Stoychev     : AutoAux, RI-MP2 NMR, DLPNO-MP2 response, X2C  
  Van Anh Tran           : RI-MP2 g-tensors                              
  Willem Van den Heuvel  : Paramagnetic NMR                              
  Zikuan Wang            : NOTCH, Electric field optimization            
  Frank Wennmohs         : Technical directorship and infrastructure     
  Hang Xu                : AUTO-CI-Response properties                   
                                                                         
[FACCTs GmbH]                                                            
  Markus Bursch, Miquel Garcia-Rates, Christoph Riplinger, Bernardo de Souza, Georgi L. Stoychev 
                                                                 
  APM, Basis sets (HGBS, AHGBS, def-TZVP (Ac-Lr), def2-XVPD (La-Lu)), CI-OPT, improved COSX, DLPNO-Multilevel,           
  DOCKER, DRACO, updates on ESD, GOAT, IRC, LR-CPCM, MBIS, meta-GGA TD-DFT gradient, ML-optimized integration grids, 
  MM, NACMEs, nearIR, NEB, NEB-TS, NL-DFT gradient (VV10), 2- and 3-layer-ONIOM, interface openCOSMO-RS, QMMM,   
  Crystal-QMMM, SF, symmetry and pop. for TD-DFT, r2SCAN hybrids, SOLVATOR                                   
                                                                         
[Other institutions]                                                     
  V. Asgeirsson          : NEB                                           
  Christoph Bannwarth    : sTDA-DFT, sTD-DFT, PBEh-3c, B97-3c, D3        
  Sebastian Ehlert       : rSCAN, r2SCAN, r2SCAN-3c, D4, dhf basis sets  
  Marvin Friede          : D4 for Fr, Ra, Ac-Lr                          
  Lars Goerigk           : TD-DFT with DH, B97 family of functionals     
  Stefan Grimme          : VdW corrections, initial TS optimization, DFT functionals, gCP, sTDA/sTD-DF 
  Waldemar Hujo          : DFT-NL                                        
  H. Jonsson             : NEB                                           
  Holger Kruse           : gCP                                           
  Marcel Mueller         : wB97X-3c, vDZP basis set                      
  Hagen Neugebauer       : wr2SCAN                                       
  Tobias Risthaus        : range-separated hybrid DFT                    
  Lukas Wittmann         : regularized MP2, r2SCAN double-hybrids, wr2SCAN        
                                                                         
We gratefully acknowledge several colleagues who have allowed us to      
interface, adapt or use parts of their codes:                            
  Ed Valeev, F. Pavosevic, A. Kumar             : LibInt (2-el integral package), F12 methods 
  Garnet Chan, S. Sharma, J. Yang, R. Olivares  : DMRG                   
  Ulf Ekstrom                                   : XCFun DFT Library      
  Mihaly Kallay                                 : mrcc  (arbitrary order and MRCC methods)
  Frank Weinhold                                : gennbo (NPA and NBO analysis)           
  Simon Mueller                                 : openCOSMO-RS                            
  Christopher J. Cramer and Donald G. Truhlar   : smd solvation model                     
  S Lehtola, MJT Oliveira, MAL Marques          : LibXC Library                           
  Liviu Ungur et al                             : ANISO software                          


 Your calculation uses the libint2 library for the computation of 2-el integrals
 For citations please refer to: http://libint.valeyev.net

 Your ORCA version has been built with support for libXC version: 6.2.2
 For citations please refer to: https://libxc.gitlab.io

 This ORCA versions uses:
   CBLAS   interface :  Fast vector & matrix operations
   LAPACKE interface :  Fast linear algebra routines
   SCALAPACK package :  Parallel linear algebra routines
   Shared memory     :  Shared parallel matrices
   BLAS/LAPACK       :  OpenBLAS 0.3.27  USE64BITINT DYNAMIC_ARCH NO_AFFINITY Zen SINGLE_THREADED
        Core in use  :  Zen
   Copyright (c) 2011-2014, The OpenBLAS Project


Your calculation utilizes the geometrical counterpoise correction gCP
Please cite in your paper:
H.Kruse, S. Grimme J.Chem.Phys., 136, (2012), 154101 
   

Your calculation utilizes the atom-pairwise dispersion correction
based on EEQ partial charges (D4)


================================================================================

----- Orbital basis set information -----
Your calculation utilizes the basis: def2-SV(P)
   F. Weigend and R. Ahlrichs, Phys. Chem. Chem. Phys. 7, 3297 (2005).

----- AuxJ basis set information -----
Your calculation utilizes the auxiliary basis: def2/J
   F. Weigend, Phys. Chem. Chem. Phys. 8, 1057 (2006).

================================================================================
                                        WARNINGS
                       Please study these warnings very carefully!
================================================================================


================================================================================
                                       INPUT FILE
================================================================================
NAME = sp.inp
|  1> ! pbe def2-sv(p) def2/J RI DEFGRID1 loosescf d4 GCP(DFT/SV(P)) printgap
|  2> %output
|  3>     printlevel normal
|  4> end
|  5> * xyz 0 1
|  6> C -2.5407769761 -0.4908891478 -0.4423427423
|  7> C -1.3845227567 0.1886465264 0.2678079267
|  8> O -0.1759065807 -0.4972668612 -0.0671755801
|  9> C 0.970013801 0.1714778004 0.0901372807
| 10> O 1.0369805996 1.297912527 0.5052946944
| 11> C 2.1442091702 -0.6687176194 -0.3400938963
| 12> H -2.4006040301 -0.4442576088 -1.5189911317
| 13> H -2.6004187074 -1.5343109796 -0.1448666353
| 14> H -3.4706191292 0.0069699845 -0.1833944458
| 15> H -1.5140619184 0.151890641 1.3554664015
| 16> H -1.2889717644 1.2382770054 -0.0306497357
| 17> H 2.2369952224 -0.6081843699 -1.4227340034
| 18> H 1.9816390993 -1.7063941127 -0.0651900155
| 19> H 3.0528418264 -0.2861184238 0.114262356
| 20> *
| 21> 
| 22>                          ****END OF INPUT****
================================================================================

                       ****************************
                       * Single Point Calculation *
                       ****************************

---------------------------------
CARTESIAN COORDINATES (ANGSTROEM)
---------------------------------
  C     -2.540777   -0.490889   -0.442343
  C     -1.384523    0.188647    0.267808
  O     -0.175907   -0.497267   -0.067176
  C      0.970014    0.171478    0.090137
  O      1.036981    1.297913    0.505295
  C      2.144209   -0.668718   -0.340094
  H     -2.400604   -0.444258   -1.518991
  H     -2.600419   -1.534311   -0.144867
  H     -3.470619    0.006970   -0.183394
  H     -1.514062    0.151891    1.355466
  H     -1.288972    1.238277   -0.030650
  H      2.236995   -0.608184   -1.422734
  H      1.981639   -1.706394   -0.065190
  H      3.052842   -0.286118    0.114262

----------------------------
CARTESIAN COORDINATES (A.U.)
----------------------------
  NO LB      ZA    FRAG     MASS         X           Y           Z
   0 C     6.0000    0    12.011   -4.801373   -0.927646   -0.835907
   1 C     6.0000    0    12.011   -2.616369    0.356490    0.506084
   2 O     8.0000    0    15.999   -0.332415   -0.939698   -0.126943
   3 C     6.0000    0    12.011    1.833060    0.324046    0.170335
   4 O     8.0000    0    15.999    1.959609    2.452699    0.954869
   5 C     6.0000    0    12.011    4.051968   -1.263693   -0.642684
   6 H     1.0000    0     1.008   -4.536484   -0.839525   -2.870477
   7 H     1.0000    0     1.008   -4.914079   -2.899428   -0.273758
   8 H     1.0000    0     1.008   -6.558520    0.013171   -0.346565
   9 H     1.0000    0     1.008   -2.861162    0.287032    2.561460
  10 H     1.0000    0     1.008   -2.435804    2.340004   -0.057920
  11 H     1.0000    0     1.008    4.227308   -1.149302   -2.688578
  12 H     1.0000    0     1.008    3.744755   -3.224618   -0.123191
  13 H     1.0000    0     1.008    5.769035   -0.540685    0.215925

--------------------------------
INTERNAL COORDINATES (ANGSTROEM)
--------------------------------
 C      0   0   0     0.000000000000     0.00000000     0.00000000
 C      1   0   0     1.517565987057     0.00000000     0.00000000
 O      2   1   0     1.429490883499   108.64299978     0.00000000
 C      3   2   1     1.336076449829   117.21903452   158.97082558
 O      4   3   2     1.202370751289   123.87210151     0.77979390
 C      4   3   2     1.506572923614   110.83604684   181.61236456
 H      1   2   3     1.086735804884   110.25019589   299.02177736
 H      1   2   3     1.086636226814   110.10152337    58.86693813
 H      1   2   3     1.086059098556   109.60179258   178.93300442
 H      2   1   3     1.095961836621   111.05937257   240.80841707
 H      2   1   3     1.095413671094   111.59392894   119.94829075
 H      6   4   3     1.088293676945   108.63359346    81.57100301
 H      6   4   3     1.085713441189   110.12101639   322.83800029
 H      6   4   3     1.085557484609   109.65037726   200.58640176

---------------------------
INTERNAL COORDINATES (A.U.)
---------------------------
 C      0   0   0     0.000000000000     0.00000000     0.00000000
 C      1   0   0     2.867784105691     0.00000000     0.00000000
 O      2   1   0     2.701346280750   108.64299978     0.00000000
 C      3   2   1     2.524818584158   117.21903452   158.97082558
 O      4   3   2     2.272151431373   123.87210151     0.77979390
 C      4   3   2     2.847010226411   110.83604684   181.61236456
 H      1   2   3     2.053633051158   110.25019589   299.02177736
 H      1   2   3     2.053444875877   110.10152337    58.86693813
 H      1   2   3     2.052354261524   109.60179258   178.93300442
 H      2   1   3     2.071067724443   111.05937257   240.80841707
 H      2   1   3     2.070031841722   111.59392894   119.94829075
 H      6   4   3     2.056577002705   108.63359346    81.57100301
 H      6   4   3     2.051701063765   110.12101639   322.83800029
 H      6   4   3     2.051406348540   109.65037726   200.58640176

---------------------
BASIS SET INFORMATION
---------------------
There are 3 groups of distinct atoms

 Group   1 Type C   : 7s4p1d contracted to 3s2p1d pattern {511/31/1}
 Group   2 Type O   : 7s4p1d contracted to 3s2p1d pattern {511/31/1}
 Group   3 Type H   : 4s contracted to 2s pattern {31}

Atom   0C    basis set group =>   1
Atom   1C    basis set group =>   1
Atom   2O    basis set group =>   2
Atom   3C    basis set group =>   1
Atom   4O    basis set group =>   2
Atom   5C    basis set group =>   1
Atom   6H    basis set group =>   3
Atom   7H    basis set group =>   3
Atom   8H    basis set group =>   3
Atom   9H    basis set group =>   3
Atom  10H    basis set group =>   3
Atom  11H    basis set group =>   3
Atom  12H    basis set group =>   3
Atom  13H    basis set group =>   3
---------------------------------
AUXILIARY/J BASIS SET INFORMATION
---------------------------------
There are 3 groups of distinct atoms

 Group   1 Type C   : 12s5p4d2f1g contracted to 6s4p3d1f1g pattern {711111/2111/211/2/1}
 Group   2 Type O   : 12s5p4d2f1g contracted to 6s4p3d1f1g pattern {711111/2111/211/2/1}
 Group   3 Type H   : 5s2p1d contracted to 3s1p1d pattern {311/2/1}

Atom   0C    basis set group =>   1
Atom   1C    basis set group =>   1
Atom   2O    basis set group =>   2
Atom   3C    basis set group =>   1
Atom   4O    basis set group =>   2
Atom   5C    basis set group =>   1
Atom   6H    basis set group =>   3
Atom   7H    basis set group =>   3
Atom   8H    basis set group =>   3
Atom   9H    basis set group =>   3
Atom  10H    basis set group =>   3
Atom  11H    basis set group =>   3
Atom  12H    basis set group =>   3
Atom  13H    basis set group =>   3
------------------------------------------------------------------------------
                             ORCA STARTUP CALCULATIONS
                           -- RI-GTO INTEGRALS CHOSEN --
------------------------------------------------------------------------------
------------------------------------------------------------------------------
                   ___                                                        
                  /   \      - P O W E R E D   B Y -                         
                 /     \                                                     
                 |  |  |   _    _      __       _____    __    __             
                 |  |  |  | |  | |    /  \     |  _  \  |  |  /  |          
                  \  \/   | |  | |   /    \    | | | |  |  | /  /          
                 / \  \   | |__| |  /  /\  \   | |_| |  |  |/  /          
                |  |  |   |  __  | /  /__\  \  |    /   |      \           
                |  |  |   | |  | | |   __   |  |    \   |  |\   \          
                \     /   | |  | | |  |  |  |  | |\  \  |  | \   \       
                 \___/    |_|  |_| |__|  |__|  |_| \__\ |__|  \__/        
                                                                              
                      - O R C A' S   B I G   F R I E N D -                    
                                      &                                       
                       - I N T E G R A L  F E E D E R -                       
                                                                              
 v1 FN, 2020, v2 2021, v3 2022-2024                                           
------------------------------------------------------------------------------


----------------------
SHARK INTEGRAL PACKAGE
----------------------

Number of atoms                             ...     14
Number of basis functions                   ...    100
Number of shells                            ...     52
Maximum angular momentum                    ...      2
Integral batch strategy                     ... SHARK/LIBINT Hybrid
RI-J (if used) integral strategy            ... SPLIT-RIJ (Revised 2003 algorithm where possible)
Printlevel                                  ...      1
Contraction scheme used                     ... SEGMENTED contraction
Prescreening option                         ... SCHWARTZ
   Thresh                                   ... 1.000e-09
   Tcut                                     ... 1.000e-10
   Tpresel                                  ... 1.000e-10 
Coulomb Range Separation                    ... NOT USED
Exchange Range Separation                   ... NOT USED
Multipole approximations                    ... NOT USED
Finite Nucleus Model                        ... NOT USED
CABS basis                                  ... NOT available
Auxiliary Coulomb fitting basis             ... AVAILABLE
   # of basis functions in Aux-J            ...    382
   # of shells in Aux-J                     ...    130
   Maximum angular momentum in Aux-J        ...      4
Auxiliary J/K fitting basis                 ... NOT available
Auxiliary Correlation fitting basis         ... NOT available
Auxiliary 'external' fitting basis          ... NOT available

Checking pre-screening integrals            ... done (  0.0 sec) Dimension = 52
Check shell pair data                       ... done (  0.0 sec)
Shell pair information
Shell pair cut-off parameter TPreSel        ...   1.0e-10
Total number of shell pairs                 ...      1378
Shell pairs after pre-screening             ...      1321
Total number of primitive shell pairs       ...      5562
Primitive shell pairs kept                  ...      3844
          la=0 lb=0:    558 shell pairs
          la=1 lb=0:    400 shell pairs
          la=1 lb=1:     78 shell pairs
          la=2 lb=0:    193 shell pairs
          la=2 lb=1:     72 shell pairs
          la=2 lb=2:     20 shell pairs

Calculating one electron integrals          ... done (  0.0 sec)
Calculating RI/J V-Matrix + Cholesky decomp.... done (  0.0 sec)
Calculating Nuclear repulsion               ... done (  0.0 sec) ENN=    244.443783530418 Eh

Diagonalization of the overlap matrix:
Smallest eigenvalue                        ... 2.990e-03
Time for diagonalization                   ...    0.002 sec
Threshold for overlap eigenvalues          ... 1.000e-07
Number of eigenvalues below threshold      ... 0
Time for construction of square roots      ...    0.004 sec
Total time needed                          ...    0.007 sec

-------------------
DFT GRID GENERATION
-------------------

General Integration Accuracy     IntAcc      ... 4.159
Radial Grid Type                 RadialGrid  ... OptM3 with GC (2021)
Angular Grid (max. ang.)         AngularGrid ... 3 (Lebedev-194)
Angular grid pruning method      GridPruning ... 4 (adaptive)
Weight generation scheme         WeightScheme... mBecke (2022)
Basis function cutoff            BFCut       ... 1.0000e-10
Integration weight cutoff        WCut        ... 1.0000e-14
Partially contracted basis set               ... off
Rotationally invariant grid construction     ... off
Angular grids for H and He will be reduced by one unit

Total number of grid points                  ...    31147
Total number of batches                      ...      494
Average number of points per batch           ...       63
Average number of grid points per atom       ...     2225
Initializing property integral containers    ... done (  0.0 sec)

SHARK setup successfully completed in   0.4 seconds

Maximum memory used throughout the entire STARTUP-calculation: 15.8 MB
-------------------------------------------------------------------------------
                                 ORCA GUESS
                   Start orbitals & Density for SCF / CASSCF
-------------------------------------------------------------------------------

------------
SCF SETTINGS
------------
Hamiltonian:
 Density Functional     Method          .... DFT(GTOs)
 Exchange Functional    Exchange        .... PBE
   PBE kappa parameter   XKappa         ....  0.804000
   PBE mue parameter    XMuePBE         ....  0.219520
 Correlation Functional Correlation     .... PBE
   PBE beta parameter  CBetaPBE         ....  0.066725
 LDA part of GGA corr.  LDAOpt          .... PW91-LDA
 Gradients option       PostSCFGGA      .... off
   NL short-range parameter             ....  6.400000
 RI-approximation to the Coulomb term is turned on
   Number of AuxJ basis functions       .... 382


General Settings:
 Integral files         IntName         .... sp
 Hartree-Fock type      HFTyp           .... RHF
 Total Charge           Charge          ....    0
 Multiplicity           Mult            ....    1
 Number of Electrons    NEL             ....   48
 Basis Dimension        Dim             ....  100
 Nuclear Repulsion      ENuc            ....    244.4437835304 Eh

Convergence Acceleration:
 AO-DIIS                CNVDIIS         .... on
   Start iteration      DIISMaxIt       ....    12
   Startup error        DIISStart       ....  0.200000
   # of expansion vecs  DIISMaxEq       ....     5
   Bias factor          DIISBfac        ....   1.050
   Max. coefficient     DIISMaxC        ....  10.000
 MO-DIIS                CNVKDIIS        .... off
 Trust-Rad. Augm. Hess. CNVTRAH         .... auto
   Auto Start mean grad. ratio tolernc. ....  1.125000
   Auto Start start iteration           ....    50
   Auto Start num. interpolation iter.  ....    10
   Max. Number of Micro iterations      ....    24
   Max. Number of Macro iterations      .... Maxiter - #DIIS iter
   Number of Davidson start vectors     ....     2
   Converg. threshold    (grad. norm)   ....   1.000e-04
   Grad. Scal. Fac. for Micro threshold ....   0.100
   Minimum threshold for Micro iter.    ....   1.000e-02
   NR start threshold (gradient norm)   ....   1.000e-04
   Initial trust radius                 ....   0.400
   Minimum AH scaling param. (alpha)    ....   1.000
   Maximum AH scaling param. (alpha)    .... 1000.000
   Quad. conv. algorithm                .... NR
   White noise on init. David. guess    .... on
   Maximum white noise                  ....   0.010
   Pseudo random numbers                .... off
   Inactive MOs                         .... canonical
   Orbital update algorithm             .... Taylor
   Preconditioner                       .... Diag
   Full preconditioner red. dimension   ....   250
 SOSCF                  CNVSOSCF        .... on
   Start iteration      SOSCFMaxIt      ....   150
   Startup grad/error   SOSCFStart      ....  0.003300
   Hessian update       SOSCFHessUp     .... L-BFGS
 Level Shifting         CNVShift        .... on
   Level shift para.    LevelShift      ....    0.2500
   Turn off err/grad.   ShiftErr        ....    0.0010
 Zerner damping         CNVZerner       .... off
 Static damping         CNVDamp         .... on
   Fraction old density DampFac         ....    0.7000
   Max. Damping (<1)    DampMax         ....    0.9800
   Min. Damping (>=0)   DampMin         ....    0.0000
   Turn off err/grad.   DampErr         ....    0.1000

SCF Procedure:
 Maximum # iterations   MaxIter         ....   125
 SCF integral mode      SCFMode         .... Direct
   Integral package                     .... SHARK and LIBINT hybrid scheme
 Reset frequency        DirectResetFreq ....    20
 Integral Threshold     Thresh          ....  1.000e-09 Eh
 Primitive CutOff       TCut            ....  1.000e-10 Eh

Convergence Tolerance:
 Convergence Check Mode ConvCheckMode   .... Total+1el-Energy
 Convergence forced     ConvForced      .... 0
 Energy Change          TolE            ....  1.000e-05 Eh
 1-El. energy change                    ....  1.000e-02 Eh
 Orbital Gradient       TolG            ....  1.000e-04
 Orbital Rotation angle TolX            ....  1.000e-04
 DIIS Error             TolErr          ....  5.000e-04

------------------------------
INITIAL GUESS: MODEL POTENTIAL
------------------------------
Loading Hartree-Fock densities                     ... done
Calculating cut-offs                               ... done
Initializing the effective Hamiltonian             ... done
Setting up the integral package (SHARK)            ... done
Starting the Coulomb interaction                   ... done (   0.1 sec)
Making the grid                                    ... done (   0.1 sec)
Mapping shells                                     ... done
Starting the XC term evaluation                    ... done (   0.1 sec)
  promolecular density results
     # of electrons  =     47.998359380
     EX              =    -39.123868538
     EC              =     -1.579699732
     EX+EC           =    -40.703568271
Transforming the Hamiltonian                       ... done (   0.0 sec)
Diagonalizing the Hamiltonian                      ... done (   0.0 sec)
Back transforming the eigenvectors                 ... done (   0.0 sec)
Now organizing SCF variables                       ... done
                      ------------------
                      INITIAL GUESS DONE (   0.3 sec)
                      ------------------
             **** ENERGY FILE WAS UPDATED (sp.en.tmp) ****
Finished Guess after   0.3 sec
Maximum memory used throughout the entire GUESS-calculation: 12.2 MB

-------------------------------------------------------------------------------------------
                                      ORCA LEAN-SCF
                              memory conserving SCF solver
-------------------------------------------------------------------------------------------

----------------------------------------D-I-I-S--------------------------------------------
Iteration    Energy (Eh)           Delta-E    RMSDP     MaxDP     DIISErr   Damp  Time(sec)
-------------------------------------------------------------------------------------------
               ***  Starting incremental Fock matrix formation  ***
    1    -306.8944317404916546     0.00e+00  5.96e-03  1.03e-01  2.46e-01  0.700   0.3
    2    -306.9916590605423607    -9.72e-02  3.61e-03  5.28e-02  7.74e-02  0.700   0.3
                               ***Turning on AO-DIIS***
    3    -307.0206508119423461    -2.90e-02  1.40e-03  1.60e-02  2.80e-02  0.700   0.3
    4    -307.0400835746378334    -1.94e-02  1.96e-03  2.31e-02  1.48e-02  0.000   0.3
    5    -307.0853116650578158    -4.52e-02  6.37e-04  6.39e-03  1.01e-02  0.000   0.3
                              *** Initializing SOSCF ***
---------------------------------------S-O-S-C-F--------------------------------------
Iteration    Energy (Eh)           Delta-E    RMSDP     MaxDP     MaxGrad    Time(sec)
--------------------------------------------------------------------------------------
    6    -307.0858640107771862    -5.52e-04  2.32e-04  2.66e-03  3.22e-03     0.3
               *** Restarting incremental Fock matrix formation ***
    7    -307.0859021960377504    -3.82e-05  1.81e-04  3.04e-03  6.34e-04     0.3
    8    -307.0858815564556608     2.06e-05  1.10e-04  2.30e-03  1.90e-03     0.2
    9    -307.0859081098590195    -2.66e-05  6.81e-05  9.94e-04  2.19e-04     0.2
   10    -307.0859052130170994     2.90e-06  4.17e-05  7.30e-04  4.24e-04     0.2
                 **** Energy Check signals convergence ****

               *****************************************************
               *                     SUCCESS                       *
               *           SCF CONVERGED AFTER  10 CYCLES          *
               *****************************************************

             **** ENERGY FILE WAS UPDATED (sp.en.tmp) ****

----------------
TOTAL SCF ENERGY
----------------

Total Energy       :       -307.08590521301710 Eh           -8356.23230 eV

Components:
Nuclear Repulsion  :        244.44378353041756 Eh            6651.65351 eV
Electronic Energy  :       -551.52968874343469 Eh          -15007.88582 eV
One Electron Energy:       -901.77992359909899 Eh          -24538.67924 eV
Two Electron Energy:        350.25023485566436 Eh            9530.79343 eV

Virial components:
Potential Energy   :       -611.84206019192402 Eh          -16649.06888 eV
Kinetic Energy     :        304.75615497890686 Eh            8292.83658 eV
Virial Ratio       :          2.00764463718303

DFT components:
N(Alpha)           :       24.000042132490 electrons
N(Beta)            :       24.000042132490 electrons
N(Total)           :       48.000084264979 electrons
E(X)               :      -39.887854216655 Eh       
E(C)               :       -1.596146814978 Eh       
E(XC)              :      -41.484001031633 Eh       

---------------
SCF CONVERGENCE
---------------

  Last Energy change         ...   -2.8968e-06  Tolerance :   1.0000e-05
  Last MAX-Density change    ...    7.3043e-04  Tolerance :   1.0000e-03
  Last RMS-Density change    ...    4.1726e-05  Tolerance :   1.0000e-04
  Last DIIS Error            ...    3.2201e-03  Tolerance :   5.0000e-04
  Last Orbital Gradient      ...    4.2376e-04  Tolerance :   1.0000e-04
  Last Orbital Rotation      ...    4.1091e-04  Tolerance :   1.0000e-04


----------------
ORBITAL ENERGIES
----------------

  NO   OCC          E(Eh)            E(eV) 
   0   2.0000     -18.795347      -511.4474 
   1   2.0000     -18.732218      -509.7296 
   2   2.0000     -10.007050      -272.3057 
   3   2.0000      -9.944380      -270.6003 
   4   2.0000      -9.892743      -269.1952 
   5   2.0000      -9.888254      -269.0731 
   6   2.0000      -1.003804       -27.3149 
   7   2.0000      -0.913225       -24.8501 
   8   2.0000      -0.711819       -19.3696 
   9   2.0000      -0.662574       -18.0296 
  10   2.0000      -0.577568       -15.7164 
  11   2.0000      -0.507122       -13.7995 
  12   2.0000      -0.447752       -12.1839 
  13   2.0000      -0.432778       -11.7765 
  14   2.0000      -0.407855       -11.0983 
  15   2.0000      -0.399147       -10.8614 
  16   2.0000      -0.367618       -10.0034 
  17   2.0000      -0.353493        -9.6190 
  18   2.0000      -0.351387        -9.5617 
  19   2.0000      -0.340715        -9.2713 
  20   2.0000      -0.314873        -8.5681 
  21   2.0000      -0.295983        -8.0541 
  22   2.0000      -0.255851        -6.9621 
  23   2.0000      -0.218631        -5.9493 
  24   0.0000      -0.016908        -0.4601 
  25   0.0000       0.042569         1.1583 
  26   0.0000       0.059420         1.6169 
  27   0.0000       0.085746         2.3333 
  28   0.0000       0.092059         2.5051 
  29   0.0000       0.099132         2.6975 
  30   0.0000       0.112602         3.0641 
  31   0.0000       0.120776         3.2865 
  32   0.0000       0.125826         3.4239 
  33   0.0000       0.137077         3.7301 
  34   0.0000       0.181203         4.9308 
*Only the first 10 virtual orbitals were printed.

                    ********************************
                    * MULLIKEN POPULATION ANALYSIS *
                    ********************************

-----------------------
MULLIKEN ATOMIC CHARGES
-----------------------
   0 C :   -0.277334
   1 C :   -0.030830
   2 O :   -0.249305
   3 C :    0.080580
   4 O :   -0.197816
   5 C :   -0.251234
   6 H :    0.112508
   7 H :    0.113069
   8 H :    0.110299
   9 H :    0.101693
  10 H :    0.108601
  11 H :    0.133306
  12 H :    0.122066
  13 H :    0.124396
Sum of atomic charges:    0.0000000

--------------------------------
MULLIKEN REDUCED ORBITAL CHARGES
--------------------------------
  0 C s       :     3.086931  s :     3.086931
      pz      :     1.065614  p :     3.162524
      px      :     1.030979
      py      :     1.065932
      dz2     :     0.009732  d :     0.027879
      dxz     :     0.003589
      dyz     :     0.002483
      dx2y2   :     0.006614
      dxy     :     0.005461

  1 C s       :     3.081618  s :     3.081618
      pz      :     1.061803  p :     2.889394
      px      :     0.819689
      py      :     1.007902
      dz2     :     0.015243  d :     0.059819
      dxz     :     0.010424
      dyz     :     0.004514
      dx2y2   :     0.015762
      dxy     :     0.013877

  2 O s       :     3.739163  s :     3.739163
      pz      :     1.700987  p :     4.494116
      px      :     1.179360
      py      :     1.613769
      dz2     :     0.002108  d :     0.016025
      dxz     :     0.002887
      dyz     :     0.002007
      dx2y2   :     0.002899
      dxy     :     0.006124

  3 C s       :     3.065469  s :     3.065469
      pz      :     0.868130  p :     2.722061
      px      :     0.924897
      py      :     0.929034
      dz2     :     0.012706  d :     0.131891
      dxz     :     0.016861
      dyz     :     0.021496
      dx2y2   :     0.030220
      dxy     :     0.050608

  4 O s       :     3.742542  s :     3.742542
      pz      :     1.378896  p :     4.437117
      px      :     1.736231
      py      :     1.321991
      dz2     :     0.002631  d :     0.018156
      dxz     :     0.000567
      dyz     :     0.005823
      dx2y2   :     0.005409
      dxy     :     0.003725

  5 C s       :     3.039054  s :     3.039054
      pz      :     1.084105  p :     3.186901
      px      :     1.047554
      py      :     1.055242
      dz2     :     0.007707  d :     0.025280
      dxz     :     0.003722
      dyz     :     0.002203
      dx2y2   :     0.006220
      dxy     :     0.005428

  6 H s       :     0.887492  s :     0.887492

  7 H s       :     0.886931  s :     0.886931

  8 H s       :     0.889701  s :     0.889701

  9 H s       :     0.898307  s :     0.898307

 10 H s       :     0.891399  s :     0.891399

 11 H s       :     0.866694  s :     0.866694

 12 H s       :     0.877934  s :     0.877934

 13 H s       :     0.875604  s :     0.875604


------------------------
MULLIKEN OVERLAP CHARGES
------------------------
B(  0-C ,  1-C ) :   0.8456 B(  0-C ,  2-O ) :  -0.1126 B(  0-C ,  6-H ) :   0.7431 
B(  0-C ,  7-H ) :   0.7271 B(  0-C ,  8-H ) :   0.7182 B(  0-C ,  9-H ) :  -0.0570 
B(  1-C ,  2-O ) :   0.5522 B(  1-C ,  3-C ) :  -0.0695 B(  1-C ,  9-H ) :   0.7507 
B(  1-C , 10-H ) :   0.7196 B(  2-O ,  3-C ) :   0.6853 B(  2-O ,  4-O ) :  -0.1692 
B(  2-O ,  5-C ) :  -0.2560 B(  2-O ,  9-H ) :  -0.0610 B(  2-O , 10-H ) :  -0.0710 
B(  3-C ,  4-O ) :   1.3858 B(  3-C ,  5-C ) :   0.7622 B(  4-O ,  5-C ) :  -0.1736 
B(  4-O , 10-H ) :   0.0537 B(  5-C , 11-H ) :   0.6873 B(  5-C , 12-H ) :   0.6605 
B(  5-C , 13-H ) :   0.6850 B(  6-H ,  7-H ) :  -0.0534 B(  9-H , 10-H ) :  -0.0820 



                     *******************************
                     * LOEWDIN POPULATION ANALYSIS *
                     *******************************

----------------------
LOEWDIN ATOMIC CHARGES
----------------------
   0 C :   -0.350968
   1 C :   -0.113620
   2 O :   -0.080461
   3 C :    0.027258
   4 O :   -0.157290
   5 C :   -0.360680
   6 H :    0.125156
   7 H :    0.125208
   8 H :    0.129386
   9 H :    0.114086
  10 H :    0.116252
  11 H :    0.148034
  12 H :    0.138135
  13 H :    0.139505

-------------------------------
LOEWDIN REDUCED ORBITAL CHARGES
-------------------------------
  0 C s       :     2.949677  s :     2.949677
      pz      :     1.120256  p :     3.332242
      px      :     1.091132
      py      :     1.120854
      dz2     :     0.023132  d :     0.069049
      dxz     :     0.009317
      dyz     :     0.006217
      dx2y2   :     0.016405
      dxy     :     0.013977

  1 C s       :     2.922042  s :     2.922042
      pz      :     1.105622  p :     3.058095
      px      :     0.885291
      py      :     1.067182
      dz2     :     0.034461  d :     0.133484
      dxz     :     0.023977
      dyz     :     0.009442
      dx2y2   :     0.034061
      dxy     :     0.031543

  2 O s       :     3.456260  s :     3.456260
      pz      :     1.688429  p :     4.591693
      px      :     1.255176
      py      :     1.648088
      dz2     :     0.004256  d :     0.032507
      dxz     :     0.005452
      dyz     :     0.002463
      dx2y2   :     0.006950
      dxy     :     0.013386

  3 C s       :     2.846246  s :     2.846246
      pz      :     0.865576  p :     2.826972
      px      :     0.949626
      py      :     1.011770
      dz2     :     0.026264  d :     0.299523
      dxz     :     0.034902
      dyz     :     0.045404
      dx2y2   :     0.069290
      dxy     :     0.123664

  4 O s       :     3.544726  s :     3.544726
      pz      :     1.393804  p :     4.580647
      px      :     1.734518
      py      :     1.452325
      dz2     :     0.004160  d :     0.031916
      dxz     :     0.000855
      dyz     :     0.009822
      dx2y2   :     0.011163
      dxy     :     0.005917

  5 C s       :     2.954192  s :     2.954192
      pz      :     1.128790  p :     3.340895
      px      :     1.099451
      py      :     1.112653
      dz2     :     0.019238  d :     0.065593
      dxz     :     0.009758
      dyz     :     0.005571
      dx2y2   :     0.016183
      dxy     :     0.014843

  6 H s       :     0.874844  s :     0.874844

  7 H s       :     0.874792  s :     0.874792

  8 H s       :     0.870614  s :     0.870614

  9 H s       :     0.885914  s :     0.885914

 10 H s       :     0.883748  s :     0.883748

 11 H s       :     0.851966  s :     0.851966

 12 H s       :     0.861865  s :     0.861865

 13 H s       :     0.860495  s :     0.860495


---------------------------------
LOEWDIN BOND ORDERS (THRESH 0.050000)
---------------------------------
B(  0-C ,  1-C ) :   1.1553 B(  0-C ,  2-O ) :   0.0560 B(  0-C ,  6-H ) :   0.9384 
B(  0-C ,  7-H ) :   0.9374 B(  0-C ,  8-H ) :   0.9313 B(  1-C ,  2-O ) :   1.0793 
B(  1-C ,  3-C ) :   0.0765 B(  1-C ,  9-H ) :   0.9156 B(  1-C , 10-H ) :   0.9068 
B(  2-O ,  3-C ) :   1.3812 B(  2-O ,  4-O ) :   0.2077 B(  2-O ,  5-C ) :   0.0728 
B(  3-C ,  4-O ) :   2.2374 B(  3-C ,  5-C ) :   1.1023 B(  4-O ,  5-C ) :   0.0965 
B(  5-C , 11-H ) :   0.9159 B(  5-C , 12-H ) :   0.9259 B(  5-C , 13-H ) :   0.9285 


------------------------------------------
LOEWDIN REDUCED ORBITAL POPULATIONS PER MO
-------------------------------------------
THRESHOLD FOR PRINTING IS 0.1%%
                      0         1         2         3         4         5   
                 -18.79535 -18.73222 -10.00705  -9.94438  -9.89274  -9.88825
                   2.00000   2.00000   2.00000   2.00000   2.00000   2.00000
                  --------  --------  --------  --------  --------  --------
 0 C  s               0.0       0.0       0.0       0.0       0.0      99.7
 1 C  s               0.0       0.0       0.0      99.6       0.0       0.0
 2 O  s              99.9       0.0       0.0       0.0       0.0       0.0
 2 O  px              0.0       0.0       0.1       0.1       0.0       0.0
 3 C  s               0.0       0.0      99.3       0.0       0.0       0.0
 4 O  s               0.0      99.9       0.0       0.0       0.0       0.0
 4 O  py              0.0       0.0       0.3       0.0       0.0       0.0
 5 C  s               0.0       0.0       0.0       0.0      99.7       0.0

                      6         7         8         9        10        11   
                  -1.00380  -0.91323  -0.71182  -0.66257  -0.57757  -0.50712
                   2.00000   2.00000   2.00000   2.00000   2.00000   2.00000
                  --------  --------  --------  --------  --------  --------
 0 C  s               0.3       0.2      15.4      13.4      16.3       0.8
 0 C  pz              0.1       0.0       0.5       0.1       0.9       2.1
 0 C  px              0.5       0.3       1.4       0.0       3.5       0.0
 0 C  py              0.0       0.0       0.4       0.1       0.5       4.6
 1 C  s               4.7       2.5      19.0       3.3       6.8       8.1
 1 C  pz              0.2       0.2       0.3       0.2       1.3       5.1
 1 C  px              4.5       1.0       1.4       4.4       5.4       3.1
 1 C  py              0.8       0.8       0.5       0.1       0.4      16.3
 1 C  dz2             0.1       0.0       0.0       0.0       0.0       0.1
 1 C  dxz             0.1       0.0       0.0       0.1       0.1       0.0
 1 C  dyz             0.0       0.0       0.0       0.0       0.0       0.2
 1 C  dx2y2           0.1       0.1       0.0       0.0       0.0       0.1
 1 C  dxy             0.2       0.1       0.0       0.1       0.2       0.3
 2 O  s              39.9      16.8       0.3       1.6       0.0       5.0
 2 O  pz              0.3       0.0       0.1       0.1       0.5       0.7
 2 O  px              0.4       0.4      15.0       0.0      19.5      14.2
 2 O  py              2.5       0.2       0.2       0.2       0.1       4.8
 2 O  dxy             0.0       0.0       0.1       0.0       0.2       0.1
 3 C  s              19.0       4.8       4.7       2.5       1.7       2.3
 3 C  pz              0.1       2.1       1.0       1.0       0.1       0.1
 3 C  px              4.7       3.9       0.8       8.7       3.5       1.7
 3 C  py              0.1      18.4       6.6       3.2       1.0       1.3
 3 C  dz2             0.4       0.0       0.0       0.0       0.0       0.0
 3 C  dyz             0.2       0.4       0.0       0.0       0.0       0.0
 3 C  dx2y2           0.0       1.4       0.1       0.0       0.0       0.0
 3 C  dxy             0.4       0.1       0.0       0.3       0.3       0.0
 4 O  s              12.5      40.2       1.5       0.7       0.1       1.4
 4 O  pz              0.3       0.5       0.0       0.0       0.0       0.0
 4 O  px              0.1       0.0       0.0       0.4       0.2       1.0
 4 O  py              2.5       3.9       0.2       0.1       0.1       0.6
 4 O  dx2y2           0.1       0.1       0.0       0.0       0.0       0.0
 5 C  s               1.0       0.2       8.4      28.8       6.1       0.5
 5 C  pz              0.1       0.1       0.0       0.0       0.1       0.1
 5 C  px              1.3       0.0       0.9       0.1       2.0       1.8
 5 C  py              0.4       0.4       0.0       0.1       0.1       0.1
 6 H  s               0.0       0.0       2.9       2.9       5.6       1.3
 7 H  s               0.1       0.0       3.0       2.9       5.3       1.8
 8 H  s               0.0       0.0       2.8       3.2       6.6       0.0
 9 H  s               0.6       0.3       3.5       0.7       2.5       8.2
10 H  s               0.8       0.1       3.4       0.6       1.9      10.4
11 H  s               0.1       0.0       1.7       6.8       2.2       0.4
12 H  s               0.2       0.0       1.9       6.5       1.6       0.2
13 H  s               0.1       0.1       1.3       6.5       2.9       0.9

                     12        13        14        15        16        17   
                  -0.44775  -0.43278  -0.40786  -0.39915  -0.36762  -0.35349
                   2.00000   2.00000   2.00000   2.00000   2.00000   2.00000
                  --------  --------  --------  --------  --------  --------
 0 C  s               0.0       0.3       0.2       0.0       0.0       0.0
 0 C  pz              5.9       0.0       3.5       5.8       0.6      15.7
 0 C  px              0.1       4.6       1.4       1.8      13.8       0.6
 0 C  py              2.2       0.4       0.6       6.0       9.3      11.2
 0 C  dz2             0.0       0.0       0.0       0.0       0.0       0.2
 0 C  dx2y2           0.0       0.0       0.0       0.0       0.1       0.2
 0 C  dxy             0.0       0.1       0.0       0.0       0.2       0.0
 1 C  s               0.0       0.6       0.3       0.1       0.2       0.1
 1 C  pz             17.2       2.5       0.1       7.6       0.3       2.8
 1 C  px              0.7       0.6       5.4       0.1       0.1       4.9
 1 C  py              8.4       0.6       0.2       2.4       1.0       2.3
 1 C  dx2y2           0.0       0.0       0.1       0.0       0.1       0.1
 1 C  dxy             0.0       0.0       0.0       0.0       0.1       0.0
 2 O  s               0.2       0.1       1.4       0.2       2.4       0.5
 2 O  pz             12.6       5.3       6.0       0.0       0.0       3.0
 2 O  px              0.1       1.4       1.3       0.0       0.0       0.3
 2 O  py              8.4       1.4      12.6       2.5       0.9       0.4
 3 C  s               0.3       4.0       1.6       0.1       0.6       0.2
 3 C  pz              8.2       4.6       4.3       8.3       0.1       0.4
 3 C  px              2.2      13.5       0.1       1.0       0.5       0.8
 3 C  py              2.6       0.2       1.5       3.4       0.8       4.6
 3 C  dx2y2           0.0       0.0       0.4       0.0       0.2       0.2
 3 C  dxy             0.0       0.0       0.1       0.0       0.2       0.0
 4 O  s               0.0       2.5      12.1       1.1       1.2       2.6
 4 O  pz              2.5       3.6       0.4       6.9       0.5       3.1
 4 O  px              1.4       6.1       0.4       0.7       2.0       0.4
 4 O  py              1.0       3.3      24.5       0.5       5.1      11.5
 4 O  dx2y2           0.0       0.0       0.2       0.0       0.0       0.1
 4 O  dxy             0.0       0.1       0.0       0.0       0.0       0.0
 5 C  s               0.2       1.5       0.0       0.0       0.0       0.0
 5 C  pz              5.5       0.6       4.7      20.4       0.4       0.4
 5 C  px              0.9       9.9       4.6       0.4       8.7       0.5
 5 C  py              0.1      17.5       2.8       3.5      15.3       7.6
 5 C  dz2             0.0       0.1       0.0       0.2       0.0       0.0
 5 C  dx2y2           0.0       0.0       0.0       0.0       0.2       0.1
 5 C  dxy             0.0       0.4       0.0       0.0       0.0       0.0
 6 H  s               2.2       0.1       1.7       2.5       0.7       8.9
 7 H  s               1.4       0.5       0.2       4.3       3.3       2.8
 8 H  s               0.0       1.5       0.1       0.2      12.5       5.6
 9 H  s               6.9       0.2       0.6       2.6       0.0       1.6
10 H  s               5.1       0.0       0.1       2.5       0.0       1.4
11 H  s               3.1       1.7       1.2      10.2       0.0       0.3
12 H  s               0.0       8.0       0.8       4.0       8.5       4.4
13 H  s               0.0       1.7       4.2       0.2       9.5       0.0

                     18        19        20        21        22        23   
                  -0.35139  -0.34071  -0.31487  -0.29598  -0.25585  -0.21863
                   2.00000   2.00000   2.00000   2.00000   2.00000   2.00000
                  --------  --------  --------  --------  --------  --------
 0 C  s               0.0       0.1       0.1       0.4       0.1       0.0
 0 C  pz              7.0       1.9      11.0       0.3       0.6       0.0
 0 C  px              8.0      15.7       0.0       2.2       0.5       0.1
 0 C  py              8.2       5.4       1.0       6.0       0.0       0.1
 0 C  dz2             0.1       0.2       0.5       0.0       0.1       0.0
 0 C  dx2y2           0.2       0.0       0.0       0.2       0.0       0.0
 0 C  dxy             0.1       0.1       0.0       0.0       0.0       0.0
 1 C  s               0.1       0.1       0.1       0.3       0.0       0.2
 1 C  pz              1.0       0.2      11.3       0.3       4.6       0.1
 1 C  px              3.0       8.8       0.1       0.2       0.0       0.5
 1 C  py              0.1       2.7       0.6      15.3       0.6       0.4
 1 C  dz2             0.0       0.1       0.6       0.0       0.6       0.0
 1 C  dxz             0.0       0.3       0.0       0.1       0.4       0.0
 1 C  dyz             0.0       0.0       0.0       0.0       0.1       0.0
 1 C  dx2y2           0.0       0.0       0.0       0.9       0.1       0.0
 1 C  dxy             0.3       0.0       0.0       0.0       0.0       0.0
 2 O  s               0.0       0.1       0.3       3.8       0.0       0.2
 2 O  pz              6.1       1.8       0.9       4.5      41.2       1.3
 2 O  px              3.1       3.6       0.2       0.2       0.2       2.5
 2 O  py              1.0       4.0       2.4      29.1       6.9       4.9
 2 O  dx2y2           0.0       0.0       0.0       0.1       0.0       0.0
 3 C  s               0.0       0.1       0.1       0.5       0.0       0.3
 3 C  pz              0.6       3.6       7.1       1.5       0.2       0.1
 3 C  px              2.0       2.4       0.3       0.5       0.0       0.8
 3 C  py              0.4       0.2       2.9       2.8       0.0       0.4
 3 C  dz2             0.0       0.0       0.2       0.0       0.4       0.1
 3 C  dxz             0.2       0.0       0.1       0.1       0.6       0.4
 3 C  dyz             0.0       0.1       0.2       0.2       1.0       0.1
 3 C  dx2y2           0.1       0.0       0.2       0.4       0.2       0.1
 3 C  dxy             0.0       0.3       0.0       0.3       0.0       4.2
 4 O  s               0.2       0.2       0.2       1.1       0.0       0.0
 4 O  pz              0.2       2.5      22.8       0.0      25.1       1.1
 4 O  px              0.5       0.5       0.0       0.2       0.9      72.0
 4 O  py              1.8       3.6       0.3       9.6       3.5       0.1
 5 C  s               0.0       0.1       0.0       0.2       0.0       0.8
 5 C  pz              9.9       8.1       4.0       1.0       0.0       1.1
 5 C  px             11.4       6.9       1.5       1.7       0.0       2.2
 5 C  py              0.9       1.8       1.3       0.2       0.1       3.5
 5 C  dz2             0.1       0.2       0.2       0.0       0.0       0.0
 5 C  dxz             0.2       0.0       0.1       0.0       0.0       0.0
 5 C  dx2y2           0.1       0.1       0.0       0.0       0.0       0.1
 6 H  s               3.0       2.6       8.3       0.1       0.8       0.0
 7 H  s               6.2       4.4       3.0       4.0       0.4       0.1
 8 H  s               5.8       4.3       0.1       0.1       0.1       0.3
 9 H  s               0.1       0.1       9.1       0.2       7.0       0.1
10 H  s               0.1       1.5       1.9      10.5       3.5       0.3
11 H  s               4.6       5.9       3.5       0.5       0.0       0.3
12 H  s               0.2       3.9       1.8       0.1       0.0       1.0
13 H  s              12.6       1.2       1.4       0.1       0.0       0.2

                     24        25        26        27        28        29   
                  -0.01691   0.04257   0.05942   0.08575   0.09206   0.09913
                   0.00000   0.00000   0.00000   0.00000   0.00000   0.00000
                  --------  --------  --------  --------  --------  --------
 0 C  s               0.1      12.7       5.2       5.0       0.5       4.6
 0 C  pz              0.0       0.5       0.0       6.0       0.5       1.9
 0 C  px              0.0       1.9       0.8       1.0       0.7       1.4
 0 C  py              0.1       0.4       0.1       0.0       8.4       0.6
 0 C  dz2             0.0       0.0       0.0       0.8       0.0       0.5
 0 C  dxz             0.0       0.1       0.0       0.2       0.0       0.0
 0 C  dyz             0.0       0.1       0.0       0.1       0.0       0.0
 0 C  dx2y2           0.0       0.0       0.1       0.0       1.0       0.1
 0 C  dxy             0.0       0.1       0.0       0.1       0.4       0.0
 1 C  s               0.1       6.2       1.8       2.7       0.0       9.8
 1 C  pz              0.1       2.0       0.2       8.9       0.9       0.2
 1 C  px              0.0       0.2       1.8       4.8       3.5       2.8
 1 C  py              0.0       2.5       0.2       0.2       8.3       1.0
 1 C  dz2             0.2       0.1       0.0       1.0       0.0       0.4
 1 C  dxz             0.2       0.0       0.1       0.4       0.0       0.1
 1 C  dyz             0.1       0.2       0.0       0.0       0.0       0.0
 1 C  dx2y2           0.0       0.1       0.0       0.0       1.2       0.1
 1 C  dxy             0.0       0.0       0.3       0.2       0.8       0.0
 2 O  s               0.0       1.2       1.1       0.7       2.0       2.0
 2 O  pz              8.4       0.3       0.1       0.0       0.1       0.1
 2 O  px              0.1       0.1       0.1       0.5       0.6       0.8
 2 O  py              1.1       0.2       0.4       0.5       1.1       0.6
 2 O  dz2             0.0       0.0       0.0       0.0       0.1       0.1
 2 O  dxz             0.4       0.0       0.0       0.0       0.1       0.0
 2 O  dx2y2           0.0       0.0       0.0       0.0       0.3       0.1
 2 O  dxy             0.0       0.1       0.1       0.0       0.0       0.1
 3 C  s               0.0       1.4       0.7       0.2       0.7       0.5
 3 C  pz             41.2       0.2       0.1       0.5       0.1       0.0
 3 C  px              0.3       0.4       0.7       0.0       0.3       0.6
 3 C  py              5.9       0.3       0.3       0.0       0.6       1.6
 3 C  dz2             0.3       0.4       0.2       0.0       0.1       0.0
 3 C  dxz             0.2       0.0       0.0       0.0       0.1       0.0
 3 C  dyz             0.6       0.2       0.1       0.0       0.0       0.3
 3 C  dx2y2           0.1       0.0       0.0       0.0       0.5       1.0
 4 O  s               0.0       0.4       0.3       0.1       0.1       0.5
 4 O  pz             23.2       0.3       0.0       0.0       0.0       0.4
 4 O  px              0.1       0.2       0.1       0.2       0.9       0.1
 4 O  py              3.4       0.0       0.0       0.0       0.2       0.1
 4 O  dz2             0.2       0.0       0.0       0.0       0.0       0.0
 4 O  dyz             0.4       0.0       0.0       0.0       0.0       0.0
 5 C  s               0.0       5.0      19.0       0.2       0.2       0.1
 5 C  pz              0.4       0.2       0.8       1.6       0.1       2.1
 5 C  px              0.0       0.0       1.6       0.2       0.1       2.8
 5 C  py              0.1       0.2       0.7       0.0       6.1       1.8
 5 C  dz2             1.1       0.0       0.0       0.1       0.0       0.1
 5 C  dxz             0.6       0.0       0.0       0.0       0.0       0.2
 5 C  dyz             0.2       0.0       0.0       0.0       0.1       0.1
 5 C  dx2y2           0.1       0.0       0.0       0.0       0.5       0.5
 5 C  dxy             0.0       0.0       0.0       0.0       0.0       0.1
 6 H  s               0.1       8.7       2.7      28.1       0.2       0.7
 7 H  s               0.0       8.8       4.0       0.4      22.3       9.9
 8 H  s               0.1      11.9       4.9       0.8       6.2      10.4
 9 H  s               1.3      11.6       1.5      29.9       1.7       3.4
10 H  s               0.2       8.8       1.0       0.1      13.7      15.9
11 H  s               6.0       5.3      20.4       3.9       0.1       2.1
12 H  s               2.1       4.4      13.8       0.1      11.7       2.6
13 H  s               0.9       2.3      14.5       0.0       2.8      14.7

                     30        31        32        33        34        35   
                   0.11260   0.12078   0.12583   0.13708   0.18120   0.19947
                   0.00000   0.00000   0.00000   0.00000   0.00000   0.00000
                  --------  --------  --------  --------  --------  --------
 0 C  s               0.3       0.0       0.1       0.0       2.0       0.8
 0 C  pz              1.0       5.8       1.0       6.2       4.7       2.0
 0 C  px              6.8       1.1       1.0       0.1      15.5       8.5
 0 C  py              6.2       0.0       1.2       4.9       5.8       1.6
 0 C  dz2             0.1       0.3       0.0       0.1       0.1       0.1
 0 C  dxz             0.0       0.0       0.0       0.6       2.0       1.3
 0 C  dyz             0.4       0.0       0.3       0.1       0.9       0.1
 0 C  dx2y2           0.2       0.1       0.4       0.1       0.6       0.7
 0 C  dxy             0.2       0.0       0.0       0.2       2.4       1.0
 1 C  s               1.0       0.0       4.5       0.0       3.8       1.9
 1 C  pz              1.0       0.1       1.9       6.8       5.2       3.8
 1 C  px              0.1       1.3      17.4       0.0      13.1       0.6
 1 C  py              0.6       0.5       5.6       7.9       1.6       7.0
 1 C  dz2             0.0       0.0       0.8       0.0       0.1       0.3
 1 C  dxz             0.0       0.0       0.4       0.1       1.8       0.3
 1 C  dyz             0.4       0.1       0.7       0.1       0.5       1.3
 1 C  dx2y2           0.1       0.0       0.4       0.2       0.4       0.2
 1 C  dxy             0.0       0.4       1.9       0.0       2.0       0.0
 2 O  s               0.2       0.3       6.3       0.1       0.2       0.1
 2 O  pz              0.1       0.7       0.6       2.0       0.3       0.0
 2 O  px              0.7       0.4       4.8       0.0       2.0       4.0
 2 O  py              0.1       0.1       3.3       0.5       0.2       0.2
 2 O  dyz             0.0       0.0       0.0       0.0       0.2       0.0
 2 O  dx2y2           0.0       0.0       0.1       0.1       0.4       0.0
 2 O  dxy             0.0       0.1       0.2       0.1       0.2       0.2
 3 C  s               0.2       0.1       1.8       0.6       8.8      16.5
 3 C  pz              0.2       2.5       0.3       0.7       0.4       1.4
 3 C  px              0.2       0.1       0.5       0.1       0.2       3.6
 3 C  py              0.0       0.2       0.2       0.5       1.8       2.0
 3 C  dz2             0.0       0.0       0.2       0.1       1.2       2.1
 3 C  dxz             0.0       0.2       0.1       0.1       0.0       0.0
 3 C  dyz             0.0       0.1       0.1       0.0       0.6       1.3
 3 C  dx2y2           0.3       0.0       0.1       0.0       0.2       0.0
 3 C  dxy             0.1       0.0       0.1       0.0       0.0       0.0
 4 O  s               0.0       0.0       0.0       0.2       0.0       1.5
 4 O  pz              0.0       1.0       0.1       0.1       0.2       0.0
 4 O  px              0.1       0.0       0.4       0.1       0.7       0.1
 4 O  py              0.1       0.0       0.1       0.0       0.4       1.4
 4 O  dx2y2           0.0       0.0       0.0       0.0       0.2       0.1
 5 C  s               0.1       0.0       0.5       0.1       0.9       0.7
 5 C  pz              0.1      16.8       1.1       1.4       1.4       2.2
 5 C  px              2.6       0.4       9.9       0.4       6.3      10.9
 5 C  py              8.0       3.2       0.3       0.2       2.3       5.9
 5 C  dz2             0.0       0.6       0.0       0.0       0.4       0.7
 5 C  dxz             0.2       0.0       0.2       0.1       0.5       0.8
 5 C  dyz             0.1       0.0       0.0       0.0       0.1       0.4
 5 C  dx2y2           0.4       0.0       0.0       0.0       0.3       0.2
 5 C  dxy             0.0       0.3       0.4       0.0       1.6       3.8
 6 H  s               1.4      11.0       3.2      12.0       0.5       0.5
 7 H  s               5.1       1.8       1.7      13.9       1.1       0.5
 8 H  s              28.3       3.6       3.1       0.7       1.1       0.4
 9 H  s               3.9       0.2       0.4      12.9       0.9       1.0
10 H  s               0.9       0.2       1.5      21.7       0.3       2.2
11 H  s               0.3      28.6       0.7       1.8       0.7       1.1
12 H  s              18.8      12.8       0.3       1.6       0.7       0.6
13 H  s               8.6       4.9      19.4       0.0       0.3       1.7

                     36        37        38        39        40        41   
                   0.23882   0.29750   0.38284   0.40246   0.41107   0.42518
                   0.00000   0.00000   0.00000   0.00000   0.00000   0.00000
                  --------  --------  --------  --------  --------  --------
 0 C  s               0.0       0.2       0.0       1.6       0.3       0.1
 0 C  pz              0.3       0.2       9.0      12.4       8.0       4.7
 0 C  px              0.0       4.5       0.2       4.7       3.6       3.7
 0 C  py              0.6       0.2      13.5       2.7       5.1       1.3
 0 C  dz2             0.0       0.0       4.8       0.5       2.2       1.6
 0 C  dxz             0.1       0.3       0.0       1.0       0.0       0.0
 0 C  dyz             0.3       0.0       0.8       0.5       0.8       0.2
 0 C  dx2y2           0.0       0.1       2.5       0.0       0.4       0.6
 0 C  dxy             0.0       0.4       0.1       0.5       0.3       0.8
 1 C  s               0.5       0.9       0.3       4.4       0.2       1.7
 1 C  pz              0.4       0.2       8.0      10.0       2.8       0.1
 1 C  px              3.9       3.3       0.2       0.6       0.1       3.7
 1 C  py              0.7       0.3       0.8      15.4       5.6       0.7
 1 C  dz2             0.1       0.1       4.1       0.5       0.1       0.4
 1 C  dxz             0.0       0.1       0.1       1.2       0.1       0.0
 1 C  dyz             0.0       0.1       0.0       2.7       1.3       0.0
 1 C  dx2y2           0.0       0.1       1.1       0.9       0.1       0.7
 1 C  dxy             0.0       0.6       0.5       0.1       0.0       0.0
 2 O  s               2.2       3.9       0.0       0.0       0.4       0.1
 2 O  pz              0.1       0.1       1.1       0.3       0.5       0.0
 2 O  px              4.9       8.6       0.1       0.2       0.6       1.7
 2 O  py              1.5       0.4       0.1       0.1       0.9       0.0
 2 O  dz2             0.0       0.2       0.2       0.0       0.2       0.0
 2 O  dxz             0.1       0.0       0.0       0.2       0.2       0.1
 2 O  dyz             0.0       0.0       0.1       0.1       0.3       0.0
 2 O  dx2y2           0.2       0.3       0.1       0.0       0.2       0.0
 2 O  dxy             0.9       0.5       0.2       0.5       0.4       0.9
 3 C  s              19.8       3.8       2.7       1.2       7.6       3.4
 3 C  pz              1.1       1.9       2.6      12.2       3.8      11.2
 3 C  px             14.6      15.4       1.3       0.6       3.5       2.4
 3 C  py              3.7      19.0       0.6       2.7       6.2       1.4
 3 C  dz2             2.9       0.1       0.0       0.0       0.0       0.8
 3 C  dxz             0.1       0.1       0.0       0.1       0.7       0.0
 3 C  dyz             2.1       0.3       0.0       0.0       0.1       0.0
 3 C  dx2y2           0.4       2.8       0.0       0.4       0.3       0.5
 3 C  dxy             1.2       1.2       0.0       0.0       0.0       0.3
 4 O  s               4.9       5.3       0.1       0.0       0.5       0.0
 4 O  pz              0.1       0.1       0.1       0.8       0.0       0.1
 4 O  px              2.8       4.5       0.2       0.9       0.1       0.1
 4 O  py              1.4       0.3       0.0       0.2       0.1       0.1
 4 O  dz2             0.0       0.0       0.0       0.0       0.1       0.0
 4 O  dyz             0.0       0.0       0.0       0.0       0.0       0.2
 4 O  dxy             0.6       0.5       0.0       0.0       0.1       0.0
 5 C  s               2.3       0.3       0.0       0.3       0.0       1.1
 5 C  pz              3.0       0.1       0.2       0.4      13.6      10.7
 5 C  px              9.1       0.1       0.0       2.0       0.1       9.2
 5 C  py              6.4       1.8       0.0       1.8       2.3       1.1
 5 C  dz2             0.5       0.0       0.0       0.3       3.1       3.2
 5 C  dxz             0.4       0.1       0.0       0.1       0.0       0.6
 5 C  dyz             0.4       0.3       0.0       0.1       0.0       0.2
 5 C  dx2y2           0.3       3.9       0.0       0.8       0.8       0.1
 5 C  dxy             1.2       0.3       0.0       0.0       0.3       0.9
 6 H  s               0.1       0.0      11.0       2.3       4.5       3.3
 7 H  s               0.2       0.1      14.9       0.1       0.2       0.3
 8 H  s               0.0       0.7       0.1       1.2       4.4       6.4
 9 H  s               0.4       0.0       9.7       2.2       0.7       2.1
10 H  s               0.4       0.1       8.3       4.1       0.2       1.0
11 H  s               1.7       0.0       0.2       0.6       5.7       7.8
12 H  s               0.7       4.8       0.0       2.6       5.9       0.6
13 H  s               0.2       6.4       0.0       0.8       0.2       7.1

                     42        43        44        45        46        47   
                   0.43541   0.46962   0.49470   0.50107   0.53674   0.59949
                   0.00000   0.00000   0.00000   0.00000   0.00000   0.00000
                  --------  --------  --------  --------  --------  --------
 0 C  s               2.2       0.3       0.9       0.8       2.7       2.1
 0 C  pz              1.4       0.3       2.0       0.6       3.9       7.7
 0 C  px              6.0       6.1       6.8       1.7      12.3       3.2
 0 C  py              3.6      14.3       4.1       0.6       0.9       0.2
 0 C  dz2             0.0       0.2       0.3       0.1       0.0       0.0
 0 C  dxz             0.2       0.8       0.1       0.1       0.0       0.1
 0 C  dyz             0.2       2.2       0.0       0.0       0.2       0.0
 0 C  dx2y2           0.5       1.4       0.0       0.0       0.0       0.1
 0 C  dxy             0.0       0.9       1.2       0.1       0.0       0.6
 1 C  s               4.5       0.1       0.6       0.0       2.7       1.3
 1 C  pz              1.2       1.0       2.0       0.5       0.3       0.7
 1 C  px             21.1       1.5       1.5       0.9       0.6      11.9
 1 C  py              4.3       2.2       6.3       0.6       5.4       5.0
 1 C  dz2             0.1       0.0       0.3       0.2       0.0       0.4
 1 C  dxz             0.3       0.4       0.0       0.2       0.3       0.0
 1 C  dyz             0.0       0.3       0.4       0.1       0.0       0.1
 1 C  dx2y2           0.1       0.0       0.8       0.0       0.0       0.4
 1 C  dxy             0.7       0.0       0.5       0.1       0.3       0.0
 2 O  s               0.3       0.0       0.1       0.3       0.3       0.2
 2 O  pz              0.1       5.1       0.4       1.3       0.1       0.3
 2 O  px              0.4       1.8       0.2       0.0       4.5       0.6
 2 O  py              3.1       2.9       8.7       0.1       0.1       0.3
 2 O  dz2             1.0       0.1       0.3       0.1       0.0       0.0
 2 O  dx2y2           0.8       0.0       0.0       0.0       0.0       0.3
 2 O  dxy             0.0       0.5       0.0       0.0       0.3       0.1
 3 C  s               3.5       6.1       1.6       0.5      19.2       8.7
 3 C  pz              1.6      12.4      15.5       2.3       0.8       0.4
 3 C  px             10.3       6.7       2.8       2.7       1.7      14.1
 3 C  py              0.7       0.3       8.0       8.9       0.4      10.5
 3 C  dz2             0.2       0.0       0.2       0.1       0.1       0.0
 3 C  dxz             0.2       0.4       0.0       0.0       0.2       0.0
 3 C  dyz             0.3       0.1       0.0       0.0       0.1       0.6
 3 C  dx2y2           0.1       0.2       0.1       0.4       0.0       1.8
 3 C  dxy             0.3       1.0       1.3       0.0       0.2       0.0
 4 O  s               0.2       0.3       0.2       2.1       0.0       0.9
 4 O  pz              0.1       0.4       0.9       0.4       0.6       0.6
 4 O  px              1.7       1.0       1.9       0.1       0.3       4.9
 4 O  py              0.1       0.4       0.3       0.4       1.3       4.4
 4 O  dz2             0.0       0.0       0.0       0.0       0.1       0.6
 4 O  dyz             0.1       0.0       0.0       0.0       0.3       1.2
 4 O  dx2y2           0.0       0.0       0.0       0.1       0.3       1.1
 4 O  dxy             0.0       0.3       0.2       0.0       0.0       0.0
 5 C  s               3.0       0.9       1.1       0.3       5.5       1.1
 5 C  pz              5.8       6.9       4.0       2.0       1.8       0.2
 5 C  px              5.1       4.1       4.8      13.9      11.4       0.1
 5 C  py              2.5       1.1       7.5      32.1       2.8       0.1
 5 C  dz2             1.0       0.6       1.3       0.1       0.2       0.0
 5 C  dxz             0.0       0.1       0.0       2.8       0.1       0.0
 5 C  dyz             0.1       0.0       0.0       7.3       0.1       0.1
 5 C  dx2y2           0.5       0.2       0.0       0.6       0.0       0.0
 5 C  dxy             0.0       0.0       0.7       0.0       0.0       0.1
 6 H  s               0.6       0.3       0.2       0.0       0.8       1.0
 7 H  s               2.8       4.0       0.0       0.2       0.4       1.0
 8 H  s               0.2       6.9       2.9       1.0       0.4       0.3
 9 H  s               0.0       0.3       0.8       0.9       3.2       0.3
10 H  s               0.8       0.0       2.0       0.0       2.7       2.9
11 H  s               4.4       0.9       1.5       0.0       4.7       2.5
12 H  s               1.0       0.7       1.3       7.2       1.3       2.7
13 H  s               0.5       0.2       1.4       5.0       3.9       2.0

                     48        49        50        51        52        53   
                   0.60904   0.61138   0.62757   0.63599   0.63831   0.64423
                   0.00000   0.00000   0.00000   0.00000   0.00000   0.00000
                  --------  --------  --------  --------  --------  --------
 0 C  s               2.9       2.0      13.9       0.1       0.2       9.7
 0 C  pz              6.8       0.1       7.4       1.5       0.6       0.4
 0 C  px              5.5       0.5       0.1       0.6       0.0      14.6
 0 C  py              8.4       0.8       1.0       0.3       1.1       0.1
 0 C  dz2             0.1       0.0       0.2       0.9       0.2       0.0
 0 C  dxz             1.9       0.1       0.2       0.0       0.1       0.1
 0 C  dyz             0.0       0.1       0.1       0.0       0.2       0.0
 0 C  dx2y2           0.1       0.0       0.5       0.1       0.5       0.2
 0 C  dxy             0.5       0.0       0.2       0.2       0.0       0.5
 1 C  s               5.7       5.9      14.1       1.0       1.4       8.3
 1 C  pz              7.3       0.2      15.3      17.5       3.9       0.1
 1 C  px              0.0      25.4       0.0       0.1       0.4       0.3
 1 C  py              9.3       0.1       4.8       2.1      12.0       2.3
 1 C  dz2             2.6       0.2       0.2       1.5       0.9       0.0
 1 C  dxz             0.3       0.1       0.0       0.2       0.2       0.0
 1 C  dyz             0.0       0.0       0.2       0.2       0.2       0.0
 1 C  dx2y2           0.1       0.0       0.5       0.5       0.8       0.0
 2 O  s               0.1       1.2       0.2       0.0       0.0       0.8
 2 O  pz              1.1       0.0       0.1       0.1       0.1       0.4
 2 O  px              1.4       1.9       0.5       0.1       0.2       0.0
 2 O  py              0.3       0.1       0.2       0.2       0.0       0.3
 2 O  dxz             0.2       0.0       0.0       0.0       0.0       0.0
 2 O  dx2y2           0.0       0.2       0.0       0.0       0.0       0.0
 2 O  dxy             0.0       0.1       0.0       0.0       0.0       0.0
 3 C  s               1.9       1.6       1.4       1.0       1.5       0.3
 3 C  pz             15.8       1.2       6.1       0.1       0.3       0.5
 3 C  px              0.7       0.2       1.1       0.9       1.6       0.5
 3 C  py              2.0      25.0       0.1       0.2       0.1       3.3
 3 C  dz2             0.1       0.3       0.0       0.0       0.0       0.3
 3 C  dyz             0.0       0.9       0.0       0.0       0.0       0.0
 3 C  dx2y2           0.6       1.9       0.2       0.0       0.1       0.0
 3 C  dxy             0.0       0.2       0.0       0.0       0.0       0.0
 4 O  s               0.3       0.4       0.1       0.2       0.1       0.1
 4 O  pz              0.6       0.6       0.2       0.0       0.2       0.1
 4 O  px              0.1       0.8       0.5       0.2       0.0       0.0
 4 O  py              1.9       6.1       0.3       0.4       0.5       1.2
 4 O  dz2             0.1       0.2       0.0       0.0       0.0       0.0
 4 O  dyz             0.3       1.0       0.0       0.0       0.0       0.1
 4 O  dx2y2           0.9       2.5       0.0       0.0       0.0       0.6
 5 C  s               0.9       0.6       5.0      16.9      20.9       1.4
 5 C  pz              1.0       1.7       0.4       0.2       3.6      15.9
 5 C  px              0.1       0.2       1.3       3.2      12.5       0.4
 5 C  py              0.6       2.8       0.9      11.1       0.1       1.3
 5 C  dz2             0.7       0.1       0.4       0.0       0.0       0.6
 5 C  dxz             0.1       0.0       0.1       0.1       0.0       0.3
 5 C  dx2y2           0.0       0.3       0.0       0.2       0.1       0.0
 5 C  dxy             0.4       0.1       0.1       0.1       0.3       0.0
 6 H  s               0.3       1.7       7.4       4.1       0.7       2.4
 7 H  s               1.2       3.6       3.4       0.8       3.6       1.3
 8 H  s               0.4       1.8       0.1       0.5       0.3      16.2
 9 H  s              11.1       1.9       2.2      14.5       4.7       0.1
10 H  s               1.3       0.2       6.5       7.2      14.3       1.0
11 H  s               0.9       1.5       1.8       1.6       4.4      12.0
12 H  s               0.6       0.5       0.0       7.7       0.7       0.9
13 H  s               0.4       0.8       0.3       1.6       6.2       0.8

                     54        55        56        57        58        59   
                   0.65193   0.66525   0.66958   0.67403   0.68188   0.75484
                   0.00000   0.00000   0.00000   0.00000   0.00000   0.00000
                  --------  --------  --------  --------  --------  --------
 0 C  s               9.6       9.4       3.2       0.0       6.8      11.1
 0 C  pz              0.5       3.0       4.7      23.4       6.4       0.7
 0 C  px              8.9       0.5       5.2       0.5       3.0       0.5
 0 C  py              0.1       5.6      16.8      16.0       7.2       0.7
 0 C  dz2             0.1       0.1       0.0       1.4       0.4       0.0
 0 C  dxz             0.2       0.0       0.0       0.3       0.0       0.0
[...]
11 H  s               5.9       0.2       0.2       0.2       0.4       0.1
12 H  s               3.6       0.0       0.1       0.3       0.2       0.1
13 H  s               0.5       0.4       0.0       0.6       0.6       0.1

                     90        91        92        93        94        95   
                   2.55669   2.63732   2.72038   2.83338   2.87018   3.06255
                   0.00000   0.00000   0.00000   0.00000   0.00000   0.00000
                  --------  --------  --------  --------  --------  --------
 0 C  s               0.0       0.4       0.0       0.0       0.0       0.1
 0 C  pz              0.0       0.1       0.0       0.0       0.0       0.0
 0 C  px              0.0       0.2       0.0       0.0       0.0       0.1
 0 C  dz2             0.2       0.0       0.2       0.0       0.2       0.0
 0 C  dxz             0.1       0.9       0.3       0.0       0.1       0.0
 0 C  dyz             0.1       0.5       0.1       0.0       0.4       0.0
 0 C  dx2y2           0.1       0.1       0.3       0.0       0.5       0.0
 0 C  dxy             0.2       0.8       0.3       0.0       0.3       0.1
 1 C  s               0.0       0.2       0.0       0.0       0.8       0.3
 1 C  pz              0.0       0.2       0.5       0.0       0.0       0.0
 1 C  px              0.0       0.7       0.1       0.0       0.5       0.5
 1 C  py              0.0       0.1       0.1       0.0       0.1       0.2
 1 C  dz2             0.0       0.1       1.2       0.3       2.0       0.5
 1 C  dxz             0.7       0.7       9.3       0.0       0.0       0.5
 1 C  dyz             0.3       0.5       1.0       0.5       0.1       0.3
 1 C  dx2y2           0.1       1.6       0.0       0.2       6.5       0.0
 1 C  dxy             0.0       1.9       0.7       0.0       0.0       1.7
 2 O  s               0.0       0.3       0.0       0.0       0.8       7.2
 2 O  pz              0.1       0.0       0.8       0.5       0.2       0.1
 2 O  px              0.0       0.3       0.1       0.0       0.8       0.3
 2 O  py              0.1       0.5       0.1       0.1       1.5       0.7
 2 O  dz2             3.2       3.4      20.1       3.1      15.0      27.2
 2 O  dxz             4.0       0.3      22.4      31.1       1.8       0.2
 2 O  dyz             6.6       1.1      23.0      15.9      22.4       4.1
 2 O  dx2y2           2.3       1.0       4.5       3.6      12.8      13.6
 2 O  dxy             0.3       0.0       5.5       3.1       1.4       2.4
 3 C  s               0.0       0.0       0.0       0.0       0.3       1.2
 3 C  pz              0.2       0.0       0.1       1.0       0.0       0.1
 3 C  px              0.0       0.2       0.0       0.0       0.2       2.1
 3 C  py              0.1       0.1       0.0       0.1       0.1       1.2
 3 C  dz2             0.3       1.5       0.0       0.3       0.9       1.2
 3 C  dxz             0.0       0.2       0.6      10.9       0.0       0.5
 3 C  dyz             0.0       0.3       0.0       0.0       0.6       1.3
 3 C  dx2y2           0.1       0.9       0.4       0.0      10.3       0.2
 3 C  dxy             0.0       0.0       0.2       1.5       0.1       2.4
 4 O  s               0.0       0.0       0.0       0.0       1.2       0.4
 4 O  pz              0.0       0.0       0.0       0.2       0.1       0.1
 4 O  px              0.0       0.0       0.0       0.0       0.2       0.4
 4 O  py              0.0       0.0       0.1       0.0       0.4       0.4
 4 O  dz2             6.5      40.3       4.1       2.5       1.8       0.0
 4 O  dxz            62.9       4.4       0.9      13.2       1.4       2.4
 4 O  dyz             0.1       9.3       1.7       7.3       2.9       0.8
 4 O  dx2y2           0.8      24.8       0.1       2.1       0.0       2.5
 4 O  dxy             9.7       0.1       0.6       1.0       7.4      20.6
 5 C  s               0.0       0.1       0.0       0.0       0.0       0.3
 5 C  px              0.0       0.1       0.0       0.0       0.0       0.2
 5 C  dz2             0.1       0.3       0.1       0.4       0.0       0.2
 5 C  dxz             0.2       0.2       0.1       0.2       0.1       0.1
 5 C  dyz             0.1       0.0       0.1       0.2       0.4       0.0
 5 C  dx2y2           0.0       0.0       0.0       0.1       2.1       1.0
 5 C  dxy             0.0       0.5       0.0       0.1       0.5       0.2
10 H  s               0.0       0.2       0.0       0.1       0.0       0.0

                     96        97        98        99   
                   3.11938   3.32129   3.49475   3.55372
                   0.00000   0.00000   0.00000   0.00000
                  --------  --------  --------  --------
 0 C  dx2y2           0.0       0.1       0.2       0.0
 1 C  s               0.0       0.9       0.3       0.0
 1 C  px              0.0       1.5       0.4       0.0
 1 C  py              0.0       0.4       0.0       0.1
 1 C  dz2             0.2       0.7       0.1       0.0
 1 C  dxz             0.2       1.1       0.1       0.1
 1 C  dyz             0.2       0.2       0.1       0.1
 1 C  dx2y2           0.0       0.5       1.2       0.2
 1 C  dxy             0.0       4.3       0.1       0.4
 2 O  s               0.0       0.2       0.5       0.4
 2 O  px              0.0       2.7       3.2       0.1
 2 O  py              0.0       0.1       0.1       0.1
 2 O  dz2             0.0       0.7       2.5       1.8
 2 O  dxz            13.1       6.0       2.1       0.2
 2 O  dyz             0.2       0.1       0.2       0.2
 2 O  dx2y2           0.2      11.6       6.3      11.4
 2 O  dxy             1.6      35.3      23.6       0.0
 3 C  s               0.0       3.5       0.1       6.5
 3 C  pz              0.4       0.1       0.3       0.5
 3 C  px              0.0       1.2       1.1       0.0
 3 C  py              0.1       0.3       2.6       3.7
 3 C  dz2             5.5       0.3       0.3       0.8
 3 C  dxz             1.5       0.5       1.7       0.8
 3 C  dyz            11.6       0.0       0.4       1.8
 3 C  dx2y2           2.3       3.5       2.3       4.3
 3 C  dxy             0.0       1.9      15.2       5.4
 4 O  s               0.0       1.6       1.0       3.8
 4 O  pz              0.9       0.1       0.1       0.4
 4 O  px              0.0       0.2       0.7       0.1
 4 O  py              0.1       0.6       0.6       2.8
 4 O  dz2            19.4       2.4       1.3       4.0
 4 O  dxz             0.0       0.9       2.6       0.3
 4 O  dyz            35.2       2.8       1.8      16.2
 4 O  dx2y2           6.2       4.2       4.9      30.0
 4 O  dxy             0.4       8.2      19.8       2.5
 5 C  s               0.0       0.1       0.1       0.0
 5 C  px              0.0       0.0       0.3       0.0
 5 C  dz2             0.0       0.0       0.1       0.0
 5 C  dxz             0.4       0.1       0.1       0.1
 5 C  dx2y2           0.0       0.2       1.1       0.1
 5 C  dxy             0.0       0.4       0.3       0.3


                      *****************************
                      * MAYER POPULATION ANALYSIS *
                      *****************************

  NA   - Mulliken gross atomic population
  ZA   - Total nuclear charge
  QA   - Mulliken gross atomic charge
  VA   - Mayer's total valence
  BVA  - Mayer's bonded valence
  FA   - Mayer's free valence

  ATOM       NA         ZA         QA         VA         BVA        FA
  0 C      6.2773     6.0000    -0.2773     4.0002     4.0002    -0.0000
  1 C      6.0308     6.0000    -0.0308     4.0221     4.0221     0.0000
  2 O      8.2493     8.0000    -0.2493     2.2246     2.2246    -0.0000
  3 C      5.9194     6.0000     0.0806     4.4453     4.4453     0.0000
  4 O      8.1978     8.0000    -0.1978     2.2976     2.2976    -0.0000
  5 C      6.2512     6.0000    -0.2512     3.8850     3.8850     0.0000
  6 H      0.8875     1.0000     0.1125     0.9593     0.9593     0.0000
  7 H      0.8869     1.0000     0.1131     0.9571     0.9571     0.0000
  8 H      0.8897     1.0000     0.1103     0.9551     0.9551     0.0000
  9 H      0.8983     1.0000     0.1017     0.9504     0.9504     0.0000
 10 H      0.8914     1.0000     0.1086     0.9752     0.9752     0.0000
 11 H      0.8667     1.0000     0.1333     0.9582     0.9582    -0.0000
 12 H      0.8779     1.0000     0.1221     0.9688     0.9688    -0.0000
 13 H      0.8756     1.0000     0.1244     0.9738     0.9738     0.0000

  Mayer bond orders larger than 0.100000
B(  0-C ,  1-C ) :   1.1526 B(  0-C ,  6-H ) :   0.9522 B(  0-C ,  7-H ) :   0.9488 
B(  0-C ,  8-H ) :   0.9453 B(  1-C ,  2-O ) :   0.9245 B(  1-C ,  9-H ) :   0.9361 
B(  1-C , 10-H ) :   0.9216 B(  2-O ,  3-C ) :   1.1816 B(  3-C ,  4-O ) :   2.0780 
B(  3-C ,  5-C ) :   1.0816 B(  5-C , 11-H ) :   0.9260 B(  5-C , 12-H ) :   0.9362 
B(  5-C , 13-H ) :   0.9420 

-------
TIMINGS
-------

Total SCF time: 0 days 0 hours 0 min 6 sec 

Total time                  ....       6.271 sec
Sum of individual times     ....       6.221 sec  ( 99.2%)

SCF preparation             ....       0.917 sec  ( 14.6%)
Fock matrix formation       ....       2.393 sec  ( 38.2%)
  Startup                   ....       0.010 sec  (  0.4% of F)
  Split-RI-J                ....       0.848 sec  ( 35.4% of F)
  XC integration            ....       1.399 sec  ( 58.4% of F)
    Basis function eval.    ....       0.562 sec  ( 40.2% of XC)
    Density eval.           ....       0.263 sec  ( 18.8% of XC)
    XC-Functional eval.     ....       0.131 sec  (  9.3% of XC)
    XC-Potential eval.      ....       0.246 sec  ( 17.6% of XC)
Diagonalization             ....       0.000 sec  (  0.0%)
Density matrix formation    ....       0.048 sec  (  0.8%)
Total Energy calculation    ....       0.002 sec  (  0.0%)
Population analysis         ....       2.729 sec  ( 43.5%)
Orbital Transformation      ....       0.013 sec  (  0.2%)
Orbital Orthonormalization  ....       0.000 sec  (  0.0%)
DIIS solution               ....       0.079 sec  (  1.3%)
  MO trafo                  ....       0.000 sec  (  0.0 % of DIIS)
  Orb grad                  ....       0.000 sec  (  0.0 % of DIIS)
  Energy W gradient         ....       0.000 sec  (  0.0 % of DIIS)
  DIIS error                ....       0.002 sec  (  2.6 % of DIIS)
  DIIS work                 ....       0.068 sec  ( 86.2 % of DIIS)
  Form Q                    ....       0.000 sec  (  0.0 % of DIIS)
  Form QpQm                 ....       0.000 sec  (  0.0 % of DIIS)
  Exp/Cayley                ....       0.000 sec  (  0.0 % of DIIS)
  Orb update                ....       0.000 sec  (  0.0 % of DIIS)
  Wake-sleep                ....       0.001 sec  (  1.1 % of DIIS)
SOSCF solution              ....       0.039 sec  (  0.6%)
  MO trafo                  ....       0.017 sec  ( 43.0 % of SOSCF)
  Orb grad                  ....       0.000 sec  (  0.7 % of SOSCF)
  Rot update                ....       0.009 sec  ( 23.2 % of SOSCF)
  Step                      ....       0.013 sec  ( 33.0 % of SOSCF)
Finished LeanSCF after   8.7 sec

Maximum memory used throughout the entire LEANSCF-calculation: 9.6 MB


-------------------------------------------------------------------------------
                          DFT DISPERSION CORRECTION                            
                                                                               
                                DFTD4 V3.4.0                                   
-------------------------------------------------------------------------------
The PBE functional is recognized
Active option DFTDOPT                   ...         5   

-------------------------   ----------------
Dispersion correction           -0.008743824
-------------------------   ----------------

------------------   -----------------
gCP correction             0.063163805
------------------   -----------------

-------------------------   --------------------
FINAL SINGLE POINT ENERGY      -307.031485231911
-------------------------   --------------------


------------------------------------------------------------------------------
                              ORCA PROPERTY CALCULATIONS
------------------------------------------------------------------------------

GBWName                                 ... sp.gbw
Number of atoms                         ...     14
Number of basis functions               ...    100
Max core memory                         ...   1024 MB

Electric properties:
Dipole moment                           ... YES
Quadrupole moment                       ...  NO
Static polarizability (Dipole/Dipole)   ...  NO
Static polarizability (Dipole/Quad.)    ...  NO
Static polarizability (Quad./Quad.)     ...  NO
Static polarizability (Velocity)        ...  NO

Atomic electric properties:
Dipole moment                           ...  NO
Quadrupole moment                       ...  NO
Static polarizability                   ...  NO

Choice of electric origin               ... Center of mass
Position of electric origin             ...    -0.000016    -0.000014    -0.000008

General magnetic properties:
Magnetizability                         ...  NO

EPR properties:
g-Tensor (aka g-matrix)                 ...  NO
Zero-Field splitting spin-orbit         ...  NO
Zero-field splitting spin-spin          ...  NO
Hyperfine couplings                     ...  NO (   0 nuclei)
Quadrupole couplings                    ...  NO (   0 nuclei)
Contact density                         ...  NO (   0 nuclei)

NMR properties:
Chemical shifts                         ...  NO (   0 nuclei)
Spin-rotation constants                 ...  NO (   0 nuclei)
Spin-spin couplings                     ...  NO (   0 nuclei,    0 pairs)

Choice of magnetic origin               ... GIAO
Position of magnetic origin             ...     0.000000     0.000000     0.000000

Properties with geometric perturbations:
SCF Hessian                             ...  NO
IR spectrum                             ...  NO
VCD spectrum                            ...  NO
X-ray spectroscopy properties:
SCF XES/XAS/RIXS spectra                ...  NO


-------------
DIPOLE MOMENT
-------------

Method             : SCF
Type of density    : Electron Density
Multiplicity       :   1
Irrep              :   0
Energy             :  -307.0859052130170994 Eh
Relativity type    : 
Basis              : AO
                                X                 Y                 Z
Electronic contribution:      3.375059794       2.376243861       1.510001513
Nuclear contribution   :     -3.742908896      -2.973501725      -1.772363008
                        -----------------------------------------
Total Dipole Moment    :     -0.367849102      -0.597257864      -0.262361495
                        -----------------------------------------
Magnitude (a.u.)       :      0.748908186
Magnitude (Debye)      :      1.903573330



--------------------
Rotational spectrum 
--------------------
 
Rotational constants in cm-1:             0.278790             0.070148             0.058463 
Rotational constants in MHz :          8357.921029          2102.975023          1752.673362 

Dipole components along the rotational axes: 
x,y,z [a.u.] :    -0.436937    -0.608057     0.014677 
x,y,z [Debye]:    -1.110607    -1.545559     0.037307 

 

Dipole moment calculation done in   0.6 sec 

Maximum memory used throughout the entire PROP-calculation: 6.2 MB

--------------------------------
SUGGESTED CITATIONS FOR THIS RUN
--------------------------------

Below you find a list of papers that are relevant to this ORCA run
We neither can nor want to force you to cite these papers, but we appreciate if you do
You receive ORCA, which is the product of decades of hard work by many enthusiastic individuals, for free
The only thing we kindly ask in return is that you cite our papers,
We deeply appreciate it, if you show your appreciation for ORCA by not just citing the generic ORCA reference.

Please note that relegating all ORCA citations to the supporting information does *not* help us.
SI sections are not indexed - citations you put there will not count into any citation statistics
But we need these citations in order to attract the funding resources that allow us to do what we are doing

Therefore, if you are a happy ORCA user, please consider citing a few of the papers listed below in the main body of your paper

In addition to the list printed below, the program has created the file sp.bibtex that contains the list in bibtex format
You can import this file easily into all common literature databanks and citation aid programs


List of essential papers. We consider these as the minimum necessary citations

  1. Neese,F.
     Software update: the ORCA program system, version 5.0
     WIRES Comput. Molec. Sci., 2022 12(1)e1606
     doi.org/10.1002/wcms.1606

List of papers to cite with high priority. The work reported in these papers was absolutely
necessary for this run to complete.
Our perspective: the developers of density functionals and basis sets usually get cited in chemistry papers
Good! But without the algorithms to do something with them, the functionals or basis sets would not do anything.
Hence, in our opinion, the algorithm design and method developments papers are equally worthy of getting cited

  1. Neese,F.
     An improvement of the resolution of the identity approximation for the formation of the Coulomb matrix
     J. Comp. Chem., 2003 24(14)1740-1747
     doi.org/10.1002/jcc.10318
  2. Neese,F.
     The SHARK Integral Generation and Digestion System
     J. Comp. Chem., 2022  1-16
     doi.org/10.1002/jcc.26942
  3. Caldeweyher,E.; Bannwarth,C.; Grimme,S.
     Extension of the D3 dispersion coefficient model
     J. Chem. Phys., 2017 147 034112
     doi.org/10.1063/1.4993215
  4. Caldeweyher,E.; Ehlert,S.; Hansen,A.; Neugebauer,H.; Spicher,S.; Bannwarth,C.; Grimme,S.
     A generally applicable atomic-charge dependent London dispersion correction
     J. Chem. Phys., 2019 150 154122
     doi.org/10.1063/1.5090222
  5. Caldeweyher,E.; Mewes,J.; Ehlert,S.; Grimme,S.
     Extension and evaluation of the D4 London-dispersion model for periodic systems
     Phys. Chem. Chem. Phys., 2020 22(16)8499-8512
     doi.org/10.1039/D0CP00502A
  6. Wittmann,L.; Gordiy,I.; Friede,M.; Helmich-Paris,B.; Grimme,S.; Hansen,A.; Bursch,M.
     Extension of the D3 and D4 London Dispersion Corrections to the full Actinides Series
     Phys. Chem. Chem. Phys., 2024 26(32)21379-21394
     doi.org/https://doi.org/10.1039/D4CP01514B 

List of suggested additional citations. These are papers that are important in the 'surrounding' of 
of this run, or papers that preceded the highly important papers. If you like your results we are grateful for a citation.

  1. Neese,F.
     The ORCA program system
     WIRES Comput. Molec. Sci., 2012 2(1)73-78
     doi.org/10.1002/wcms.81
  2. Neese,F.
     Software update: the ORCA program system, version 4.0
     WIRES Comput. Molec. Sci., 2018 8(1)1-6
     doi.org/10.1002/wcms.1327
  3. Neese,F.; Wennmohs,F.; Becker,U.; Riplinger,C.
     The ORCA quantum chemistry program package
     J. Chem. Phys., 2020 152 Art. No. L224108
     doi.org/10.1063/5.0004608

List of optional additional citations

  1. Neese,F.
     Approximate second-order SCF convergence for spin unrestricted wavefunctions
     Chem. Phys. Lett., 2000 325(1-3)93-98
     doi.org/10.1016/s0009-2614(00)00662-x

Timings for individual modules:

Sum of individual times          ...       10.334 sec (=   0.172 min)
Startup calculation              ...        0.461 sec (=   0.008 min)   4.5 %
SCF iterations                   ...        9.135 sec (=   0.152 min)  88.4 %
Property calculations            ...        0.738 sec (=   0.012 min)   7.1 %
                             ****ORCA TERMINATED NORMALLY****
TOTAL RUN TIME: 0 days 0 hours 0 minutes 12 seconds 803 msec
