
                                 *****************
                                 * O   R   C   A *
                                 *****************

                                            #,                                       
                                            ###                                      
                                            ####                                     
                                            #####                                    
                                            ######                                   
                                           ########,                                 
                                     ,,################,,,,,                         
                               ,,#################################,,                 
                          ,,##########################################,,             
                       ,#########################################, ''#####,          
                    ,#############################################,,   '####,        
                  ,##################################################,,,,####,       
                ,###########''''           ''''###############################       
              ,#####''   ,,,,##########,,,,          '''####'''          '####       
            ,##' ,,,,###########################,,,                        '##       
           ' ,,###''''                  '''############,,,                           
         ,,##''                                '''############,,,,        ,,,,,,###''
      ,#''                                            '''#######################'''  
     '                                                          ''''####''''         
             ,#######,   #######,   ,#######,      ##                                
            ,#'     '#,  ##    ##  ,#'     '#,    #''#        ,####,   ,####,        
            ##       ##  ##   ,#'  ##            #'  '#       #'       #'  '#        
            ##       ##  #######   ##           ,######,      #####,   #    #        
            '#,     ,#'  ##    ##  '#,     ,#' ,#      #,     #,   #   #,  ,#        
             '#######'   ##     ##  '#######'  #'      '#     '####' # '####'        



                #########################################################
                #                        -***-                          #
                #          Department of theory and spectroscopy        #
                #                                                       #
                #                      Frank Neese                      #
                #                                                       #
                #     Directorship, Architecture, Infrastructure        #
                #                    SHARK, DRIVERS                     #
                #        Core code/Algorithms in most modules           #
                #                                                       #
                #        Max Planck Institute fuer Kohlenforschung      #
                #                Kaiser Wilhelm Platz 1                 #
                #                 D-45470 Muelheim/Ruhr                 #
                #                      Germany                          #
                #                                                       #
                #                  All rights reserved                  #
                #                        -***-                          #
                #########################################################


                         Program Version 6.0.1  -  RELEASE   -


 With contributions from (in alphabetic order):
[Max-Planck-Institut fuer Kohlenforschung]                               
  Daniel Aravena         : Magnetic Suceptibility                        
  Michael Atanasov       : Ab Initio Ligand Field Theory (pilot matlab implementation)
  Alexander A. Auer      : GIAO ZORA, VPT2 properties, NMR spectrum      
  Ute Becker             : All parallelization in ORCA, NUMFREQ, NUMCALC 
  Giovanni Bistoni       : ED, misc. LED, open-shell LED, HFLD           
  Martin Brehm           : Molecular dynamics                            
  Dmytro Bykov           : pre 5.0 version of the SCF Hessian            
  Marcos Casanova-Páez   : Triplet and SCS-CIS(D). UHF-(DLPNO)-IP/EA/STEOM-CCSD. UHF-CVS-IP/STEOM-CCSD   
  Vijay G. Chilkuri      : MRCI spin determinant printing, contributions to CSF-ICE 
  Pauline Colinet        : FMM embedding                                 
  Dipayan Datta          : RHF DLPNO-CCSD density                        
  Achintya Kumar Dutta   : EOM-CC, STEOM-CC                              
  Nicolas Foglia         : Exact transition moments, OPA infrastructure, MCD improvements    
  Dmitry Ganyushin       : Spin-Orbit,Spin-Spin,Magnetic field MRCI      
  Miquel Garcia-Rates    : C-PCM and meta-GGA Hessian, CCSD/C-PCM, Gaussian charge scheme 
  Tiago L. C. Gouveia    : GS-ROHF, GS-ROCIS                             
  Yang Guo               : DLPNO-NEVPT2, F12-NEVPT2, CIM, IAO-localization        
  Andreas Hansen         : Spin unrestricted coupled pair/coupled cluster methods 
  Ingolf Harden          : AUTO-CI MPn and infrastructure                
  Benjamin Helmich-Paris : MC-RPA, TRAH-(SCF,CASSCF), AVAS, COSX integrals, SCF dyn. polar. 
  Lee Huntington         : MR-EOM, pCC                                   
  Robert Izsak           : Overlap fitted RIJCOSX, COSX-SCS-MP3, EOM     
  Riya Kayal             : Wick's Theorem for AUTO-CI, AUTO-CI UHF-CCSDT 
  Emily Kempfer          : AUTO-CI, RHF CISDT and CCSDT                  
  Christian Kollmar      : KDIIS, OOCD, Brueckner-CCSD(T), CCSD density, CASPT2, CASPT2-K, improved NEVPT2 
  Axel Koslowski         : Symmetry handling                             
  Simone Kossmann        : meta-GGA functionals, TD-DFT gradient, OOMP2, (MP2 Hessian; deprecated post 5.0) 
  Lucas Lang             : DCDCAS                                        
  Marvin Lechner         : AUTO-CI (C++ implementation), FIC-MRCC        
  Spencer Leger          : CASSCF response                               
  Dagmar Lenk            : GEPOL surface, SMD, ORCA-2-JSON               
  Dimitrios Liakos       : Extrapolation schemes; Compound Job, initial MDCI parallelization 
  Dimitrios Manganas     : Further ROCIS development; embedding schemes. LFT, Crystal Embedding 
  Dimitrios Pantazis     : SARC Basis sets                               
  Anastasios Papadopoulos: AUTO-CI, single reference methods and gradients 
  Taras Petrenko         : pre 6.0 DFT Hessian and TD-DFT gradient, (ASA, deprecated), ECA, 1-Electron XAS/XES, NRVS 
  Peter Pinski           : DLPNO-MP2, DLPNO-MP2 Gradient                 
  Christoph Reimann      : Effective Core Potentials                     
  Marius Retegan         : Local ZFS, SOC                                
  Christoph Riplinger    : Optimizer, TS searches, QM/MM, DLPNO-CCSD(T), (RO)-DLPNO pert. Triples 
  Michael Roemelt        : Original ROCIS implementation                 
  Masaaki Saitow         : Open-shell DLPNO-CCSD energy and density      
  Barbara Sandhoefer     : DKH picture change effects                    
  Kantharuban Sivalingam : CASSCF convergence/infrastructure, NEVPT2 and variants, FIC-MRCI 
  Bernardo de Souza      : ESD, SOC TD-DFT                               
  Georgi L. Stoychev     : AutoAux, RI-MP2 NMR, DLPNO-MP2 response, X2C  
  Van Anh Tran           : RI-MP2 g-tensors                              
  Willem Van den Heuvel  : Paramagnetic NMR                              
  Zikuan Wang            : NOTCH, Electric field optimization            
  Frank Wennmohs         : Technical directorship and infrastructure     
  Hang Xu                : AUTO-CI-Response properties                   
                                                                         
[FACCTs GmbH]                                                            
  Markus Bursch, Miquel Garcia-Rates, Christoph Riplinger, Bernardo de Souza, Georgi L. Stoychev 
                                                                 
  APM, Basis sets (HGBS, AHGBS, def-TZVP (Ac-Lr), def2-XVPD (La-Lu)), CI-OPT, improved COSX, DLPNO-Multilevel,           
  DOCKER, DRACO, updates on ESD, GOAT, IRC, LR-CPCM, MBIS, meta-GGA TD-DFT gradient, ML-optimized integration grids, 
  MM, NACMEs, nearIR, NEB, NEB-TS, NL-DFT gradient (VV10), 2- and 3-layer-ONIOM, interface openCOSMO-RS, QMMM,   
  Crystal-QMMM, SF, symmetry and pop. for TD-DFT, r2SCAN hybrids, SOLVATOR                                   
                                                                         
[Other institutions]                                                     
  V. Asgeirsson          : NEB                                           
  Christoph Bannwarth    : sTDA-DFT, sTD-DFT, PBEh-3c, B97-3c, D3        
  Sebastian Ehlert       : rSCAN, r2SCAN, r2SCAN-3c, D4, dhf basis sets  
  Marvin Friede          : D4 for Fr, Ra, Ac-Lr                          
  Lars Goerigk           : TD-DFT with DH, B97 family of functionals     
  Stefan Grimme          : VdW corrections, initial TS optimization, DFT functionals, gCP, sTDA/sTD-DF 
  Waldemar Hujo          : DFT-NL                                        
  H. Jonsson             : NEB                                           
  Holger Kruse           : gCP                                           
  Marcel Mueller         : wB97X-3c, vDZP basis set                      
  Hagen Neugebauer       : wr2SCAN                                       
  Tobias Risthaus        : range-separated hybrid DFT                    
  Lukas Wittmann         : regularized MP2, r2SCAN double-hybrids, wr2SCAN        
                                                                         
We gratefully acknowledge several colleagues who have allowed us to      
interface, adapt or use parts of their codes:                            
  Ed Valeev, F. Pavosevic, A. Kumar             : LibInt (2-el integral package), F12 methods 
  Garnet Chan, S. Sharma, J. Yang, R. Olivares  : DMRG                   
  Ulf Ekstrom                                   : XCFun DFT Library      
  Mihaly Kallay                                 : mrcc  (arbitrary order and MRCC methods)
  Frank Weinhold                                : gennbo (NPA and NBO analysis)           
  Simon Mueller                                 : openCOSMO-RS                            
  Christopher J. Cramer and Donald G. Truhlar   : smd solvation model                     
  S Lehtola, MJT Oliveira, MAL Marques          : LibXC Library                           
  Liviu Ungur et al                             : ANISO software                          


 Your calculation uses the libint2 library for the computation of 2-el integrals
 For citations please refer to: http://libint.valeyev.net

 Your ORCA version has been built with support for libXC version: 6.2.2
 For citations please refer to: https://libxc.gitlab.io

 This ORCA versions uses:
   CBLAS   interface :  Fast vector & matrix operations
   LAPACKE interface :  Fast linear algebra routines
   SCALAPACK package :  Parallel linear algebra routines
   Shared memory     :  Shared parallel matrices
   BLAS/LAPACK       :  OpenBLAS 0.3.27  USE64BITINT DYNAMIC_ARCH NO_AFFINITY Zen SINGLE_THREADED
        Core in use  :  Zen
   Copyright (c) 2011-2014, The OpenBLAS Project


Your calculation utilizes the geometrical counterpoise correction gCP
Please cite in your paper:
H.Kruse, S. Grimme J.Chem.Phys., 136, (2012), 154101 
   

Your calculation utilizes the atom-pairwise dispersion correction
based on EEQ partial charges (D4)


================================================================================

----- Orbital basis set information -----
Your calculation utilizes the basis: def2-SV(P)
   F. Weigend and R. Ahlrichs, Phys. Chem. Chem. Phys. 7, 3297 (2005).

----- AuxJ basis set information -----
Your calculation utilizes the auxiliary basis: def2/J
   F. Weigend, Phys. Chem. Chem. Phys. 8, 1057 (2006).

================================================================================
                                        WARNINGS
                       Please study these warnings very carefully!
================================================================================


================================================================================
                                       INPUT FILE
================================================================================
NAME = sp.inp
|  1> ! pbe def2-sv(p) def2/J RI DEFGRID1 loosescf d4 GCP(DFT/SV(P)) printgap
|  2> %output
|  3>     printlevel normal
|  4> end
|  5> * xyz 0 1
|  6> C -1.7351622432 0.6105789278 -0.5072034623
|  7> C -0.8180907099 0.2269177886 0.6473541643
|  8> N 0.4965323439 -0.1723885984 0.1049987376
|  9> O 0.8233040641 -1.3264116664 0.2322764188
| 10> O 1.1473900821 0.6852760522 -0.4387341836
| 11> H -2.6852512011 0.9673403524 -0.12020809
| 12> H -1.2773475931 1.4010939434 -1.0974029676
| 13> H -1.9214435832 -0.2468801567 -1.1499030392
| 14> H -1.2150057629 -0.6158815644 1.2146981542
| 15> H -0.6572593147 1.0870523633 1.3008112416
| 16> *
| 17> 
| 18>                          ****END OF INPUT****
================================================================================

                       ****************************
                       * Single Point Calculation *
                       ****************************

---------------------------------
CARTESIAN COORDINATES (ANGSTROEM)
---------------------------------
  C     -1.735162    0.610579   -0.507203
  C     -0.818091    0.226918    0.647354
  N      0.496532   -0.172389    0.104999
  O      0.823304   -1.326412    0.232276
  O      1.147390    0.685276   -0.438734
  H     -2.685251    0.967340   -0.120208
  H     -1.277348    1.401094   -1.097403
  H     -1.921444   -0.246880   -1.149903
  H     -1.215006   -0.615882    1.214698
  H     -0.657259    1.087052    1.300811

----------------------------
CARTESIAN COORDINATES (A.U.)
----------------------------
  NO LB      ZA    FRAG     MASS         X           Y           Z
   0 C     6.0000    0    12.011   -3.278981    1.153827   -0.958476
   1 C     6.0000    0    12.011   -1.545967    0.428812    1.223322
   2 N     7.0000    0    14.007    0.938310   -0.325767    0.198419
   3 O     8.0000    0    15.999    1.555819   -2.506555    0.438939
   4 O     8.0000    0    15.999    2.168253    1.294984   -0.829087
   5 H     1.0000    0     1.008   -5.074389    1.828008   -0.227160
   6 H     1.0000    0     1.008   -2.413837    2.647684   -2.073791
   7 H     1.0000    0     1.008   -3.631002   -0.466536   -2.173002
   8 H     1.0000    0     1.008   -2.296028   -1.163847    2.295447
   9 H     1.0000    0     1.008   -1.242040    2.054231    2.458177

--------------------------------
INTERNAL COORDINATES (ANGSTROEM)
--------------------------------
 C      0   0   0     0.000000000000     0.00000000     0.00000000
 C      1   0   0     1.523554849706     0.00000000     0.00000000
 N      2   1   0     1.477101476931   108.99859617     0.00000000
 O      3   2   1     1.206129597817   117.45361984   246.54973122
 O      3   2   1     1.206171603819   116.97154264    65.94282581
 H      1   2   3     1.086146012370   109.83025347   183.60511764
 H      1   2   3     1.087586180397   109.93135239   303.32785689
 H      1   2   3     1.087657834694   110.63155710    63.67884254
 H      2   1   3     1.090748143061   111.69742572   240.97000002
 H      2   1   3     1.092110056794   110.10497789   117.75136708

---------------------------
INTERNAL COORDINATES (A.U.)
---------------------------
 C      0   0   0     0.000000000000     0.00000000     0.00000000
 C      1   0   0     2.879101415951     0.00000000     0.00000000
 N      2   1   0     2.791317263411   108.99859617     0.00000000
 O      3   2   1     2.279254621891   117.45361984   246.54973122
 O      3   2   1     2.279334001731   116.97154264    65.94282581
 H      1   2   3     2.052518504830   109.83025347   183.60511764
 H      1   2   3     2.055240027989   109.93135239   303.32785689
 H      1   2   3     2.055375434985   110.63155710    63.67884254
 H      2   1   3     2.061215271468   111.69742572   240.97000002
 H      2   1   3     2.063788915441   110.10497789   117.75136708

---------------------
BASIS SET INFORMATION
---------------------
There are 4 groups of distinct atoms

 Group   1 Type C   : 7s4p1d contracted to 3s2p1d pattern {511/31/1}
 Group   2 Type N   : 7s4p1d contracted to 3s2p1d pattern {511/31/1}
 Group   3 Type O   : 7s4p1d contracted to 3s2p1d pattern {511/31/1}
 Group   4 Type H   : 4s contracted to 2s pattern {31}

Atom   0C    basis set group =>   1
Atom   1C    basis set group =>   1
Atom   2N    basis set group =>   2
Atom   3O    basis set group =>   3
Atom   4O    basis set group =>   3
Atom   5H    basis set group =>   4
Atom   6H    basis set group =>   4
Atom   7H    basis set group =>   4
Atom   8H    basis set group =>   4
Atom   9H    basis set group =>   4
---------------------------------
AUXILIARY/J BASIS SET INFORMATION
---------------------------------
There are 4 groups of distinct atoms

 Group   1 Type C   : 12s5p4d2f1g contracted to 6s4p3d1f1g pattern {711111/2111/211/2/1}
 Group   2 Type N   : 12s5p4d2f1g contracted to 6s4p3d1f1g pattern {711111/2111/211/2/1}
 Group   3 Type O   : 12s5p4d2f1g contracted to 6s4p3d1f1g pattern {711111/2111/211/2/1}
 Group   4 Type H   : 5s2p1d contracted to 3s1p1d pattern {311/2/1}

Atom   0C    basis set group =>   1
Atom   1C    basis set group =>   1
Atom   2N    basis set group =>   2
Atom   3O    basis set group =>   3
Atom   4O    basis set group =>   3
Atom   5H    basis set group =>   4
Atom   6H    basis set group =>   4
Atom   7H    basis set group =>   4
Atom   8H    basis set group =>   4
Atom   9H    basis set group =>   4
------------------------------------------------------------------------------
                             ORCA STARTUP CALCULATIONS
                           -- RI-GTO INTEGRALS CHOSEN --
------------------------------------------------------------------------------
------------------------------------------------------------------------------
                   ___                                                        
                  /   \      - P O W E R E D   B Y -                         
                 /     \                                                     
                 |  |  |   _    _      __       _____    __    __             
                 |  |  |  | |  | |    /  \     |  _  \  |  |  /  |          
                  \  \/   | |  | |   /    \    | | | |  |  | /  /          
                 / \  \   | |__| |  /  /\  \   | |_| |  |  |/  /          
                |  |  |   |  __  | /  /__\  \  |    /   |      \           
                |  |  |   | |  | | |   __   |  |    \   |  |\   \          
                \     /   | |  | | |  |  |  |  | |\  \  |  | \   \       
                 \___/    |_|  |_| |__|  |__|  |_| \__\ |__|  \__/        
                                                                              
                      - O R C A' S   B I G   F R I E N D -                    
                                      &                                       
                       - I N T E G R A L  F E E D E R -                       
                                                                              
 v1 FN, 2020, v2 2021, v3 2022-2024                                           
------------------------------------------------------------------------------


----------------------
SHARK INTEGRAL PACKAGE
----------------------

Number of atoms                             ...     10
Number of basis functions                   ...     80
Number of shells                            ...     40
Maximum angular momentum                    ...      2
Integral batch strategy                     ... SHARK/LIBINT Hybrid
RI-J (if used) integral strategy            ... SPLIT-RIJ (Revised 2003 algorithm where possible)
Printlevel                                  ...      1
Contraction scheme used                     ... SEGMENTED contraction
Prescreening option                         ... SCHWARTZ
   Thresh                                   ... 1.000e-09
   Tcut                                     ... 1.000e-10
   Tpresel                                  ... 1.000e-10 
Coulomb Range Separation                    ... NOT USED
Exchange Range Separation                   ... NOT USED
Multipole approximations                    ... NOT USED
Finite Nucleus Model                        ... NOT USED
CABS basis                                  ... NOT available
Auxiliary Coulomb fitting basis             ... AVAILABLE
   # of basis functions in Aux-J            ...    300
   # of shells in Aux-J                     ...    100
   Maximum angular momentum in Aux-J        ...      4
Auxiliary J/K fitting basis                 ... NOT available
Auxiliary Correlation fitting basis         ... NOT available
Auxiliary 'external' fitting basis          ... NOT available

Checking pre-screening integrals            ... done (  0.0 sec) Dimension = 40
Check shell pair data                       ... done (  0.0 sec)
Shell pair information
Shell pair cut-off parameter TPreSel        ...   1.0e-10
Total number of shell pairs                 ...       820
Shell pairs after pre-screening             ...       806
Total number of primitive shell pairs       ...      3320
Primitive shell pairs kept                  ...      2507
          la=0 lb=0:    316 shell pairs
          la=1 lb=0:    248 shell pairs
          la=1 lb=1:     55 shell pairs
          la=2 lb=0:    122 shell pairs
          la=2 lb=1:     50 shell pairs
          la=2 lb=2:     15 shell pairs

Calculating one electron integrals          ... done (  0.0 sec)
Calculating RI/J V-Matrix + Cholesky decomp.... done (  0.0 sec)
Calculating Nuclear repulsion               ... done (  0.0 sec) ENN=    185.591321438430 Eh

Diagonalization of the overlap matrix:
Smallest eigenvalue                        ... 3.338e-03
Time for diagonalization                   ...    0.002 sec
Threshold for overlap eigenvalues          ... 1.000e-07
Number of eigenvalues below threshold      ... 0
Time for construction of square roots      ...    0.213 sec
Total time needed                          ...    0.216 sec

-------------------
DFT GRID GENERATION
-------------------

General Integration Accuracy     IntAcc      ... 4.159
Radial Grid Type                 RadialGrid  ... OptM3 with GC (2021)
Angular Grid (max. ang.)         AngularGrid ... 3 (Lebedev-194)
Angular grid pruning method      GridPruning ... 4 (adaptive)
Weight generation scheme         WeightScheme... mBecke (2022)
Basis function cutoff            BFCut       ... 1.0000e-10
Integration weight cutoff        WCut        ... 1.0000e-14
Partially contracted basis set               ... off
Rotationally invariant grid construction     ... off
Angular grids for H and He will be reduced by one unit

Total number of grid points                  ...    23704
Total number of batches                      ...      376
Average number of points per batch           ...       63
Average number of grid points per atom       ...     2370
Initializing property integral containers    ... done (  0.0 sec)

SHARK setup successfully completed in   0.5 seconds

Maximum memory used throughout the entire STARTUP-calculation: 12.4 MB
-------------------------------------------------------------------------------
                                 ORCA GUESS
                   Start orbitals & Density for SCF / CASSCF
-------------------------------------------------------------------------------

------------
SCF SETTINGS
------------
Hamiltonian:
 Density Functional     Method          .... DFT(GTOs)
 Exchange Functional    Exchange        .... PBE
   PBE kappa parameter   XKappa         ....  0.804000
   PBE mue parameter    XMuePBE         ....  0.219520
 Correlation Functional Correlation     .... PBE
   PBE beta parameter  CBetaPBE         ....  0.066725
 LDA part of GGA corr.  LDAOpt          .... PW91-LDA
 Gradients option       PostSCFGGA      .... off
   NL short-range parameter             ....  6.400000
 RI-approximation to the Coulomb term is turned on
   Number of AuxJ basis functions       .... 300


General Settings:
 Integral files         IntName         .... sp
 Hartree-Fock type      HFTyp           .... RHF
 Total Charge           Charge          ....    0
 Multiplicity           Mult            ....    1
 Number of Electrons    NEL             ....   40
 Basis Dimension        Dim             ....   80
 Nuclear Repulsion      ENuc            ....    185.5913214384 Eh

Convergence Acceleration:
 AO-DIIS                CNVDIIS         .... on
   Start iteration      DIISMaxIt       ....    12
   Startup error        DIISStart       ....  0.200000
   # of expansion vecs  DIISMaxEq       ....     5
   Bias factor          DIISBfac        ....   1.050
   Max. coefficient     DIISMaxC        ....  10.000
 MO-DIIS                CNVKDIIS        .... off
 Trust-Rad. Augm. Hess. CNVTRAH         .... auto
   Auto Start mean grad. ratio tolernc. ....  1.125000
   Auto Start start iteration           ....    50
   Auto Start num. interpolation iter.  ....    10
   Max. Number of Micro iterations      ....    24
   Max. Number of Macro iterations      .... Maxiter - #DIIS iter
   Number of Davidson start vectors     ....     2
   Converg. threshold    (grad. norm)   ....   1.000e-04
   Grad. Scal. Fac. for Micro threshold ....   0.100
   Minimum threshold for Micro iter.    ....   1.000e-02
   NR start threshold (gradient norm)   ....   1.000e-04
   Initial trust radius                 ....   0.400
   Minimum AH scaling param. (alpha)    ....   1.000
   Maximum AH scaling param. (alpha)    .... 1000.000
   Quad. conv. algorithm                .... NR
   White noise on init. David. guess    .... on
   Maximum white noise                  ....   0.010
   Pseudo random numbers                .... off
   Inactive MOs                         .... canonical
   Orbital update algorithm             .... Taylor
   Preconditioner                       .... Diag
   Full preconditioner red. dimension   ....   250
 SOSCF                  CNVSOSCF        .... on
   Start iteration      SOSCFMaxIt      ....   150
   Startup grad/error   SOSCFStart      ....  0.003300
   Hessian update       SOSCFHessUp     .... L-BFGS
 Level Shifting         CNVShift        .... on
   Level shift para.    LevelShift      ....    0.2500
   Turn off err/grad.   ShiftErr        ....    0.0010
 Zerner damping         CNVZerner       .... off
 Static damping         CNVDamp         .... on
   Fraction old density DampFac         ....    0.7000
   Max. Damping (<1)    DampMax         ....    0.9800
   Min. Damping (>=0)   DampMin         ....    0.0000
   Turn off err/grad.   DampErr         ....    0.1000

SCF Procedure:
 Maximum # iterations   MaxIter         ....   125
 SCF integral mode      SCFMode         .... Direct
   Integral package                     .... SHARK and LIBINT hybrid scheme
 Reset frequency        DirectResetFreq ....    20
 Integral Threshold     Thresh          ....  1.000e-09 Eh
 Primitive CutOff       TCut            ....  1.000e-10 Eh

Convergence Tolerance:
 Convergence Check Mode ConvCheckMode   .... Total+1el-Energy
 Convergence forced     ConvForced      .... 0
 Energy Change          TolE            ....  1.000e-05 Eh
 1-El. energy change                    ....  1.000e-02 Eh
 Orbital Gradient       TolG            ....  1.000e-04
 Orbital Rotation angle TolX            ....  1.000e-04
 DIIS Error             TolErr          ....  5.000e-04

------------------------------
INITIAL GUESS: MODEL POTENTIAL
------------------------------
Loading Hartree-Fock densities                     ... done
Calculating cut-offs                               ... done
Initializing the effective Hamiltonian             ... done
Setting up the integral package (SHARK)            ... done
Starting the Coulomb interaction                   ... done (   0.0 sec)
Making the grid                                    ... done (   0.1 sec)
Mapping shells                                     ... done
Starting the XC term evaluation                    ... done (   0.0 sec)
  promolecular density results
     # of electrons  =     39.996387418
     EX              =    -34.551111076
     EC              =     -1.338744068
     EX+EC           =    -35.889855144
Transforming the Hamiltonian                       ... done (   0.0 sec)
Diagonalizing the Hamiltonian                      ... done (   0.0 sec)
Back transforming the eigenvectors                 ... done (   0.0 sec)
Now organizing SCF variables                       ... done
                      ------------------
                      INITIAL GUESS DONE (   0.1 sec)
                      ------------------
             **** ENERGY FILE WAS UPDATED (sp.en.tmp) ****
Finished Guess after   0.2 sec
Maximum memory used throughout the entire GUESS-calculation: 9.8 MB

-------------------------------------------------------------------------------------------
                                      ORCA LEAN-SCF
                              memory conserving SCF solver
-------------------------------------------------------------------------------------------

----------------------------------------D-I-I-S--------------------------------------------
Iteration    Energy (Eh)           Delta-E    RMSDP     MaxDP     DIISErr   Damp  Time(sec)
-------------------------------------------------------------------------------------------
               ***  Starting incremental Fock matrix formation  ***
    1    -283.6279647670342001     0.00e+00  6.76e-03  9.71e-02  1.98e-01  0.700   0.2
    2    -283.7150186286779103    -8.71e-02  3.65e-03  4.60e-02  7.02e-02  0.700   0.1
                               ***Turning on AO-DIIS***
    3    -283.7385768457029940    -2.36e-02  1.39e-03  1.51e-02  2.39e-02  0.700   0.1
    4    -283.7553925384544300    -1.68e-02  2.05e-03  2.87e-02  2.19e-02  0.000   0.1
    5    -283.7961144816990213    -4.07e-02  6.40e-04  5.61e-03  8.33e-03  0.000   0.1
                              *** Initializing SOSCF ***
---------------------------------------S-O-S-C-F--------------------------------------
Iteration    Energy (Eh)           Delta-E    RMSDP     MaxDP     MaxGrad    Time(sec)
--------------------------------------------------------------------------------------
    6    -283.7965310397402163    -4.17e-04  1.99e-04  2.06e-03  2.10e-03     0.1
               *** Restarting incremental Fock matrix formation ***
    7    -283.7965556229532922    -2.46e-05  2.12e-04  3.58e-03  5.96e-04     0.1
    8    -283.7965327310484440     2.29e-05  1.38e-04  2.61e-03  2.81e-03     0.1
    9    -283.7965580589451520    -2.53e-05  1.40e-04  1.76e-03  4.66e-04     0.1
   10    -283.7965542140553907     3.84e-06  7.98e-05  1.02e-03  7.15e-04     0.1
                 **** Energy Check signals convergence ****

               *****************************************************
               *                     SUCCESS                       *
               *           SCF CONVERGED AFTER  10 CYCLES          *
               *****************************************************

             **** ENERGY FILE WAS UPDATED (sp.en.tmp) ****

----------------
TOTAL SCF ENERGY
----------------

Total Energy       :       -283.79655421405539 Eh           -7722.49684 eV

Components:
Nuclear Repulsion  :        185.59132143842965 Eh            5050.19660 eV
Electronic Energy  :       -469.38787565248504 Eh          -12772.69345 eV
One Electron Energy:       -753.99935532883785 Eh          -20517.36554 eV
Two Electron Energy:        284.61147967635281 Eh            7744.67209 eV

Virial components:
Potential Energy   :       -565.84278243698668 Eh          -15397.36490 eV
Kinetic Energy     :        282.04622822293135 Eh            7674.86805 eV
Virial Ratio       :          2.00620581243774

DFT components:
N(Alpha)           :       20.000175593140 electrons
N(Beta)            :       20.000175593140 electrons
N(Total)           :       40.000351186280 electrons
E(X)               :      -35.090114183192 Eh       
E(C)               :       -1.349469650428 Eh       
E(XC)              :      -36.439583833620 Eh       

---------------
SCF CONVERGENCE
---------------

  Last Energy change         ...   -3.8449e-06  Tolerance :   1.0000e-05
  Last MAX-Density change    ...    1.0168e-03  Tolerance :   1.0000e-03
  Last RMS-Density change    ...    7.9819e-05  Tolerance :   1.0000e-04
  Last DIIS Error            ...    2.1022e-03  Tolerance :   5.0000e-04
  Last Orbital Gradient      ...    7.1453e-04  Tolerance :   1.0000e-04
  Last Orbital Rotation      ...    6.1309e-04  Tolerance :   1.0000e-04


----------------
ORBITAL ENERGIES
----------------

  NO   OCC          E(Eh)            E(eV) 
   0   2.0000     -18.783076      -511.1135 
   1   2.0000     -18.782358      -511.0939 
   2   2.0000     -14.207841      -386.6150 
   3   2.0000      -9.949272      -270.7335 
   4   2.0000      -9.907967      -269.6095 
   5   2.0000      -1.139497       -31.0073 
   6   2.0000      -0.971461       -26.4348 
   7   2.0000      -0.760338       -20.6899 
   8   2.0000      -0.638377       -17.3711 
   9   2.0000      -0.533834       -14.5264 
  10   2.0000      -0.496999       -13.5240 
  11   2.0000      -0.476618       -12.9694 
  12   2.0000      -0.457870       -12.4593 
  13   2.0000      -0.423899       -11.5349 
  14   2.0000      -0.377850       -10.2818 
  15   2.0000      -0.359122        -9.7722 
  16   2.0000      -0.341705        -9.2983 
  17   2.0000      -0.276785        -7.5317 
  18   2.0000      -0.253074        -6.8865 
  19   2.0000      -0.237135        -6.4528 
  20   0.0000      -0.093104        -2.5335 
  21   0.0000       0.035294         0.9604 
  22   0.0000       0.070449         1.9170 
  23   0.0000       0.074297         2.0217 
  24   0.0000       0.097670         2.6577 
  25   0.0000       0.107428         2.9233 
  26   0.0000       0.117655         3.2015 
  27   0.0000       0.159080         4.3288 
  28   0.0000       0.248575         6.7641 
  29   0.0000       0.330913         9.0046 
  30   0.0000       0.375213        10.2101 
*Only the first 10 virtual orbitals were printed.

                    ********************************
                    * MULLIKEN POPULATION ANALYSIS *
                    ********************************

-----------------------
MULLIKEN ATOMIC CHARGES
-----------------------
   0 C :   -0.310114
   1 C :   -0.065902
   2 N :    0.174590
   3 O :   -0.214200
   4 O :   -0.214992
   5 H :    0.126595
   6 H :    0.135025
   7 H :    0.126096
   8 H :    0.115072
   9 H :    0.127831
Sum of atomic charges:    0.0000000

--------------------------------
MULLIKEN REDUCED ORBITAL CHARGES
--------------------------------
  0 C s       :     3.118918  s :     3.118918
      pz      :     1.029401  p :     3.162938
      px      :     1.042411
      py      :     1.091126
      dz2     :     0.002668  d :     0.028258
      dxz     :     0.006311
      dyz     :     0.009620
      dx2y2   :     0.005090
      dxy     :     0.004568

  1 C s       :     3.080458  s :     3.080458
      pz      :     1.052546  p :     2.942136
      px      :     0.846863
      py      :     1.042727
      dz2     :     0.005426  d :     0.043308
      dxz     :     0.008812
      dyz     :     0.011275
      dx2y2   :     0.010591
      dxy     :     0.007203

  2 N s       :     3.321929  s :     3.321929
      pz      :     1.176897  p :     3.384251
      px      :     1.167908
      py      :     1.039446
      dz2     :     0.012003  d :     0.119230
      dxz     :     0.009899
      dyz     :     0.027967
      dx2y2   :     0.035967
      dxy     :     0.033394

  3 O s       :     3.860339  s :     3.860339
      pz      :     1.482820  p :     4.331124
      px      :     1.691532
      py      :     1.156773
      dz2     :     0.002697  d :     0.022737
      dxz     :     0.000737
      dyz     :     0.006031
      dx2y2   :     0.007421
      dxy     :     0.005850

  4 O s       :     3.862426  s :     3.862426
      pz      :     1.350723  p :     4.329845
      px      :     1.536470
      py      :     1.442651
      dz2     :     0.003799  d :     0.022721
      dxz     :     0.003408
      dyz     :     0.005269
      dx2y2   :     0.004061
      dxy     :     0.006185

  5 H s       :     0.873405  s :     0.873405

  6 H s       :     0.864975  s :     0.864975

  7 H s       :     0.873904  s :     0.873904

  8 H s       :     0.884928  s :     0.884928

  9 H s       :     0.872169  s :     0.872169


------------------------
MULLIKEN OVERLAP CHARGES
------------------------
B(  0-C ,  1-C ) :   0.8458 B(  0-C ,  2-N ) :  -0.0743 B(  0-C ,  5-H ) :   0.7476 
B(  0-C ,  6-H ) :   0.7326 B(  0-C ,  7-H ) :   0.7463 B(  1-C ,  2-N ) :   0.6544 
B(  1-C ,  3-O ) :  -0.1672 B(  1-C ,  4-O ) :  -0.1929 B(  1-C ,  8-H ) :   0.6777 
B(  1-C ,  9-H ) :   0.7019 B(  2-N ,  3-O ) :   0.6379 B(  2-N ,  4-O ) :   0.5857 
B(  3-O ,  4-O ) :  -0.2223 B(  8-H ,  9-H ) :  -0.0501 


                     *******************************
                     * LOEWDIN POPULATION ANALYSIS *
                     *******************************

----------------------
LOEWDIN ATOMIC CHARGES
----------------------
   0 C :   -0.344790
   1 C :   -0.187990
   2 N :    0.234481
   3 O :   -0.182010
   4 O :   -0.186706
   5 H :    0.134314
   6 H :    0.133364
   7 H :    0.130687
   8 H :    0.130601
   9 H :    0.138051

-------------------------------
LOEWDIN REDUCED ORBITAL CHARGES
-------------------------------
  0 C s       :     2.949862  s :     2.949862
      pz      :     1.089382  p :     3.325608
      px      :     1.099393
      py      :     1.136833
      dz2     :     0.006366  d :     0.069321
      dxz     :     0.017056
      dyz     :     0.022676
      dx2y2   :     0.012308
      dxy     :     0.010914

  1 C s       :     2.937883  s :     2.937883
      pz      :     1.085026  p :     3.147072
      px      :     0.942458
      py      :     1.119588
      dz2     :     0.011095  d :     0.103036
      dxz     :     0.023903
      dyz     :     0.026602
      dx2y2   :     0.024726
      dxy     :     0.016709

  2 N s       :     3.048535  s :     3.048535
      pz      :     1.146331  p :     3.459726
      px      :     1.177549
      py      :     1.135847
      dz2     :     0.024526  d :     0.257257
      dxz     :     0.019774
      dyz     :     0.057462
      dx2y2   :     0.082143
      dxy     :     0.073351

  3 O s       :     3.613718  s :     3.613718
      pz      :     1.493036  p :     4.523707
      px      :     1.707491
      py      :     1.323180
      dz2     :     0.006584  d :     0.044585
      dxz     :     0.000984
      dyz     :     0.009097
      dx2y2   :     0.016389
      dxy     :     0.011532

  4 O s       :     3.612890  s :     3.612890
      pz      :     1.401715  p :     4.529165
      px      :     1.590806
      py      :     1.536643
      dz2     :     0.005785  d :     0.044651
      dxz     :     0.007186
      dyz     :     0.011091
      dx2y2   :     0.006639
      dxy     :     0.013950

  5 H s       :     0.865686  s :     0.865686

  6 H s       :     0.866636  s :     0.866636

  7 H s       :     0.869313  s :     0.869313

  8 H s       :     0.869399  s :     0.869399

  9 H s       :     0.861949  s :     0.861949


---------------------------------
LOEWDIN BOND ORDERS (THRESH 0.050000)
---------------------------------
B(  0-C ,  1-C ) :   1.1321 B(  0-C ,  2-N ) :   0.0505 B(  0-C ,  5-H ) :   0.9307 
B(  0-C ,  6-H ) :   0.9330 B(  0-C ,  7-H ) :   0.9377 B(  1-C ,  2-N ) :   0.9869 
B(  1-C ,  3-O ) :   0.1227 B(  1-C ,  4-O ) :   0.1271 B(  1-C ,  8-H ) :   0.9087 
B(  1-C ,  9-H ) :   0.9012 B(  2-N ,  3-O ) :   1.9307 B(  2-N ,  4-O ) :   1.9207 
B(  3-O ,  4-O ) :   0.4260 

------------------------------------------
LOEWDIN REDUCED ORBITAL POPULATIONS PER MO
-------------------------------------------
THRESHOLD FOR PRINTING IS 0.1%%
                      0         1         2         3         4         5   
                 -18.78308 -18.78236 -14.20784  -9.94927  -9.90797  -1.13950
                   2.00000   2.00000   2.00000   2.00000   2.00000   2.00000
                  --------  --------  --------  --------  --------  --------
 0 C  s               0.0       0.0       0.0       0.0      99.7       0.1
 0 C  px              0.0       0.0       0.0       0.0       0.0       0.2
 1 C  s               0.0       0.0       0.0      99.6       0.0       1.9
 1 C  pz              0.0       0.0       0.0       0.0       0.1       0.5
 1 C  px              0.0       0.0       0.0       0.0       0.0       2.9
 1 C  py              0.0       0.0       0.0       0.0       0.0       0.3
 2 N  s               0.0       0.0      99.6       0.0       0.0      37.6
 2 N  pz              0.0       0.0       0.0       0.0       0.0       0.4
 2 N  px              0.0       0.0       0.0       0.1       0.0       2.3
 2 N  py              0.1       0.0       0.0       0.0       0.0       0.2
 2 N  dz2             0.0       0.0       0.0       0.0       0.0       0.2
 2 N  dyz             0.0       0.0       0.0       0.0       0.0       0.2
 2 N  dx2y2           0.0       0.0       0.0       0.0       0.0       0.3
 3 O  s              99.9       0.0       0.0       0.0       0.0      18.5
 3 O  pz              0.0       0.0       0.0       0.0       0.0       0.1
 3 O  px              0.0       0.0       0.0       0.0       0.0       0.3
 3 O  py              0.0       0.0       0.1       0.0       0.0       6.5
 3 O  dx2y2           0.0       0.0       0.0       0.0       0.0       0.2
 4 O  s               0.0      99.9       0.0       0.0       0.0      18.6
 4 O  pz              0.0       0.0       0.0       0.0       0.0       1.4
 4 O  px              0.0       0.0       0.0       0.0       0.0       1.8
 4 O  py              0.0       0.0       0.1       0.0       0.0       3.9
 4 O  dyz             0.0       0.0       0.0       0.0       0.0       0.1
 4 O  dxy             0.0       0.0       0.0       0.0       0.0       0.2
 8 H  s               0.0       0.0       0.0       0.1       0.0       0.3
 9 H  s               0.0       0.0       0.0       0.1       0.0       0.3

                      6         7         8         9        10        11   
                  -0.97146  -0.76034  -0.63838  -0.53383  -0.49700  -0.47662
                   2.00000   2.00000   2.00000   2.00000   2.00000   2.00000
                  --------  --------  --------  --------  --------  --------
 0 C  s               0.0      13.2      30.5       1.7       1.4       0.5
 0 C  pz              0.0       1.8       0.2       6.2       0.4       5.2
 0 C  px              0.0       1.7       0.7       0.0       2.9       0.0
 0 C  py              0.0       0.3       0.1       0.0       1.5       1.0
 1 C  s               0.0      30.3       0.5       9.2       0.6       2.2
 1 C  pz              0.1       1.2       2.7      14.0       1.7       2.5
 1 C  px              0.0       0.4      12.9       3.2       0.5       9.8
 1 C  py              0.5       0.0       1.5       0.9       2.1       0.2
 1 C  dz2             0.0       0.0       0.1       0.0       0.1       0.0
 1 C  dxz             0.0       0.0       0.5       0.1       0.1       0.0
 1 C  dx2y2           0.0       0.1       0.1       0.3       0.1       0.2
 1 C  dxy             0.0       0.0       0.0       0.2       0.0       0.0
 2 N  s               0.0       2.3       3.8       5.4       1.7       0.7
 2 N  pz              3.8       2.8       4.1       4.0      23.0      11.7
 2 N  px              0.9      19.2       7.6       5.5      13.1       4.3
 2 N  py             34.7       1.5       1.3       0.1       1.4       3.6
 2 N  dxz             0.2       0.0       0.0       0.0       0.0       0.0
 2 N  dyz             0.1       0.1       0.0       0.0       0.0       0.0
 2 N  dx2y2           0.2       0.2       0.1       0.0       0.0       0.1
 2 N  dxy             0.9       0.1       0.0       0.0       0.0       0.0
 3 O  s              25.9       2.5       2.8       5.6       3.7       9.9
 3 O  pz              0.0       0.1       0.4       1.5       5.0       7.2
 3 O  px              0.6       0.7       1.0       2.0       2.7       0.0
 3 O  py              2.8       0.1       0.5       3.2       8.9      12.3
 3 O  dyz             0.0       0.0       0.0       0.0       0.1       0.2
 3 O  dx2y2           0.1       0.0       0.0       0.0       0.2       0.2
 4 O  s              25.5       3.1       2.0       6.8       5.8       4.1
 4 O  pz              0.8       0.1       0.7       0.0      15.4       0.4
 4 O  px              1.5       0.7       0.9       4.8       0.3       0.1
 4 O  py              1.1       0.3       0.1       2.8       2.3      14.7
 4 O  dyz             0.0       0.0       0.0       0.0       0.3       0.0
 4 O  dx2y2           0.0       0.0       0.0       0.0       0.0       0.2
 4 O  dxy             0.1       0.0       0.0       0.1       0.0       0.1
 5 H  s               0.0       2.1       9.2       0.1       2.2       0.0
 6 H  s               0.0       2.2       7.8       1.5       0.6       2.5
 7 H  s               0.0       2.3       7.9       2.0       0.2       0.5
 8 H  s               0.1       5.1       0.1       8.0       0.9       4.3
 9 H  s               0.0       5.3       0.1      10.3       0.4       0.9

                     12        13        14        15        16        17   
                  -0.45787  -0.42390  -0.37785  -0.35912  -0.34170  -0.27678
                   2.00000   2.00000   2.00000   2.00000   2.00000   2.00000
                  --------  --------  --------  --------  --------  --------
 0 C  s               0.1       0.0       0.0       0.2       0.0       0.0
 0 C  pz              0.9       0.1       2.6      36.7       0.1       0.0
 0 C  px              2.2       3.1      37.5       0.1       5.5       0.1
 0 C  py              2.9      17.1       7.7       0.7      24.9       0.3
 0 C  dxz             0.0       0.0       0.4       0.1       0.1       0.0
 0 C  dyz             0.0       0.0       0.0       0.0       1.0       0.0
 0 C  dx2y2           0.0       0.0       0.2       0.3       0.0       0.0
 0 C  dxy             0.0       0.0       0.1       0.3       0.0       0.0
 1 C  s               0.2       0.0       0.8       0.1       0.0       0.0
 1 C  pz              0.1       0.0       5.7      24.3       0.2       0.1
 1 C  px              0.2       1.6       1.3       3.8       2.5       0.0
 1 C  py             14.5      18.9       0.4       0.7      13.3       0.1
 1 C  dz2             0.0       0.0       0.2       0.0       0.0       0.0
 1 C  dxz             0.0       0.0       0.2       0.1       0.1       0.0
 1 C  dyz             0.0       0.1       0.0       0.0       1.0       0.0
 1 C  dx2y2           0.0       0.1       0.0       0.3       0.0       0.0
 1 C  dxy             0.0       0.1       0.0       0.2       0.0       0.0
 2 N  s               0.0       0.0       0.4       0.1       0.0       0.0
 2 N  pz              4.7       0.5       0.6       1.1       0.1       0.0
 2 N  px              0.3       0.4       2.9       0.0       0.2       0.0
 2 N  py              6.2       6.3       0.2       0.1       0.4       0.0
 2 N  dz2             0.0       0.0       0.0       0.1       0.0       0.6
 2 N  dxz             0.0       0.0       0.0       0.1       0.0       0.0
 2 N  dyz             0.0       0.0       0.0       0.0       0.1       1.4
 2 N  dx2y2           0.0       0.1       0.1       0.0       0.1       0.0
 2 N  dxy             0.2       0.1       0.1       0.0       0.1       0.6
 3 O  s               8.3       3.1       0.1       0.0       0.0       0.0
 3 O  pz              1.3       1.1       0.4       1.3       2.3      34.9
 3 O  px              4.3       1.6       3.6       0.1       0.0       9.4
 3 O  py             11.3       9.0       1.5       0.3       0.2       2.5
 3 O  dxy             0.1       0.1       0.0       0.0       0.0       0.0
 4 O  s              11.8       2.5       0.0       0.1       0.1       0.0
 4 O  pz              2.0       5.0       0.5       1.4       0.2      37.3
 4 O  px             11.3       1.8       2.2       0.4       0.1      10.2
 4 O  py              7.2       3.8       0.0       1.4       1.0       1.8
 4 O  dxy             0.2       0.0       0.0       0.0       0.0       0.0
 5 H  s               0.2       0.0      26.3       1.9       0.0       0.1
 6 H  s               0.2       4.9       1.0       8.4      13.5       0.3
 7 H  s               2.1       5.8       2.3       5.5      14.3       0.1
 8 H  s               2.9       6.4       0.2       4.6       8.8       0.1
 9 H  s               3.8       6.1       0.0       4.9       9.7       0.0

                     18        19        20        21        22        23   
                  -0.25307  -0.23714  -0.09310   0.03529   0.07045   0.07430
                   2.00000   2.00000   0.00000   0.00000   0.00000   0.00000
                  --------  --------  --------  --------  --------  --------
 0 C  s               0.0       0.1       0.6      14.0       9.2       3.7
 0 C  pz              0.0       0.0       1.1       1.4       1.2       0.4
 0 C  px              0.5       0.3       0.3       2.9       0.3       0.9
 0 C  py              0.4       0.0       0.2       0.2       3.3       3.2
 0 C  dz2             0.1       0.0       0.0       0.2       0.5       0.3
 0 C  dxz             0.0       0.0       0.0       0.2       0.4       0.0
 0 C  dyz             0.0       0.0       0.0       0.0       0.2       0.8
 0 C  dx2y2           0.0       0.0       0.0       0.0       0.0       0.3
 0 C  dxy             0.1       0.0       0.0       0.0       0.2       0.0
 1 C  s               1.4       0.0       0.0       9.4       4.2       1.1
 1 C  pz              1.0       0.1       0.0       4.5       2.3       1.6
 1 C  px              8.0       0.0       0.1       0.3       3.2      10.8
 1 C  py              1.1       1.6       0.0       0.1       8.9       7.7
 1 C  dz2             0.0       0.0       0.1       0.0       0.4       0.1
 1 C  dxz             0.0       0.1       0.6       0.0       1.2       0.1
 1 C  dyz             0.0       0.1       0.3       0.0       0.2       1.6
 1 C  dx2y2           0.1       0.0       0.3       0.1       0.1       0.5
 1 C  dxy             0.0       0.1       0.0       0.1       0.1       0.2
 2 N  s               0.8       0.0       0.0       0.1       0.8       1.7
 2 N  pz              0.3       0.1      28.3       0.8       0.1       0.6
 2 N  px              2.0       0.1       7.0       0.8       0.8       0.8
 2 N  py              0.3       0.6       1.9       0.1       0.3       0.3
 2 N  dz2             0.1       0.1       0.2       0.0       0.0       0.1
 2 N  dxz             0.3       0.2       0.3       0.1       0.0       0.0
 2 N  dyz             0.6       0.2       0.1       0.0       0.0       0.0
 2 N  dx2y2           2.8       0.1       0.1       0.1       0.1       0.1
 2 N  dxy             0.4       1.3       0.0       0.0       0.1       0.5
 3 O  s               0.2       0.0       0.0       0.2       0.1       0.0
 3 O  pz              4.9      13.9      21.2       0.1       0.1       0.1
 3 O  px             24.2      34.8       5.5       0.1       0.0       0.1
 3 O  py              1.2       5.7       1.4       0.1       0.0       0.9
 3 O  dyz             0.0       0.0       0.3       0.0       0.0       0.0
 4 O  s               0.1       0.1       0.0       0.4       0.0       0.0
 4 O  pz              4.6       0.4      20.2       0.3       0.0       0.0
 4 O  px             31.4      12.2       5.1       0.2       0.4       0.0
 4 O  py             11.0      25.5       1.3       0.1       0.1       0.0
 4 O  dz2             0.0       0.0       0.2       0.0       0.0       0.0
 4 O  dyz             0.0       0.0       0.1       0.0       0.0       0.0
 5 H  s               0.9       0.1       0.5      17.4       1.3       0.9
 6 H  s               0.1       0.2       0.1       7.2       1.7      19.0
 7 H  s               0.3       0.1       0.0      10.2      25.7       0.2
 8 H  s               0.6       1.3       0.1      12.7       0.1      36.8
 9 H  s               0.4       0.7       2.0      15.4      32.5       4.0

                     24        25        26        27        28        29   
                   0.09767   0.10743   0.11765   0.15908   0.24857   0.33091
                   0.00000   0.00000   0.00000   0.00000   0.00000   0.00000
                  --------  --------  --------  --------  --------  --------
 0 C  s               1.2       1.3       0.3       2.4       0.0       0.1
 0 C  pz              7.2       2.9       0.1      17.8       3.3       0.2
 0 C  px              9.7       2.1       6.3      12.3       0.4       1.8
 0 C  py              2.9       0.9      14.6       3.6       0.3       0.0
 0 C  dz2             0.0       0.7       0.0       0.7       0.0       0.0
 0 C  dxz             0.0       0.5       0.0       4.9       0.4       0.1
 0 C  dyz             0.0       0.0       0.8       0.7       0.1       0.2
 0 C  dx2y2           1.0       0.0       0.3       0.2       0.4       0.1
 0 C  dxy             0.6       0.0       0.5       0.5       0.5       0.2
 1 C  s               5.1       6.6       0.1       2.7       1.8       0.1
 1 C  pz              0.1       7.1       0.6      19.9       1.5       0.8
 1 C  px              1.2      20.2       1.1       9.5       6.4       0.1
 1 C  py              0.1       4.2       5.0       0.8       1.1       0.4
 1 C  dz2             0.7       0.0       0.1       1.4       0.0       0.4
 1 C  dxz             0.0       1.9       0.0       2.7       0.0       0.7
 1 C  dyz             0.0       0.0       0.0       0.4       0.0       1.9
 1 C  dx2y2           0.2       3.0       0.1       0.6       0.2       0.8
 1 C  dxy             0.2       0.9       0.8       0.6       0.4       2.2
 2 N  s               2.0      12.6       0.2       1.1      13.6       0.2
 2 N  pz              0.0       1.8       0.4       1.6       1.9       2.6
 2 N  px              2.4       6.4       0.1       0.1      13.2       0.2
 2 N  py              0.2       1.0       1.0       0.7       0.4      25.3
 2 N  dz2             0.2       0.8       0.1       1.0       2.5       0.3
 2 N  dxz             0.1       1.2       0.0       0.0       2.0       1.0
 2 N  dyz             0.0       0.1       0.0       0.1       2.4       0.5
 2 N  dx2y2           0.0       0.1       0.0       0.0       2.4       1.7
 2 N  dxy             0.0       0.0       0.3       0.1       0.1       5.0
 3 O  s               0.3       0.0       0.1       0.5       5.9       6.0
 3 O  pz              0.0       0.1       0.0       0.2       1.0       0.1
 3 O  px              0.6       0.4       0.3       0.1       0.2       4.2
 3 O  py              0.2       1.0       0.2       0.7      10.0       8.1
 3 O  dz2             0.0       0.0       0.0       0.0       0.2       0.7
 3 O  dyz             0.0       0.0       0.0       0.1       0.3       0.0
 3 O  dx2y2           0.0       0.1       0.0       0.1       1.4       0.6
 3 O  dxy             0.1       0.2       0.0       0.0       0.0       1.3
 4 O  s               0.1       0.2       0.4       0.2       6.9       4.5
 4 O  pz              0.1       0.4       0.1       0.8       2.1       2.1
 4 O  px              0.3       1.4       0.8       0.1       0.7       6.4
 4 O  py              0.0       0.7       0.2       0.5      10.9       1.0
 4 O  dxz             0.0       0.1       0.0       0.1       0.0       0.7
 4 O  dyz             0.0       0.0       0.0       0.0       0.7       0.3
 4 O  dx2y2           0.0       0.1       0.0       0.0       0.8       0.2
 4 O  dxy             0.0       0.3       0.0       0.0       0.6       0.8
 5 H  s              46.0       2.8       0.6       1.5       0.4       1.2
 6 H  s               1.8       4.0      31.2       2.6       0.7       0.6
 7 H  s               6.0       7.3      17.9       0.6       1.3       0.3
 8 H  s               3.5       3.8       9.3       1.4       0.2       8.7
 9 H  s               5.5       0.6       5.8       3.9       0.3       5.3

                     30        31        32        33        34        35   
                   0.37521   0.37988   0.40845   0.43114   0.51218   0.54832
                   0.00000   0.00000   0.00000   0.00000   0.00000   0.00000
                  --------  --------  --------  --------  --------  --------
 0 C  s               0.1       1.9       1.3       0.1       6.7       0.0
 0 C  pz              2.3      29.6       4.1       0.1      16.0       0.5
 0 C  px              0.1       1.4      32.5       1.9       8.4       3.7
 0 C  py             25.9       1.9       0.0       0.7       3.2      21.8
 0 C  dz2             0.0       1.1       0.0       0.1       0.2       0.0
 0 C  dxz             1.8       1.8       1.0       0.1       0.3       0.1
 0 C  dyz             6.8       0.0       2.0       0.0       0.1       0.2
 0 C  dx2y2           1.1       1.0       2.4       0.0       0.3       2.5
 0 C  dxy             0.1       1.1       3.1       0.0       0.7       1.7
 1 C  s               0.1       1.3       0.4       9.9       3.9       0.1
 1 C  pz              0.4      30.2       0.6       9.4       4.3       0.0
 1 C  px              0.6       4.4       1.6      41.2       4.9       1.5
 1 C  py              4.9       0.5       0.6       4.7       0.3      19.5
 1 C  dz2             0.4       2.0       0.1       0.2       0.2       0.1
 1 C  dxz             0.2       0.9       1.4       0.2       0.3       0.4
 1 C  dyz             3.6       0.7       0.0       0.0       0.0       3.7
 1 C  dx2y2           0.3       1.4       0.8       0.4       0.3       0.1
 1 C  dxy             0.4       1.4       0.0       0.2       0.1       1.1
 2 N  s               1.8       1.2       4.7       0.9      18.5       0.3
 2 N  pz              0.9       0.2      10.7       0.9       0.7       0.1
 2 N  px              0.2       0.8       0.5      13.2       3.0       1.0
 2 N  py              2.3       0.4       1.2       0.9       0.1      18.8
 2 N  dz2             0.1       0.1       0.0       0.1       0.2       0.0
 2 N  dxz             0.2       0.1       0.3       0.5       0.0       0.0
 2 N  dyz             0.0       0.0       0.3       0.1       0.0       0.0
 2 N  dx2y2           0.2       0.1       0.1       1.1       0.0       0.0
 2 N  dxy             0.0       0.1       0.4       0.4       0.0       0.0
 3 O  s               0.3       0.0       0.1       0.5       0.8       0.9
 3 O  pz              0.1       0.4       0.1       0.5       0.1       0.2
 3 O  px              0.1       0.2       0.1       1.2       0.7       1.8
 3 O  py              1.9       0.0       0.0       1.2       0.6       2.5
 3 O  dz2             0.1       0.0       0.0       0.1       0.3       0.2
 3 O  dyz             0.0       0.0       0.1       0.1       0.0       0.0
 3 O  dx2y2           0.3       0.0       0.0       0.7       0.2       0.9
 3 O  dxy             0.2       0.0       0.0       0.0       0.2       0.5
 4 O  s               0.2       0.4       0.3       0.2       0.7       0.5
 4 O  pz              0.1       0.5       1.7       0.3       0.2       0.7
 4 O  px              0.2       0.4       1.1       0.1       0.6       1.6
 4 O  py              0.1       0.3       1.8       2.1       0.5       2.5
 4 O  dxz             0.0       0.1       0.4       0.0       0.3       0.1
 4 O  dyz             0.0       0.1       0.1       0.3       0.3       0.5
 4 O  dx2y2           0.1       0.0       0.1       0.3       0.0       0.0
 4 O  dxy             0.0       0.0       0.7       0.2       0.4       0.6
 5 H  s               2.0       0.1      14.5       0.4       1.4       0.6
 6 H  s               8.1       4.7       7.1       0.3       2.3       0.2
 7 H  s              20.0       1.1       0.1       0.2       2.0       0.2
 8 H  s               5.4       1.8       1.2       2.4       6.0       6.5
 9 H  s               6.2       4.1       0.4       1.5       9.7       1.9

                     36        37        38        39        40        41   
                   0.57727   0.60296   0.61030   0.63647   0.65102   0.65515
                   0.00000   0.00000   0.00000   0.00000   0.00000   0.00000
                  --------  --------  --------  --------  --------  --------
 0 C  s               6.3       9.4       0.7      37.3       0.2       0.1
 0 C  pz              2.4       5.2       0.1       6.5      25.9       3.0
 0 C  px              0.7       0.4       0.2      13.6      22.6       1.5
 0 C  py              0.0       0.2       3.7       3.1       0.1      40.4
 0 C  dz2             0.2       0.0       0.0       0.1       0.1       0.0
 0 C  dxz             0.1       0.0       0.2       0.2       0.0       0.3
 0 C  dyz             0.0       0.1       1.0       0.0       0.3       1.5
 0 C  dx2y2           0.0       0.7       0.0       0.0       0.6       0.3
 0 C  dxy             0.1       0.5       0.0       0.1       1.2       0.0
 1 C  s               2.6      30.9       0.4       1.6       3.2       0.3
 1 C  pz             14.8      15.3       0.4      10.8       3.9       0.6
 1 C  px             15.0       3.4       5.2       0.8       2.5       0.7
 1 C  py              1.0       1.9      40.4       0.4       0.2      14.6
 1 C  dz2             0.2       0.0       0.0       0.0       0.1       0.0
 1 C  dxz             0.0       0.0       0.1       0.0       0.0       0.0
 1 C  dyz             0.1       0.1       0.9       0.0       0.1       0.0
 1 C  dx2y2           0.2       0.5       0.1       0.1       0.0       0.0
 1 C  dxy             0.0       0.1       0.7       0.1       0.0       0.0
 2 N  s              16.8       2.7       0.0       1.0       0.9       0.1
 2 N  pz              0.6       0.2       0.1       0.1       1.6       0.1
 2 N  px              3.4       0.0       0.1       0.0       0.6       0.2
 2 N  py              0.2       0.1       3.9       0.0       0.1       0.9
 2 N  dz2             0.1       0.0       0.0       0.0       0.0       0.0
 2 N  dyz             0.2       0.0       0.0       0.0       0.0       0.0
 3 O  s               1.5       0.2       0.2       0.0       0.2       0.0
 3 O  pz              1.5       0.0       0.2       0.0       0.0       0.0
 3 O  px              0.6       0.2       0.5       0.3       0.1       0.3
 3 O  py              0.7       0.6       0.9       0.1       0.1       0.1
 3 O  dz2             0.1       0.0       0.1       0.0       0.0       0.0
 3 O  dx2y2           0.3       0.0       0.1       0.0       0.1       0.0
 3 O  dxy             0.3       0.0       0.1       0.0       0.0       0.0
 4 O  s               2.5       0.1       1.3       0.0       0.1       0.0
 4 O  pz              0.3       0.1       0.3       0.3       0.0       0.7
 4 O  px              1.0       0.0       0.8       0.1       1.4       0.2
 4 O  py              0.2       0.7       0.6       0.4       0.1       0.1
 4 O  dxz             0.2       0.0       0.1       0.0       0.0       0.0
 4 O  dyz             0.2       0.0       0.1       0.0       0.0       0.1
 4 O  dxy             0.4       0.0       0.0       0.0       0.0       0.0
 5 H  s              12.8       1.6       0.2      10.7      13.5       0.8
 6 H  s               4.5       1.6       5.0       2.2      17.1       8.1
 7 H  s               5.7       3.7       2.2       2.3       2.3      22.6
 8 H  s               0.0       5.7      18.3       4.7       0.4       0.6
 9 H  s               2.3      13.6      10.9       3.0       0.3       1.3

                     42        43        44        45        46        47   
                   0.70396   0.75820   0.82129   0.84202   0.86803   0.89968
                   0.00000   0.00000   0.00000   0.00000   0.00000   0.00000
                  --------  --------  --------  --------  --------  --------
 0 C  s              10.9       5.3       5.9       4.6       4.9       0.5
 0 C  pz              1.4       3.8       0.2       0.4       0.0       0.2
 0 C  px              0.8       4.7       0.8       0.3       0.4       0.1
 0 C  py              0.3       0.1       1.8       0.6       0.1       1.7
 0 C  dz2             0.0       0.5       0.2       0.0       0.1       0.3
 0 C  dxz             0.2       0.9       0.0       0.0       0.0       0.0
 0 C  dx2y2           0.1       0.1       1.1       0.1       0.2       1.6
 0 C  dxy             0.0       0.7       1.2       0.0       0.2       1.7
 1 C  s              14.4       5.3       2.5       6.5       0.5       0.4
 1 C  pz              1.7       1.1       0.5       0.8       0.0       0.3
 1 C  px              0.1       3.7       0.1       0.0       0.1       0.2
 1 C  py              0.1       0.1       3.0       0.0       0.6       3.3
 1 C  dz2             0.0       0.4       0.2       0.1       0.2       0.9
 1 C  dxz             0.0       0.0       0.3       0.0       0.0       0.0
 1 C  dyz             0.2       0.3       1.7       0.1       0.1       1.4
 1 C  dx2y2           0.0       0.0       0.1       0.4       0.1       2.3
 1 C  dxy             0.1       0.0       0.9       0.0       0.6       3.8
 2 N  s               4.0       0.0       0.0       0.3       2.1       0.1
 2 N  pz              0.4      39.8       0.2       6.1       0.2       0.9
 2 N  px             18.6       0.5       1.5       0.2       0.0       0.3
 2 N  py              0.0       1.4      20.9       2.2       2.1      15.7
 2 N  dz2             0.0       0.1       0.0       0.2       0.4       0.2
 2 N  dxz             0.0       0.0       0.4       0.5       0.0       0.6
 2 N  dyz             0.1       0.0       0.0       0.0       0.4       0.6
 2 N  dx2y2           0.1       0.0       0.0       0.0       0.9       0.5
 2 N  dxy             0.0       0.0       0.0       0.0       0.2       2.1
 3 O  s               1.1       0.0      15.0       0.1       4.8       0.6
 3 O  pz              0.2       8.8       2.2       9.3      10.1      10.7
 3 O  px              8.4       0.9       0.0      10.5       7.8       0.4
 3 O  py              0.1       0.0      20.9       0.3      39.5      11.4
 3 O  dz2             0.1       0.1       0.1       0.1       0.3       0.3
 3 O  dx2y2           0.0       0.0       0.2       0.0       0.9       0.8
 3 O  dxy             0.1       0.0       0.0       0.0       0.5       0.1
 4 O  s               0.5       0.1       1.8      14.6       0.9       3.6
 4 O  pz              0.0      11.0       1.2       1.4       5.3      14.1
 4 O  px             11.2       0.1       5.6      11.0       2.7       2.6
 4 O  py              1.9       4.4       0.4      19.3       8.1       8.5
 4 O  dz2             0.1       0.0       0.1       0.0       0.0       0.1
 4 O  dxz             0.1       0.0       0.1       0.1       0.1       0.0
 4 O  dyz             0.0       0.1       0.0       0.0       0.1       0.5
 4 O  dx2y2           0.0       0.0       0.3       0.0       0.1       0.6
 4 O  dxy             0.0       0.0       0.0       0.0       0.4       0.3
 5 H  s               4.7       2.2       2.7       1.7       1.5       0.0
 6 H  s               4.1       0.2       2.5       3.4       0.6       1.2
 7 H  s               4.8       0.2       0.5       2.7       0.6       1.5
 8 H  s               3.5       1.9       0.5       1.5       0.5       2.4
 9 H  s               5.4       0.7       2.4       0.5       0.4       0.5

                     48        49        50        51        52        53   
                   0.96676   0.98073   0.99287   1.05134   1.10265   1.30686
                   0.00000   0.00000   0.00000   0.00000   0.00000   0.00000
                  --------  --------  --------  --------  --------  --------
 0 C  s               3.5       0.6       3.2       0.1       8.2       1.7
 0 C  pz              0.1       0.1       0.4       0.0       0.4       0.1
 0 C  px              0.5       0.9       1.5       0.5       2.0       0.3
 0 C  py              0.3       0.1       0.1       1.0       0.6       0.1
 0 C  dz2             0.1       0.2       0.6       0.0       1.9       5.0
 0 C  dxz             0.0       0.0       0.1       0.1       0.7       1.4
 0 C  dyz             0.1       0.0       0.0       0.4       0.0       0.1
 0 C  dx2y2           0.1       0.0       0.1       1.8       0.0       0.0
 0 C  dxy             0.0       0.2       0.1       0.9       0.1       0.0
 1 C  s               2.3      11.7       0.8       0.2       0.8      10.2
 1 C  pz              0.2       0.7       0.3       0.1       0.6       0.6
 1 C  px              0.4       0.3       0.1       0.3       0.3       0.1
 1 C  py              0.2       0.5       0.1       2.8       0.0       0.9
 1 C  dz2             0.5       0.2       1.1       0.2       0.7       3.2
 1 C  dxz             0.0       0.0       1.4       0.1       0.1       0.3
 1 C  dyz             0.0       0.0       0.0       1.5       0.0       0.1
 1 C  dx2y2           0.8       0.0       0.2       0.5       0.2       0.0
 1 C  dxy             0.4       0.0       0.0       0.1       0.6       0.1
 2 N  s               0.3      16.3       0.2       0.1      15.8       1.0
 2 N  pz              1.2       0.7      23.9       0.8       0.5       0.5
 2 N  px              2.6       0.2       0.1       2.3      34.2       5.1
 2 N  py              3.2       0.0       0.0       0.3       2.3       1.3
 2 N  dz2             0.0       1.7       0.1       0.0       1.4       0.1
 2 N  dxz             0.1       1.0       0.0       0.0       3.7       0.6
 2 N  dyz             0.1       0.3       0.3       0.0       0.0       0.0
 2 N  dx2y2           0.0       0.0       0.3       0.4       3.1       0.3
 2 N  dxy             0.6       0.2       0.9       0.0       1.8       0.0
 3 O  s               0.9       2.4       0.5       0.4       0.1      21.0
 3 O  pz              1.8       0.2      49.1       2.5       0.4       0.0
 3 O  px              2.5      37.0       1.1      15.0       5.7       0.8
 3 O  py              0.0       4.4       0.7       2.2       0.7       1.5
 3 O  dz2             0.0       0.2       0.1       0.0       0.0       0.5
 3 O  dxz             0.0       0.3       0.1       0.0       0.2       0.3
 3 O  dyz             0.0       0.0       2.1       0.0       0.3       0.4
 3 O  dx2y2           0.1       0.6       0.0       0.0       0.5       2.5
 3 O  dxy             0.4       0.3       0.5       0.0       3.0       0.0
 4 O  s               0.5       3.6       0.1       0.1       0.3      26.4
 4 O  pz             48.9       0.0       6.5       0.0       0.9       2.9
 4 O  px             13.7       3.4       0.6      32.9       0.5       4.0
 4 O  py              8.9       6.0       0.0      28.1       0.2       0.1
 4 O  dz2             0.5       0.3       0.1       0.0       0.2       0.1
 4 O  dxz             0.1       0.2       0.4       0.4       0.7       0.4
 4 O  dyz             0.0       0.1       0.6       0.1       0.1       1.8
 4 O  dx2y2           0.0       0.2       0.0       2.1       1.8       1.2
 4 O  dxy             0.7       0.4       0.1       0.0       0.5       0.8
 5 H  s               1.0       0.1       0.2       0.1       0.2       0.0
 6 H  s               0.7       0.0       0.4       0.7       1.4       0.2
 7 H  s               0.6       0.0       0.6       0.3       1.8       0.0
 8 H  s               0.5       2.7       0.2       0.0       0.3       0.3
 9 H  s               0.4       1.9       0.0       0.2       0.1       1.6

                     54        55        56        57        58        59   
                   1.32961   1.37485   1.63113   1.68838   1.72394   1.79351
                   0.00000   0.00000   0.00000   0.00000   0.00000   0.00000
                  --------  --------  --------  --------  --------  --------
 0 C  s               0.6       0.1       0.4       0.7       0.7       1.2
 0 C  pz              0.1       0.2       0.1       0.3       0.2       2.3
 0 C  px              0.2       0.4       0.3       0.3       2.0       0.4
 0 C  py              0.0       0.0       0.8       0.1       0.0       0.1
 0 C  dz2             3.6      13.8      14.4       0.0       4.9      27.0
 0 C  dxz             0.0       2.6       2.4       7.0      11.6       4.2
 0 C  dyz             0.0       0.1       7.6       0.1       0.0       2.5
 0 C  dx2y2           1.0       2.1       9.5       4.9       6.4       2.4
 0 C  dxy             0.1       2.0      17.3       2.2       4.1       7.3
 1 C  s               0.3       0.7       0.2       0.3       0.1       1.0
 1 C  pz              0.0       0.2       0.0       0.3       0.2       2.1
 1 C  px              0.1       0.3       0.4       1.4       3.3       0.8
 1 C  py              1.0       0.6       6.5       1.5       1.1       0.4
 1 C  dz2             3.7      24.0       3.0       0.0       0.3      18.2
 1 C  dxz             3.5       6.5       3.1       5.5      10.9       7.0
 1 C  dyz             0.4       0.0       0.2       5.3       2.7       1.0
 1 C  dx2y2           0.7       6.5       1.9       0.0       2.4       4.8
 1 C  dxy             3.9       5.5       7.1       0.4       0.5       3.0
 2 N  s               0.4       0.1       0.7       0.1       1.0       0.2
 2 N  pz              0.2       2.5       0.9       0.3       0.2       0.0
 2 N  px              0.2       0.4       0.2       0.5       2.1       0.0
 2 N  py              1.7       0.3       5.9       0.5       0.2       0.0
 2 N  dz2             0.3       2.5       3.9      18.1       0.0       2.3
 2 N  dxz             0.1       4.6       1.0       0.2       0.8       3.6
 2 N  dyz             0.3       2.3       0.2      17.3      15.8       0.2
 2 N  dx2y2           0.3       2.2       0.5       0.2       7.4       0.4
 2 N  dxy             0.0       0.0       0.0       7.7       6.3       0.6
 3 O  s              34.6       0.2       0.2       0.0       0.4       0.2
 3 O  pz              0.5       0.6       0.2       0.3       0.4       0.0
 3 O  px              1.3       0.4       2.0       0.2       0.1       0.0
 3 O  py              8.4       0.6       0.0       0.0       0.1       0.0
 3 O  dz2             1.5       0.4       0.2       0.0       0.3       0.0
 3 O  dxz             0.0       0.2       0.0       1.1       0.7       0.3
 3 O  dyz             0.4       1.5       0.5       4.0       5.2       0.0
 3 O  dx2y2           1.5       0.0       0.0       1.3       1.4       0.1
 3 O  dxy             2.6       0.0       0.3       0.8       1.1       0.1
 4 O  s              16.0       9.2       4.0       0.2       0.1       0.1
 4 O  pz              1.1       0.2       0.1       0.7       0.4       0.1
 4 O  px              1.2       2.3       0.0       0.2       0.2       0.0
 4 O  py              4.1       0.5       0.5       0.1       0.0       0.0
 4 O  dz2             0.2       0.8       0.4       6.0       2.5       0.6
 4 O  dxz             1.3       0.4       0.4       1.2       0.3       0.2
 4 O  dyz             1.1       0.0       0.7       2.5       0.2       0.8
 4 O  dx2y2           0.0       0.0       0.1       0.5       0.0       0.2
 4 O  dxy             0.6       1.2       0.1       3.4       0.1       0.6
 5 H  s               0.4       0.3       0.0       0.3       0.3       0.0
 6 H  s               0.2       0.2       0.0       0.1       0.0       0.8
 7 H  s               0.0       0.0       0.1       0.1       0.0       0.9
 8 H  s               0.1       0.1       1.0       0.6       0.9       1.3
 9 H  s               0.1       0.0       0.8       1.0       0.2       0.3

                     60        61        62        63        64        65   
                   1.85724   1.92558   2.01788   2.05576   2.14671   2.22715
                   0.00000   0.00000   0.00000   0.00000   0.00000   0.00000
                  --------  --------  --------  --------  --------  --------
 0 C  s               0.1       0.0       0.0       0.0       0.0       0.2
 0 C  pz              0.0       0.0       0.8       0.0       0.0       0.6
 0 C  px              0.1       0.2       2.0       0.1       0.0       0.2
 0 C  py              0.3       3.1       0.2       0.6       0.3       0.0
 0 C  dz2             5.0       1.2       0.3       0.9       0.6       2.1
 0 C  dxz             0.4       3.9      16.1       2.1       6.2       2.4
 0 C  dyz             0.1       6.7       6.1      14.8      38.1       1.2
 0 C  dx2y2           8.3       7.1      18.7       5.4       0.0      10.5
 0 C  dxy             0.0      18.2      14.4       0.6       2.9      11.0
 1 C  s               1.8       0.1       0.7       0.0       0.0       0.4
 1 C  pz              1.5       0.0       0.3       0.1       0.0       2.0
 1 C  px              1.0       0.0       0.0       0.1       0.0       0.0
 1 C  py              0.5       0.2       0.1       1.6       0.3       0.0
 1 C  dz2             0.1       1.2       4.2       0.3       1.3      16.0
 1 C  dxz             3.8       0.0       0.4       6.2       3.1       1.6
 1 C  dyz             0.1       0.3       0.0      34.1      25.2       0.2
 1 C  dx2y2          29.7       5.7       4.0       3.3       3.0       0.1
 1 C  dxy             5.9      28.0       2.0       6.9       3.5       3.8
 2 N  s               1.5       0.0       0.4       0.1       0.7       0.4
 2 N  pz              1.5       0.1       0.1       0.3       0.1       1.0
 2 N  px              2.6       0.1       1.2       0.0       0.2       0.3
 2 N  py              0.0       5.3       0.3       2.2       0.1       0.6
 2 N  dz2             0.1       0.1       5.9       0.7       1.2       5.7
 2 N  dxz            18.4       2.7       1.3       0.1       0.4       0.1
 2 N  dyz             3.7       0.3       0.4       0.1       0.3       4.5
 2 N  dx2y2           1.2       0.1       4.9       0.7       0.6       9.9
 2 N  dxy             1.6       0.3       0.0       0.6       0.1       2.9
 3 O  s               0.6       2.2       0.1       1.3       0.2       0.2
 3 O  pz              0.1       0.1       0.0       0.0       0.0       0.2
 3 O  px              0.1       0.1       0.0       0.1       0.0       0.0
 3 O  py              0.3       0.0       0.0       0.3       0.1       0.4
 3 O  dz2             0.0       0.7       0.4       0.6       0.5       3.0
 3 O  dxz             0.2       0.0       0.1       0.0       0.1       0.6
 3 O  dyz             1.9       1.2       0.3       0.0       0.3       2.5
 3 O  dx2y2           0.1       0.0       0.0       0.0       0.0       1.4
 3 O  dxy             0.0       1.7       1.1       1.6       0.4       0.3
 4 O  s               0.2       1.6       0.2       0.7       0.4       0.4
 4 O  pz              0.0       0.0       0.0       0.0       0.1       0.2
 4 O  px              0.2       0.1       0.2       0.0       0.1       0.0
[...]
 2 N  pz              0.6       0.1       1.0       0.5       0.0       0.0
 2 N  px              1.0       1.7       1.7       3.0       0.0       0.0
 2 N  py              5.5       0.6       0.3       0.4       0.0       1.2
 2 N  dz2             3.2      13.7       0.6       0.5       0.0       0.1
 2 N  dxz             4.6      10.0       3.0       2.5       0.0       0.4
 2 N  dyz             2.4       7.9       2.4       0.2       0.0       0.0
 2 N  dx2y2           0.4      12.7       3.6       3.4       0.0       0.2
 2 N  dxy            21.1       0.1       1.2       1.2       0.0       0.5
 3 O  s               1.2       1.7       0.2       0.1       0.0       0.2
 3 O  pz              0.2       0.0       0.0       0.0       0.0       0.0
 3 O  px              0.1       0.8       0.1       0.0       0.0       0.0
 3 O  py              1.6       2.2       0.3       0.1       0.0       0.3
 3 O  dz2             0.0       2.9       3.9      11.6      18.3       6.4
 3 O  dxz             3.1       4.1       5.1       3.1      12.2      33.5
 3 O  dyz             1.0       0.2       1.3       4.5       3.1       6.3
 3 O  dx2y2          12.1       0.7       0.2       1.8       2.0       0.1
 3 O  dxy             6.0       5.4       0.1       6.3       3.6       2.8
 4 O  s               2.1       0.9       0.2       0.0       0.0       0.2
 4 O  pz              0.3       0.5       0.1       0.0       0.0       0.0
 4 O  px              0.3       1.3       0.4       0.0       0.0       0.0
 4 O  py              2.3       0.4       0.0       0.0       0.0       0.4
 4 O  dz2             0.0       3.5       0.1       8.3       4.4      24.4
 4 O  dxz             0.6      10.9       0.3       1.4      12.7       3.8
 4 O  dyz             0.7       0.3       1.1       0.1      27.9       1.4
 4 O  dx2y2           7.8       1.2       6.7       2.6      10.4       3.0
 4 O  dxy             6.5       0.0       0.1       5.7       3.0      13.5
 5 H  s               0.3       0.1       0.7       0.1       0.0       0.0
 6 H  s               0.2       0.1       0.0       0.1       0.0       0.0
 7 H  s               0.3       0.0       0.1       0.1       0.0       0.0
 8 H  s               0.1       0.2       0.7       0.0       0.0       0.1
 9 H  s               0.0       0.2       0.4       0.0       0.0       0.0

                     72        73        74        75        76        77   
                   2.56303   2.68977   2.96637   3.06340   3.21640   3.32702
                   0.00000   0.00000   0.00000   0.00000   0.00000   0.00000
                  --------  --------  --------  --------  --------  --------
 0 C  s               0.2       0.3       0.0       0.0       0.0       0.0
 0 C  pz              0.2       0.1       0.0       0.0       0.0       0.0
 0 C  px              0.1       0.2       0.0       0.0       0.0       0.0
 0 C  dz2             0.8       0.0       0.3       0.1       0.0       0.0
 0 C  dxz             1.0       1.1       0.0       0.0       0.0       0.1
 0 C  dyz             0.2       0.2       0.0       0.0       0.0       0.0
 0 C  dx2y2           0.0       0.3       0.0       0.0       0.0       0.0
 0 C  dxy             0.1       0.3       0.0       0.0       0.0       0.0
 1 C  s               0.1       0.5       0.0       0.0       0.0       0.2
 1 C  pz              0.0       0.1       0.0       0.0       0.0       0.0
 1 C  px              0.2       1.3       0.0       0.0       0.0       0.2
 1 C  py              0.1       0.2       0.0       0.2       0.0       0.0
 1 C  dz2             0.2       2.3       0.4       0.1       0.1       0.2
 1 C  dxz             3.4       4.7       0.7       0.9       0.0       0.6
 1 C  dyz             1.2       0.2       0.2       0.4       0.2       0.1
 1 C  dx2y2           1.0       1.2       0.4       0.5       0.0       0.7
 1 C  dxy             0.1       0.6       0.0       2.9       0.0       0.2
 2 N  s               0.0       1.5       0.0       0.0       0.0       5.4
 2 N  pz              0.7       0.2       1.7       0.2       0.0       0.4
 2 N  px              0.2       1.4       0.4       0.0       0.0       1.8
 2 N  py              0.0       0.1       0.1       1.8       0.0       0.1
 2 N  dz2             0.6       9.6       6.8       1.0       7.3       1.4
 2 N  dxz             1.2      12.9       7.7       2.4       0.0       5.4
 2 N  dyz             0.3       1.6       2.2       1.4      18.5       0.8
 2 N  dx2y2           0.8       0.3       4.1       3.2       0.7       6.3
 2 N  dxy             0.1       1.5       0.1      12.7       6.9       2.8
 3 O  s               0.0       0.3       0.0       3.0       0.0       2.3
 3 O  pz              0.2       0.0       0.6       0.0       0.4       0.2
 3 O  px              0.0       0.0       0.2       0.7       0.1       0.1
 3 O  py              0.0       0.4       0.0       1.1       0.0       0.9
 3 O  dz2            17.8       4.8       5.4       4.2       0.1       2.4
 3 O  dxz            14.7      14.1       0.3       0.7       4.2       0.0
 3 O  dyz             3.8       0.2      23.4       2.7      19.5       9.2
 3 O  dx2y2           8.7       7.6       1.5       0.2       5.1      19.2
 3 O  dxy             0.6       0.1       6.4      23.2       3.4       3.1
 4 O  s               0.0       0.3       0.0       2.8       0.0       2.4
 4 O  pz              0.2       0.1       0.5       0.4       0.4       0.1
 4 O  px              0.0       0.1       0.2       1.0       0.1       0.0
 4 O  py              0.0       0.4       0.0       0.3       0.0       1.0
 4 O  dz2             6.1       8.3      10.6       0.1      17.3       2.3
 4 O  dxz            20.7       7.3       0.2      13.5       4.0       0.0
 4 O  dyz             2.5       0.3      18.9       0.4       5.2       7.6
 4 O  dx2y2           9.2       1.3       0.1      14.4       0.5      20.1
 4 O  dxy             2.4      11.6       6.5       3.2       5.8       2.3
 8 H  s               0.0       0.0       0.0       0.1       0.0       0.0
 9 H  s               0.2       0.1       0.0       0.1       0.0       0.0

                     78        79   
                   3.59954   3.66184
                   0.00000   0.00000
                  --------  --------
 1 C  px              0.0       0.1
 1 C  dxz             0.1       0.2
 1 C  dx2y2           0.0       0.3
 1 C  dxy             0.3       0.1
 2 N  s               0.0       5.5
 2 N  pz              0.7       0.2
 2 N  px              0.2       1.0
 2 N  py              6.3       0.1
 2 N  dz2             0.9       1.9
 2 N  dxz             2.4       0.0
 2 N  dyz             1.3       6.6
 2 N  dx2y2           2.9      17.1
 2 N  dxy            12.5       2.4
 3 O  s               3.7       1.8
 3 O  px              0.0       0.6
 3 O  py              2.4       1.1
 3 O  dz2             5.2       5.5
 3 O  dxz             0.3       0.0
 3 O  dyz             1.9       0.5
 3 O  dx2y2          20.1       3.6
 3 O  dxy             1.8      19.0
 4 O  s               3.9       1.8
 4 O  pz              0.4       0.4
 4 O  px              0.4       1.1
 4 O  py              1.7       0.3
 4 O  dz2             1.2       0.1
 4 O  dxz             2.3       9.8
 4 O  dyz             9.8       3.5
 4 O  dx2y2           4.7       3.4
 4 O  dxy            12.2      11.5


                      *****************************
                      * MAYER POPULATION ANALYSIS *
                      *****************************

  NA   - Mulliken gross atomic population
  ZA   - Total nuclear charge
  QA   - Mulliken gross atomic charge
  VA   - Mayer's total valence
  BVA  - Mayer's bonded valence
  FA   - Mayer's free valence

  ATOM       NA         ZA         QA         VA         BVA        FA
  0 C      6.3101     6.0000    -0.3101     4.0159     4.0159    -0.0000
  1 C      6.0659     6.0000    -0.0659     3.9957     3.9957    -0.0000
  2 N      6.8254     7.0000     0.1746     4.0431     4.0431    -0.0000
  3 O      8.2142     8.0000    -0.2142     1.9799     1.9799     0.0000
  4 O      8.2150     8.0000    -0.2150     1.9671     1.9671     0.0000
  5 H      0.8734     1.0000     0.1266     0.9505     0.9505    -0.0000
  6 H      0.8650     1.0000     0.1350     0.9728     0.9728     0.0000
  7 H      0.8739     1.0000     0.1261     0.9512     0.9512     0.0000
  8 H      0.8849     1.0000     0.1151     0.9706     0.9706    -0.0000
  9 H      0.8722     1.0000     0.1278     0.9558     0.9558    -0.0000

  Mayer bond orders larger than 0.100000
B(  0-C ,  1-C ) :   1.1541 B(  0-C ,  5-H ) :   0.9469 B(  0-C ,  6-H ) :   0.9419 
B(  0-C ,  7-H ) :   0.9484 B(  1-C ,  2-N ) :   0.8935 B(  1-C ,  8-H ) :   0.9201 
B(  1-C ,  9-H ) :   0.9156 B(  2-N ,  3-O ) :   1.5685 B(  2-N ,  4-O ) :   1.5474 
B(  3-O ,  4-O ) :   0.3096 

-------
TIMINGS
-------

Total SCF time: 0 days 0 hours 0 min 3 sec 

Total time                  ....       3.700 sec
Sum of individual times     ....       3.661 sec  ( 99.0%)

SCF preparation             ....       0.755 sec  ( 20.4%)
Fock matrix formation       ....       1.279 sec  ( 34.6%)
  Startup                   ....       0.010 sec  (  0.8% of F)
  Split-RI-J                ....       0.388 sec  ( 30.4% of F)
  XC integration            ....       0.784 sec  ( 61.3% of F)
    Basis function eval.    ....       0.319 sec  ( 40.6% of XC)
    Density eval.           ....       0.131 sec  ( 16.7% of XC)
    XC-Functional eval.     ....       0.086 sec  ( 10.9% of XC)
    XC-Potential eval.      ....       0.139 sec  ( 17.7% of XC)
Diagonalization             ....       0.000 sec  (  0.0%)
Density matrix formation    ....       0.031 sec  (  0.8%)
Total Energy calculation    ....       0.001 sec  (  0.0%)
Population analysis         ....       1.515 sec  ( 41.0%)
Orbital Transformation      ....       0.009 sec  (  0.2%)
Orbital Orthonormalization  ....       0.000 sec  (  0.0%)
DIIS solution               ....       0.042 sec  (  1.1%)
  MO trafo                  ....       0.000 sec  (  0.0 % of DIIS)
  Orb grad                  ....       0.000 sec  (  0.0 % of DIIS)
  Energy W gradient         ....       0.000 sec  (  0.0 % of DIIS)
  DIIS error                ....       0.001 sec  (  1.3 % of DIIS)
  DIIS work                 ....       0.036 sec  ( 86.2 % of DIIS)
  Form Q                    ....       0.000 sec  (  0.0 % of DIIS)
  Form QpQm                 ....       0.000 sec  (  0.0 % of DIIS)
  Exp/Cayley                ....       0.000 sec  (  0.0 % of DIIS)
  Orb update                ....       0.000 sec  (  0.0 % of DIIS)
  Wake-sleep                ....       0.001 sec  (  1.7 % of DIIS)
SOSCF solution              ....       0.029 sec  (  0.8%)
  MO trafo                  ....       0.017 sec  ( 60.3 % of SOSCF)
  Orb grad                  ....       0.000 sec  (  0.8 % of SOSCF)
  Rot update                ....       0.005 sec  ( 17.5 % of SOSCF)
  Step                      ....       0.006 sec  ( 21.3 % of SOSCF)
Finished LeanSCF after   5.1 sec

Maximum memory used throughout the entire LEANSCF-calculation: 7.8 MB


-------------------------------------------------------------------------------
                          DFT DISPERSION CORRECTION                            
                                                                               
                                DFTD4 V3.4.0                                   
-------------------------------------------------------------------------------
The PBE functional is recognized
Active option DFTDOPT                   ...         5   

-------------------------   ----------------
Dispersion correction           -0.005821140
-------------------------   ----------------

------------------   -----------------
gCP correction             0.045870532
------------------   -----------------

-------------------------   --------------------
FINAL SINGLE POINT ENERGY      -283.756504821716
-------------------------   --------------------


------------------------------------------------------------------------------
                              ORCA PROPERTY CALCULATIONS
------------------------------------------------------------------------------

GBWName                                 ... sp.gbw
Number of atoms                         ...     10
Number of basis functions               ...     80
Max core memory                         ...   1024 MB

Electric properties:
Dipole moment                           ... YES
Quadrupole moment                       ...  NO
Static polarizability (Dipole/Dipole)   ...  NO
Static polarizability (Dipole/Quad.)    ...  NO
Static polarizability (Quad./Quad.)     ...  NO
Static polarizability (Velocity)        ...  NO

Atomic electric properties:
Dipole moment                           ...  NO
Quadrupole moment                       ...  NO
Static polarizability                   ...  NO

Choice of electric origin               ... Center of mass
Position of electric origin             ...    -0.000036     0.000012     0.000003

General magnetic properties:
Magnetizability                         ...  NO

EPR properties:
g-Tensor (aka g-matrix)                 ...  NO
Zero-Field splitting spin-orbit         ...  NO
Zero-field splitting spin-spin          ...  NO
Hyperfine couplings                     ...  NO (   0 nuclei)
Quadrupole couplings                    ...  NO (   0 nuclei)
Contact density                         ...  NO (   0 nuclei)

NMR properties:
Chemical shifts                         ...  NO (   0 nuclei)
Spin-rotation constants                 ...  NO (   0 nuclei)
Spin-spin couplings                     ...  NO (   0 nuclei,    0 pairs)

Choice of magnetic origin               ... GIAO
Position of magnetic origin             ...     0.000000     0.000000     0.000000

Properties with geometric perturbations:
SCF Hessian                             ...  NO
IR spectrum                             ...  NO
VCD spectrum                            ...  NO
X-ray spectroscopy properties:
SCF XES/XAS/RIXS spectra                ...  NO


-------------
DIPOLE MOMENT
-------------

Method             : SCF
Type of density    : Electron Density
Multiplicity       :   1
Irrep              :   0
Energy             :  -283.7965542140553907 Eh
Relativity type    : 
Basis              : AO
                                X                 Y                 Z
Electronic contribution:      6.054753309      -2.034943241       0.242233249
Nuclear contribution   :     -7.244816237       2.421972949       0.136362412
                        -----------------------------------------
Total Dipole Moment    :     -1.190062929       0.387029708       0.378595661
                        -----------------------------------------
Magnitude (a.u.)       :      1.307431238
Magnitude (Debye)      :      3.323226107



--------------------
Rotational spectrum 
--------------------
 
Rotational constants in cm-1:             0.320085             0.143620             0.115774 
Rotational constants in MHz :          9595.902777          4305.626660          3470.821826 

Dipole components along the rotational axes: 
x,y,z [a.u.] :    -1.213832    -0.313366     0.371201 
x,y,z [Debye]:    -3.085315    -0.796513     0.943518 

 

Dipole moment calculation done in   0.7 sec 

Maximum memory used throughout the entire PROP-calculation: 5.2 MB

--------------------------------
SUGGESTED CITATIONS FOR THIS RUN
--------------------------------

Below you find a list of papers that are relevant to this ORCA run
We neither can nor want to force you to cite these papers, but we appreciate if you do
You receive ORCA, which is the product of decades of hard work by many enthusiastic individuals, for free
The only thing we kindly ask in return is that you cite our papers,
We deeply appreciate it, if you show your appreciation for ORCA by not just citing the generic ORCA reference.

Please note that relegating all ORCA citations to the supporting information does *not* help us.
SI sections are not indexed - citations you put there will not count into any citation statistics
But we need these citations in order to attract the funding resources that allow us to do what we are doing

Therefore, if you are a happy ORCA user, please consider citing a few of the papers listed below in the main body of your paper

In addition to the list printed below, the program has created the file sp.bibtex that contains the list in bibtex format
You can import this file easily into all common literature databanks and citation aid programs


List of essential papers. We consider these as the minimum necessary citations

  1. Neese,F.
     Software update: the ORCA program system, version 5.0
     WIRES Comput. Molec. Sci., 2022 12(1)e1606
     doi.org/10.1002/wcms.1606

List of papers to cite with high priority. The work reported in these papers was absolutely
necessary for this run to complete.
Our perspective: the developers of density functionals and basis sets usually get cited in chemistry papers
Good! But without the algorithms to do something with them, the functionals or basis sets would not do anything.
Hence, in our opinion, the algorithm design and method developments papers are equally worthy of getting cited

  1. Neese,F.
     An improvement of the resolution of the identity approximation for the formation of the Coulomb matrix
     J. Comp. Chem., 2003 24(14)1740-1747
     doi.org/10.1002/jcc.10318
  2. Neese,F.
     The SHARK Integral Generation and Digestion System
     J. Comp. Chem., 2022  1-16
     doi.org/10.1002/jcc.26942
  3. Caldeweyher,E.; Bannwarth,C.; Grimme,S.
     Extension of the D3 dispersion coefficient model
     J. Chem. Phys., 2017 147 034112
     doi.org/10.1063/1.4993215
  4. Caldeweyher,E.; Ehlert,S.; Hansen,A.; Neugebauer,H.; Spicher,S.; Bannwarth,C.; Grimme,S.
     A generally applicable atomic-charge dependent London dispersion correction
     J. Chem. Phys., 2019 150 154122
     doi.org/10.1063/1.5090222
  5. Caldeweyher,E.; Mewes,J.; Ehlert,S.; Grimme,S.
     Extension and evaluation of the D4 London-dispersion model for periodic systems
     Phys. Chem. Chem. Phys., 2020 22(16)8499-8512
     doi.org/10.1039/D0CP00502A
  6. Wittmann,L.; Gordiy,I.; Friede,M.; Helmich-Paris,B.; Grimme,S.; Hansen,A.; Bursch,M.
     Extension of the D3 and D4 London Dispersion Corrections to the full Actinides Series
     Phys. Chem. Chem. Phys., 2024 26(32)21379-21394
     doi.org/https://doi.org/10.1039/D4CP01514B 

List of suggested additional citations. These are papers that are important in the 'surrounding' of 
of this run, or papers that preceded the highly important papers. If you like your results we are grateful for a citation.

  1. Neese,F.
     The ORCA program system
     WIRES Comput. Molec. Sci., 2012 2(1)73-78
     doi.org/10.1002/wcms.81
  2. Neese,F.
     Software update: the ORCA program system, version 4.0
     WIRES Comput. Molec. Sci., 2018 8(1)1-6
     doi.org/10.1002/wcms.1327
  3. Neese,F.; Wennmohs,F.; Becker,U.; Riplinger,C.
     The ORCA quantum chemistry program package
     J. Chem. Phys., 2020 152 Art. No. L224108
     doi.org/10.1063/5.0004608

List of optional additional citations

  1. Neese,F.
     Approximate second-order SCF convergence for spin unrestricted wavefunctions
     Chem. Phys. Lett., 2000 325(1-3)93-98
     doi.org/10.1016/s0009-2614(00)00662-x

Timings for individual modules:

Sum of individual times          ...        6.575 sec (=   0.110 min)
Startup calculation              ...        0.506 sec (=   0.008 min)   7.7 %
SCF iterations                   ...        5.319 sec (=   0.089 min)  80.9 %
Property calculations            ...        0.751 sec (=   0.013 min)  11.4 %
                             ****ORCA TERMINATED NORMALLY****
TOTAL RUN TIME: 0 days 0 hours 0 minutes 8 seconds 790 msec
