5
 energy: -40.494385624477 gnorm: 0.012039281586 xtb: 6.7.1 (edcfbbe)
C           -0.00000590890000       -0.00000200980000       -0.00000265590000
H           -1.04007973266089        0.28148493072473       -0.10066580504461
H            0.44169775479573        0.54083682983966        0.82675772106636
H            0.06941315453076       -1.06370848447136        0.18659324468268
H            0.52903923863443        0.24141067470698       -0.91265351060442
5
 energy: -40.494580885378 gnorm: 0.002077892392 xtb: 6.7.1 (edcfbbe)
C            0.00000508912512        0.00000791270341        0.00000512440576
H           -1.04714357371174        0.28340513637343       -0.10135094413385
H            0.44468566479230        0.54450829253069        0.83239067926701
H            0.06989100113740       -1.07094095170941        0.18785992041112
H            0.53262632670836        0.24304155075409       -0.91887578771485
5
 energy: -40.494587044678 gnorm: 0.000049784071 xtb: 6.7.1 (edcfbbe)
C            0.00001138171772        0.00000812574390        0.00000530407242
H           -1.04861252258434        0.28380744722553       -0.10149331280222
H            0.44530464885422        0.54527532991756        0.83356915257718
H            0.06999009256219       -1.07245089292877        0.18812491955458
H            0.53337090784569        0.24338193062148       -0.92017707158047
5
 energy: -40.494587047078 gnorm: 0.000030177791 xtb: 6.7.1 (edcfbbe)
C            0.00001322033643        0.00000714013219        0.00000453391335
H           -1.04866531698666        0.28382287886210       -0.10149812391896
H            0.44532590369246        0.54530380388386        0.83361304697036
H            0.06999333839701       -1.07250691258422        0.18813530707672
H            0.53339736296863        0.24339503028351       -0.92022577223647
5
 energy: -40.494587047078 gnorm: 0.000030177791 xtb: 6.7.1 (edcfbbe)
C            0.00001322033643        0.00000714013219        0.00000453391335
H           -1.04866531698666        0.28382287886210       -0.10149812391896
H            0.44532590369246        0.54530380388386        0.83361304697036
H            0.06999333839701       -1.07250691258422        0.18813530707672
H            0.53339736296863        0.24339503028351       -0.92022577223647
