
                                 *****************
                                 * O   R   C   A *
                                 *****************

                                            #,                                       
                                            ###                                      
                                            ####                                     
                                            #####                                    
                                            ######                                   
                                           ########,                                 
                                     ,,################,,,,,                         
                               ,,#################################,,                 
                          ,,##########################################,,             
                       ,#########################################, ''#####,          
                    ,#############################################,,   '####,        
                  ,##################################################,,,,####,       
                ,###########''''           ''''###############################       
              ,#####''   ,,,,##########,,,,          '''####'''          '####       
            ,##' ,,,,###########################,,,                        '##       
           ' ,,###''''                  '''############,,,                           
         ,,##''                                '''############,,,,        ,,,,,,###''
      ,#''                                            '''#######################'''  
     '                                                          ''''####''''         
             ,#######,   #######,   ,#######,      ##                                
            ,#'     '#,  ##    ##  ,#'     '#,    #''#        ,####,   ,####,        
            ##       ##  ##   ,#'  ##            #'  '#       #'       #'  '#        
            ##       ##  #######   ##           ,######,      #####,   #    #        
            '#,     ,#'  ##    ##  '#,     ,#' ,#      #,     #,   #   #,  ,#        
             '#######'   ##     ##  '#######'  #'      '#     '####' # '####'        



                #########################################################
                #                        -***-                          #
                #          Department of theory and spectroscopy        #
                #                                                       #
                #                      Frank Neese                      #
                #                                                       #
                #     Directorship, Architecture, Infrastructure        #
                #                    SHARK, DRIVERS                     #
                #        Core code/Algorithms in most modules           #
                #                                                       #
                #        Max Planck Institute fuer Kohlenforschung      #
                #                Kaiser Wilhelm Platz 1                 #
                #                 D-45470 Muelheim/Ruhr                 #
                #                      Germany                          #
                #                                                       #
                #                  All rights reserved                  #
                #                        -***-                          #
                #########################################################


                         Program Version 6.0.1  -  RELEASE   -


 With contributions from (in alphabetic order):
[Max-Planck-Institut fuer Kohlenforschung]                               
  Daniel Aravena         : Magnetic Suceptibility                        
  Michael Atanasov       : Ab Initio Ligand Field Theory (pilot matlab implementation)
  Alexander A. Auer      : GIAO ZORA, VPT2 properties, NMR spectrum      
  Ute Becker             : All parallelization in ORCA, NUMFREQ, NUMCALC 
  Giovanni Bistoni       : ED, misc. LED, open-shell LED, HFLD           
  Martin Brehm           : Molecular dynamics                            
  Dmytro Bykov           : pre 5.0 version of the SCF Hessian            
  Marcos Casanova-Páez   : Triplet and SCS-CIS(D). UHF-(DLPNO)-IP/EA/STEOM-CCSD. UHF-CVS-IP/STEOM-CCSD   
  Vijay G. Chilkuri      : MRCI spin determinant printing, contributions to CSF-ICE 
  Pauline Colinet        : FMM embedding                                 
  Dipayan Datta          : RHF DLPNO-CCSD density                        
  Achintya Kumar Dutta   : EOM-CC, STEOM-CC                              
  Nicolas Foglia         : Exact transition moments, OPA infrastructure, MCD improvements    
  Dmitry Ganyushin       : Spin-Orbit,Spin-Spin,Magnetic field MRCI      
  Miquel Garcia-Rates    : C-PCM and meta-GGA Hessian, CCSD/C-PCM, Gaussian charge scheme 
  Tiago L. C. Gouveia    : GS-ROHF, GS-ROCIS                             
  Yang Guo               : DLPNO-NEVPT2, F12-NEVPT2, CIM, IAO-localization        
  Andreas Hansen         : Spin unrestricted coupled pair/coupled cluster methods 
  Ingolf Harden          : AUTO-CI MPn and infrastructure                
  Benjamin Helmich-Paris : MC-RPA, TRAH-(SCF,CASSCF), AVAS, COSX integrals, SCF dyn. polar. 
  Lee Huntington         : MR-EOM, pCC                                   
  Robert Izsak           : Overlap fitted RIJCOSX, COSX-SCS-MP3, EOM     
  Riya Kayal             : Wick's Theorem for AUTO-CI, AUTO-CI UHF-CCSDT 
  Emily Kempfer          : AUTO-CI, RHF CISDT and CCSDT                  
  Christian Kollmar      : KDIIS, OOCD, Brueckner-CCSD(T), CCSD density, CASPT2, CASPT2-K, improved NEVPT2 
  Axel Koslowski         : Symmetry handling                             
  Simone Kossmann        : meta-GGA functionals, TD-DFT gradient, OOMP2, (MP2 Hessian; deprecated post 5.0) 
  Lucas Lang             : DCDCAS                                        
  Marvin Lechner         : AUTO-CI (C++ implementation), FIC-MRCC        
  Spencer Leger          : CASSCF response                               
  Dagmar Lenk            : GEPOL surface, SMD, ORCA-2-JSON               
  Dimitrios Liakos       : Extrapolation schemes; Compound Job, initial MDCI parallelization 
  Dimitrios Manganas     : Further ROCIS development; embedding schemes. LFT, Crystal Embedding 
  Dimitrios Pantazis     : SARC Basis sets                               
  Anastasios Papadopoulos: AUTO-CI, single reference methods and gradients 
  Taras Petrenko         : pre 6.0 DFT Hessian and TD-DFT gradient, (ASA, deprecated), ECA, 1-Electron XAS/XES, NRVS 
  Peter Pinski           : DLPNO-MP2, DLPNO-MP2 Gradient                 
  Christoph Reimann      : Effective Core Potentials                     
  Marius Retegan         : Local ZFS, SOC                                
  Christoph Riplinger    : Optimizer, TS searches, QM/MM, DLPNO-CCSD(T), (RO)-DLPNO pert. Triples 
  Michael Roemelt        : Original ROCIS implementation                 
  Masaaki Saitow         : Open-shell DLPNO-CCSD energy and density      
  Barbara Sandhoefer     : DKH picture change effects                    
  Kantharuban Sivalingam : CASSCF convergence/infrastructure, NEVPT2 and variants, FIC-MRCI 
  Bernardo de Souza      : ESD, SOC TD-DFT                               
  Georgi L. Stoychev     : AutoAux, RI-MP2 NMR, DLPNO-MP2 response, X2C  
  Van Anh Tran           : RI-MP2 g-tensors                              
  Willem Van den Heuvel  : Paramagnetic NMR                              
  Zikuan Wang            : NOTCH, Electric field optimization            
  Frank Wennmohs         : Technical directorship and infrastructure     
  Hang Xu                : AUTO-CI-Response properties                   
                                                                         
[FACCTs GmbH]                                                            
  Markus Bursch, Miquel Garcia-Rates, Christoph Riplinger, Bernardo de Souza, Georgi L. Stoychev 
                                                                 
  APM, Basis sets (HGBS, AHGBS, def-TZVP (Ac-Lr), def2-XVPD (La-Lu)), CI-OPT, improved COSX, DLPNO-Multilevel,           
  DOCKER, DRACO, updates on ESD, GOAT, IRC, LR-CPCM, MBIS, meta-GGA TD-DFT gradient, ML-optimized integration grids, 
  MM, NACMEs, nearIR, NEB, NEB-TS, NL-DFT gradient (VV10), 2- and 3-layer-ONIOM, interface openCOSMO-RS, QMMM,   
  Crystal-QMMM, SF, symmetry and pop. for TD-DFT, r2SCAN hybrids, SOLVATOR                                   
                                                                         
[Other institutions]                                                     
  V. Asgeirsson          : NEB                                           
  Christoph Bannwarth    : sTDA-DFT, sTD-DFT, PBEh-3c, B97-3c, D3        
  Sebastian Ehlert       : rSCAN, r2SCAN, r2SCAN-3c, D4, dhf basis sets  
  Marvin Friede          : D4 for Fr, Ra, Ac-Lr                          
  Lars Goerigk           : TD-DFT with DH, B97 family of functionals     
  Stefan Grimme          : VdW corrections, initial TS optimization, DFT functionals, gCP, sTDA/sTD-DF 
  Waldemar Hujo          : DFT-NL                                        
  H. Jonsson             : NEB                                           
  Holger Kruse           : gCP                                           
  Marcel Mueller         : wB97X-3c, vDZP basis set                      
  Hagen Neugebauer       : wr2SCAN                                       
  Tobias Risthaus        : range-separated hybrid DFT                    
  Lukas Wittmann         : regularized MP2, r2SCAN double-hybrids, wr2SCAN        
                                                                         
We gratefully acknowledge several colleagues who have allowed us to      
interface, adapt or use parts of their codes:                            
  Ed Valeev, F. Pavosevic, A. Kumar             : LibInt (2-el integral package), F12 methods 
  Garnet Chan, S. Sharma, J. Yang, R. Olivares  : DMRG                   
  Ulf Ekstrom                                   : XCFun DFT Library      
  Mihaly Kallay                                 : mrcc  (arbitrary order and MRCC methods)
  Frank Weinhold                                : gennbo (NPA and NBO analysis)           
  Simon Mueller                                 : openCOSMO-RS                            
  Christopher J. Cramer and Donald G. Truhlar   : smd solvation model                     
  S Lehtola, MJT Oliveira, MAL Marques          : LibXC Library                           
  Liviu Ungur et al                             : ANISO software                          


 Your calculation uses the libint2 library for the computation of 2-el integrals
 For citations please refer to: http://libint.valeyev.net

 Your ORCA version has been built with support for libXC version: 6.2.2
 For citations please refer to: https://libxc.gitlab.io

 This ORCA versions uses:
   CBLAS   interface :  Fast vector & matrix operations
   LAPACKE interface :  Fast linear algebra routines
   SCALAPACK package :  Parallel linear algebra routines
   Shared memory     :  Shared parallel matrices
   BLAS/LAPACK       :  OpenBLAS 0.3.27  USE64BITINT DYNAMIC_ARCH NO_AFFINITY Zen SINGLE_THREADED
        Core in use  :  Zen
   Copyright (c) 2011-2014, The OpenBLAS Project


Your calculation utilizes the geometrical counterpoise correction gCP
Please cite in your paper:
H.Kruse, S. Grimme J.Chem.Phys., 136, (2012), 154101 
   

Your calculation utilizes the atom-pairwise dispersion correction
based on EEQ partial charges (D4)


================================================================================

----- Orbital basis set information -----
Your calculation utilizes the basis: def2-SV(P)
   F. Weigend and R. Ahlrichs, Phys. Chem. Chem. Phys. 7, 3297 (2005).

----- AuxJ basis set information -----
Your calculation utilizes the auxiliary basis: def2/J
   F. Weigend, Phys. Chem. Chem. Phys. 8, 1057 (2006).

================================================================================
                                        WARNINGS
                       Please study these warnings very carefully!
================================================================================


================================================================================
                                       INPUT FILE
================================================================================
NAME = sp.inp
|  1> ! pbe def2-sv(p) def2/J RI DEFGRID1 loosescf d4 GCP(DFT/SV(P)) printgap
|  2> %output
|  3>     printlevel normal
|  4> end
|  5> * xyz 0 1
|  6> C -2.2856749561 -1.098681682 -0.1900810499
|  7> C -0.9200446862 -0.5817967094 0.2916288272
|  8> H -0.8228729511 -0.7392525584 1.3804288372
|  9> C -0.7599388938 0.9348591729 0.0224906309
| 10> H -1.4812457701 1.2549408509 -0.7384340728
| 11> C 0.6741839583 1.2338669179 -0.4646584512
| 12> H 0.8683840061 2.3055941799 -0.2799299911
| 13> C 1.653057964 0.3806853497 0.3582119632
| 14> H 2.680551556 0.5778089409 0.0305192145
| 15> C 1.3767976736 -1.1187739038 0.0665732089
| 16> H 1.5701746681 -1.6877746829 0.9906544779
| 17> O 0.0591896807 -1.3359815015 -0.3812972968
| 18> O 2.2288600948 -1.6040157395 -0.8995116381
| 19> O 1.5033222897 0.6284571996 1.7419987032
| 20> O 0.8929358086 0.9222251536 -1.8171059758
| 21> O -1.0615209881 1.6879242472 1.1686627101
| 22> O -3.3337442632 -0.2019714397 0.0546789335
| 23> H -2.4795583828 -2.0761193129 0.2716604544
| 24> H -2.2403951794 -1.2341203932 -1.2730952226
| 25> H 1.9703744408 -1.1920193697 -1.7371580299
| 26> H 2.0059904877 1.41619339 1.9772947592
| 27> H 0.1727854497 1.2854356519 -2.344859615
| 28> H -0.4212975116 1.4381652918 1.8529273818
| 29> H -3.2934766284 0.0944358131 0.9714960348
| 30> *
| 31> 
| 32>                          ****END OF INPUT****
================================================================================

                       ****************************
                       * Single Point Calculation *
                       ****************************

---------------------------------
CARTESIAN COORDINATES (ANGSTROEM)
---------------------------------
  C     -2.285675   -1.098682   -0.190081
  C     -0.920045   -0.581797    0.291629
  H     -0.822873   -0.739253    1.380429
  C     -0.759939    0.934859    0.022491
  H     -1.481246    1.254941   -0.738434
  C      0.674184    1.233867   -0.464658
  H      0.868384    2.305594   -0.279930
  C      1.653058    0.380685    0.358212
  H      2.680552    0.577809    0.030519
  C      1.376798   -1.118774    0.066573
  H      1.570175   -1.687775    0.990654
  O      0.059190   -1.335982   -0.381297
  O      2.228860   -1.604016   -0.899512
  O      1.503322    0.628457    1.741999
  O      0.892936    0.922225   -1.817106
  O     -1.061521    1.687924    1.168663
  O     -3.333744   -0.201971    0.054679
  H     -2.479558   -2.076119    0.271660
  H     -2.240395   -1.234120   -1.273095
  H      1.970374   -1.192019   -1.737158
  H      2.005990    1.416193    1.977295
  H      0.172785    1.285436   -2.344860
  H     -0.421298    1.438165    1.852927
  H     -3.293477    0.094436    0.971496

----------------------------
CARTESIAN COORDINATES (A.U.)
----------------------------
  NO LB      ZA    FRAG     MASS         X           Y           Z
   0 C     6.0000    0    12.011   -4.319300   -2.076207   -0.359201
   1 C     6.0000    0    12.011   -1.738632   -1.099436    0.551099
   2 H     1.0000    0     1.008   -1.555005   -1.396985    2.608632
   3 C     6.0000    0    12.011   -1.436076    1.766628    0.042501
   4 H     1.0000    0     1.008   -2.799149    2.371495   -1.395438
   5 C     6.0000    0    12.011    1.274023    2.331671   -0.878077
   6 H     1.0000    0     1.008    1.641008    4.356942   -0.528991
   7 C     6.0000    0    12.011    3.123827    0.719391    0.676923
   8 H     1.0000    0     1.008    5.065508    1.091901    0.057673
   9 C     6.0000    0    12.011    2.601771   -2.114176    0.125805
  10 H     1.0000    0     1.008    2.967200   -3.189432    1.872066
  11 O     8.0000    0    15.999    0.111852   -2.524639   -0.720547
  12 O     8.0000    0    15.999    4.211935   -3.031150   -1.699831
  13 O     8.0000    0    15.999    2.840867    1.187612    3.291900
  14 O     8.0000    0    15.999    1.687404    1.742753   -3.433833
  15 O     8.0000    0    15.999   -2.005984    3.189715    2.208452
  16 O     8.0000    0    15.999   -6.299864   -0.381671    0.103328
  17 H     1.0000    0     1.008   -4.685686   -3.923297    0.513364
  18 H     1.0000    0     1.008   -4.233733   -2.332150   -2.405801
  19 H     1.0000    0     1.008    3.723468   -2.252590   -3.282753
  20 H     1.0000    0     1.008    3.790773    2.676218    3.736546
  21 H     1.0000    0     1.008    0.326517    2.429121   -4.431142
  22 H     1.0000    0     1.008   -0.796137    2.717739    3.501525
  23 H     1.0000    0     1.008   -6.223769    0.178458    1.835861

--------------------------------
INTERNAL COORDINATES (ANGSTROEM)
--------------------------------
 C      0   0   0     0.000000000000     0.00000000     0.00000000
 C      1   0   0     1.537582685472     0.00000000     0.00000000
 H      2   1   0     1.104409413335   109.82086926     0.00000000
 C      2   1   3     1.548649185188   111.50598537   240.86274054
 H      4   2   1     1.096240071832   109.78887482   341.01557490
 C      4   2   1     1.543835552990   109.91054958   220.37102752
 H      6   4   2     1.104734170129   107.36299496   201.03802320
 C      6   4   2     1.537279683807   108.36756488   319.45120458
 H      8   6   4     1.096350003128   109.69338095   180.09863630
 C      8   6   4     1.552337258449   108.79641848    63.94342899
 H     10   8   6     1.102307915392   108.05273480   213.89956771
 O      2   1   3     1.407310987065   106.74100323   118.61484250
 O     10   8   6     1.376513690574   111.23546166    96.33846447
 O      8   6   4     1.413745876585   111.05256717   303.31734936
 O      6   4   2     1.405022159278   113.91662231    78.46272061
 O      4   2   1     1.404196995037   111.17131795    97.47415801
 O      1   2   3     1.400873292131   113.23882317    80.07769632
 H      1   2   3     1.098262410466   108.92084016   315.59657517
 H      1   2   3     1.092388942153   108.38897114   197.98185610
 H     13  10   8     0.968611026030   106.96642004   290.11430890
 H     14   8   6     0.963622258416   109.08827480   277.05389824
 H     15   6   4     0.963878783452   109.09514638    47.74122169
 H     16   4   2     0.969785428124   107.21912019    62.33888888
 H     17   1   2     0.964381843027   109.36611512   311.03173750

---------------------------
INTERNAL COORDINATES (A.U.)
---------------------------
 C      0   0   0     0.000000000000     0.00000000     0.00000000
 C      1   0   0     2.905610183801     0.00000000     0.00000000
 H      2   1   0     2.087031330928   109.82086926     0.00000000
 C      2   1   3     2.926522837525   111.50598537   240.86274054
 H      4   2   1     2.071593512792   109.78887482   341.01557490
 C      4   2   1     2.917426390962   109.91054958   220.37102752
 H      6   4   2     2.087645032328   107.36299496   201.03802320
 C      6   4   2     2.905037593637   108.36756488   319.45120458
 H      8   6   4     2.071801252836   109.69338095   180.09863630
 C      8   6   4     2.933492285950   108.79641848    63.94342899
 H     10   8   6     2.083060075344   108.05273480   213.89956771
 O      2   1   3     2.659432350812   106.74100323   118.61484250
 O     10   8   6     2.601233894778   111.23546166    96.33846447
 O      8   6   4     2.671592529706   111.05256717   303.31734936
 O      6   4   2     2.655107093126   113.91662231    78.46272061
 O      4   2   1     2.653547758695   111.17131795    97.47415801
 O      1   2   3     2.647266870451   113.23882317    80.07769632
 H      1   2   3     2.075415178960   108.92084016   315.59657517
 H      1   2   3     2.064315932393   108.38897114   197.98185610
 H     13  10   8     1.830409569494   106.96642004   290.11430890
 H     14   8   6     1.820982164958   109.08827480   277.05389824
 H     15   6   4     1.821466927021   109.09514638    47.74122169
 H     16   4   2     1.832628867821   107.21912019    62.33888888
 H     17   1   2     1.822417571848   109.36611512   311.03173750

---------------------
BASIS SET INFORMATION
---------------------
There are 3 groups of distinct atoms

 Group   1 Type C   : 7s4p1d contracted to 3s2p1d pattern {511/31/1}
 Group   2 Type H   : 4s contracted to 2s pattern {31}
 Group   3 Type O   : 7s4p1d contracted to 3s2p1d pattern {511/31/1}

Atom   0C    basis set group =>   1
Atom   1C    basis set group =>   1
Atom   2H    basis set group =>   2
Atom   3C    basis set group =>   1
Atom   4H    basis set group =>   2
Atom   5C    basis set group =>   1
Atom   6H    basis set group =>   2
Atom   7C    basis set group =>   1
Atom   8H    basis set group =>   2
Atom   9C    basis set group =>   1
Atom  10H    basis set group =>   2
Atom  11O    basis set group =>   3
Atom  12O    basis set group =>   3
Atom  13O    basis set group =>   3
Atom  14O    basis set group =>   3
Atom  15O    basis set group =>   3
Atom  16O    basis set group =>   3
Atom  17H    basis set group =>   2
Atom  18H    basis set group =>   2
Atom  19H    basis set group =>   2
Atom  20H    basis set group =>   2
Atom  21H    basis set group =>   2
Atom  22H    basis set group =>   2
Atom  23H    basis set group =>   2
---------------------------------
AUXILIARY/J BASIS SET INFORMATION
---------------------------------
There are 3 groups of distinct atoms

 Group   1 Type C   : 12s5p4d2f1g contracted to 6s4p3d1f1g pattern {711111/2111/211/2/1}
 Group   2 Type H   : 5s2p1d contracted to 3s1p1d pattern {311/2/1}
 Group   3 Type O   : 12s5p4d2f1g contracted to 6s4p3d1f1g pattern {711111/2111/211/2/1}

Atom   0C    basis set group =>   1
Atom   1C    basis set group =>   1
Atom   2H    basis set group =>   2
Atom   3C    basis set group =>   1
Atom   4H    basis set group =>   2
Atom   5C    basis set group =>   1
Atom   6H    basis set group =>   2
Atom   7C    basis set group =>   1
Atom   8H    basis set group =>   2
Atom   9C    basis set group =>   1
Atom  10H    basis set group =>   2
Atom  11O    basis set group =>   3
Atom  12O    basis set group =>   3
Atom  13O    basis set group =>   3
Atom  14O    basis set group =>   3
Atom  15O    basis set group =>   3
Atom  16O    basis set group =>   3
Atom  17H    basis set group =>   2
Atom  18H    basis set group =>   2
Atom  19H    basis set group =>   2
Atom  20H    basis set group =>   2
Atom  21H    basis set group =>   2
Atom  22H    basis set group =>   2
Atom  23H    basis set group =>   2
------------------------------------------------------------------------------
                             ORCA STARTUP CALCULATIONS
                           -- RI-GTO INTEGRALS CHOSEN --
------------------------------------------------------------------------------
------------------------------------------------------------------------------
                   ___                                                        
                  /   \      - P O W E R E D   B Y -                         
                 /     \                                                     
                 |  |  |   _    _      __       _____    __    __             
                 |  |  |  | |  | |    /  \     |  _  \  |  |  /  |          
                  \  \/   | |  | |   /    \    | | | |  |  | /  /          
                 / \  \   | |__| |  /  /\  \   | |_| |  |  |/  /          
                |  |  |   |  __  | /  /__\  \  |    /   |      \           
                |  |  |   | |  | | |   __   |  |    \   |  |\   \          
                \     /   | |  | | |  |  |  |  | |\  \  |  | \   \       
                 \___/    |_|  |_| |__|  |__|  |_| \__\ |__|  \__/        
                                                                              
                      - O R C A' S   B I G   F R I E N D -                    
                                      &                                       
                       - I N T E G R A L  F E E D E R -                       
                                                                              
 v1 FN, 2020, v2 2021, v3 2022-2024                                           
------------------------------------------------------------------------------


----------------------
SHARK INTEGRAL PACKAGE
----------------------

Number of atoms                             ...     24
Number of basis functions                   ...    192
Number of shells                            ...     96
Maximum angular momentum                    ...      2
Integral batch strategy                     ... SHARK/LIBINT Hybrid
RI-J (if used) integral strategy            ... SPLIT-RIJ (Revised 2003 algorithm where possible)
Printlevel                                  ...      1
Contraction scheme used                     ... SEGMENTED contraction
Prescreening option                         ... SCHWARTZ
   Thresh                                   ... 1.000e-09
   Tcut                                     ... 1.000e-10
   Tpresel                                  ... 1.000e-10 
Coulomb Range Separation                    ... NOT USED
Exchange Range Separation                   ... NOT USED
Multipole approximations                    ... NOT USED
Finite Nucleus Model                        ... NOT USED
CABS basis                                  ... NOT available
Auxiliary Coulomb fitting basis             ... AVAILABLE
   # of basis functions in Aux-J            ...    720
   # of shells in Aux-J                     ...    240
   Maximum angular momentum in Aux-J        ...      4
Auxiliary J/K fitting basis                 ... NOT available
Auxiliary Correlation fitting basis         ... NOT available
Auxiliary 'external' fitting basis          ... NOT available

Checking pre-screening integrals            ... done (  0.0 sec) Dimension = 96
Check shell pair data                       ... done (  0.0 sec)
Shell pair information
Shell pair cut-off parameter TPreSel        ...   1.0e-10
Total number of shell pairs                 ...      4656
Shell pairs after pre-screening             ...      4248
Total number of primitive shell pairs       ...     18720
Primitive shell pairs kept                  ...     11437
          la=0 lb=0:   1645 shell pairs
          la=1 lb=0:   1348 shell pairs
          la=1 lb=1:    290 shell pairs
          la=2 lb=0:    627 shell pairs
          la=2 lb=1:    269 shell pairs
          la=2 lb=2:     69 shell pairs

Calculating one electron integrals          ... done (  0.0 sec)
Calculating RI/J V-Matrix + Cholesky decomp.... done (  0.0 sec)
Calculating Nuclear repulsion               ... done (  0.0 sec) ENN=    852.538683351646 Eh

Diagonalization of the overlap matrix:
Smallest eigenvalue                        ... 8.022e-04
Time for diagonalization                   ...    0.003 sec
Threshold for overlap eigenvalues          ... 1.000e-07
Number of eigenvalues below threshold      ... 0
Time for construction of square roots      ...    0.004 sec
Total time needed                          ...    0.008 sec

-------------------
DFT GRID GENERATION
-------------------

General Integration Accuracy     IntAcc      ... 4.159
Radial Grid Type                 RadialGrid  ... OptM3 with GC (2021)
Angular Grid (max. ang.)         AngularGrid ... 3 (Lebedev-194)
Angular grid pruning method      GridPruning ... 4 (adaptive)
Weight generation scheme         WeightScheme... mBecke (2022)
Basis function cutoff            BFCut       ... 1.0000e-10
Integration weight cutoff        WCut        ... 1.0000e-14
Partially contracted basis set               ... off
Rotationally invariant grid construction     ... off
Angular grids for H and He will be reduced by one unit

Total number of grid points                  ...    55614
Total number of batches                      ...      882
Average number of points per batch           ...       63
Average number of grid points per atom       ...     2317
Initializing property integral containers    ... done (  0.0 sec)

SHARK setup successfully completed in   0.8 seconds

Maximum memory used throughout the entire STARTUP-calculation: 28.8 MB
-------------------------------------------------------------------------------
                                 ORCA GUESS
                   Start orbitals & Density for SCF / CASSCF
-------------------------------------------------------------------------------

------------
SCF SETTINGS
------------
Hamiltonian:
 Density Functional     Method          .... DFT(GTOs)
 Exchange Functional    Exchange        .... PBE
   PBE kappa parameter   XKappa         ....  0.804000
   PBE mue parameter    XMuePBE         ....  0.219520
 Correlation Functional Correlation     .... PBE
   PBE beta parameter  CBetaPBE         ....  0.066725
 LDA part of GGA corr.  LDAOpt          .... PW91-LDA
 Gradients option       PostSCFGGA      .... off
   NL short-range parameter             ....  6.400000
 RI-approximation to the Coulomb term is turned on
   Number of AuxJ basis functions       .... 720


General Settings:
 Integral files         IntName         .... sp
 Hartree-Fock type      HFTyp           .... RHF
 Total Charge           Charge          ....    0
 Multiplicity           Mult            ....    1
 Number of Electrons    NEL             ....   96
 Basis Dimension        Dim             ....  192
 Nuclear Repulsion      ENuc            ....    852.5386833516 Eh

Convergence Acceleration:
 AO-DIIS                CNVDIIS         .... on
   Start iteration      DIISMaxIt       ....    12
   Startup error        DIISStart       ....  0.200000
   # of expansion vecs  DIISMaxEq       ....     5
   Bias factor          DIISBfac        ....   1.050
   Max. coefficient     DIISMaxC        ....  10.000
 MO-DIIS                CNVKDIIS        .... off
 Trust-Rad. Augm. Hess. CNVTRAH         .... auto
   Auto Start mean grad. ratio tolernc. ....  1.125000
   Auto Start start iteration           ....    50
   Auto Start num. interpolation iter.  ....    10
   Max. Number of Micro iterations      ....    24
   Max. Number of Macro iterations      .... Maxiter - #DIIS iter
   Number of Davidson start vectors     ....     2
   Converg. threshold    (grad. norm)   ....   1.000e-04
   Grad. Scal. Fac. for Micro threshold ....   0.100
   Minimum threshold for Micro iter.    ....   1.000e-02
   NR start threshold (gradient norm)   ....   1.000e-04
   Initial trust radius                 ....   0.400
   Minimum AH scaling param. (alpha)    ....   1.000
   Maximum AH scaling param. (alpha)    .... 1000.000
   Quad. conv. algorithm                .... NR
   White noise on init. David. guess    .... on
   Maximum white noise                  ....   0.010
   Pseudo random numbers                .... off
   Inactive MOs                         .... canonical
   Orbital update algorithm             .... Taylor
   Preconditioner                       .... Diag
   Full preconditioner red. dimension   ....   250
 SOSCF                  CNVSOSCF        .... on
   Start iteration      SOSCFMaxIt      ....   150
   Startup grad/error   SOSCFStart      ....  0.003300
   Hessian update       SOSCFHessUp     .... L-BFGS
 Level Shifting         CNVShift        .... on
   Level shift para.    LevelShift      ....    0.2500
   Turn off err/grad.   ShiftErr        ....    0.0010
 Zerner damping         CNVZerner       .... off
 Static damping         CNVDamp         .... on
   Fraction old density DampFac         ....    0.7000
   Max. Damping (<1)    DampMax         ....    0.9800
   Min. Damping (>=0)   DampMin         ....    0.0000
   Turn off err/grad.   DampErr         ....    0.1000

SCF Procedure:
 Maximum # iterations   MaxIter         ....   125
 SCF integral mode      SCFMode         .... Direct
   Integral package                     .... SHARK and LIBINT hybrid scheme
 Reset frequency        DirectResetFreq ....    20
 Integral Threshold     Thresh          ....  1.000e-09 Eh
 Primitive CutOff       TCut            ....  1.000e-10 Eh

Convergence Tolerance:
 Convergence Check Mode ConvCheckMode   .... Total+1el-Energy
 Convergence forced     ConvForced      .... 0
 Energy Change          TolE            ....  1.000e-05 Eh
 1-El. energy change                    ....  1.000e-02 Eh
 Orbital Gradient       TolG            ....  1.000e-04
 Orbital Rotation angle TolX            ....  1.000e-04
 DIIS Error             TolErr          ....  5.000e-04

------------------------------
INITIAL GUESS: MODEL POTENTIAL
------------------------------
Loading Hartree-Fock densities                     ... done
Calculating cut-offs                               ... done
Initializing the effective Hamiltonian             ... done
Setting up the integral package (SHARK)            ... done
Starting the Coulomb interaction                   ... done (   0.2 sec)
Making the grid                                    ... done (   0.3 sec)
Mapping shells                                     ... done
Starting the XC term evaluation                    ... done (   0.2 sec)
  promolecular density results
     # of electrons  =     95.997214960
     EX              =    -83.245777347
     EC              =     -3.274287285
     EX+EC           =    -86.520064632
Transforming the Hamiltonian                       ... done (   0.0 sec)
Diagonalizing the Hamiltonian                      ... done (   0.0 sec)
Back transforming the eigenvectors                 ... done (   0.0 sec)
Now organizing SCF variables                       ... done
                      ------------------
                      INITIAL GUESS DONE (   0.7 sec)
                      ------------------
             **** ENERGY FILE WAS UPDATED (sp.en.tmp) ****
Finished Guess after   0.7 sec
Maximum memory used throughout the entire GUESS-calculation: 22.6 MB

-------------------------------------------------------------------------------------------
                                      ORCA LEAN-SCF
                              memory conserving SCF solver
-------------------------------------------------------------------------------------------

----------------------------------------D-I-I-S--------------------------------------------
Iteration    Energy (Eh)           Delta-E    RMSDP     MaxDP     DIISErr   Damp  Time(sec)
-------------------------------------------------------------------------------------------
               ***  Starting incremental Fock matrix formation  ***
    1    -685.5247582301551574     0.00e+00  4.55e-03  1.17e-01  2.25e-01  0.700   0.8
    2    -685.6720211935403313    -1.47e-01  2.97e-03  8.89e-02  8.82e-02  0.700   1.0
                               ***Turning on AO-DIIS***
    3    -685.7189861283868595    -4.70e-02  1.09e-03  2.88e-02  1.98e-02  0.700   0.7
    4    -685.7500623181497303    -3.11e-02  1.45e-03  2.37e-02  8.83e-03  0.000   0.7
    5    -685.8218174852408993    -7.18e-02  4.42e-04  1.53e-02  5.06e-03  0.000   0.7
                              *** Initializing SOSCF ***
---------------------------------------S-O-S-C-F--------------------------------------
Iteration    Energy (Eh)           Delta-E    RMSDP     MaxDP     MaxGrad    Time(sec)
--------------------------------------------------------------------------------------
    6    -685.8221354935772069    -3.18e-04  1.35e-04  3.19e-03  1.15e-03     0.7
               *** Restarting incremental Fock matrix formation ***
    7    -685.8221629392699015    -2.74e-05  8.86e-05  1.83e-03  1.79e-04     0.8
    8    -685.8221634826786612    -5.43e-07  3.57e-05  8.25e-04  1.81e-04     0.7
                 **** Energy Check signals convergence ****

               *****************************************************
               *                     SUCCESS                       *
               *           SCF CONVERGED AFTER   8 CYCLES          *
               *****************************************************

             **** ENERGY FILE WAS UPDATED (sp.en.tmp) ****

----------------
TOTAL SCF ENERGY
----------------

Total Energy       :       -685.82216348267866 Eh          -18662.16983 eV

Components:
Nuclear Repulsion  :        852.53868335164611 Eh           23198.75698 eV
Electronic Energy  :      -1538.36084683432478 Eh          -41860.92681 eV
One Electron Energy:      -2633.99136678889226 Eh          -71674.54895 eV
Two Electron Energy:       1095.63051995456749 Eh           29813.62214 eV

Virial components:
Potential Energy   :      -1366.95727496467293 Eh          -37196.79850 eV
Kinetic Energy     :        681.13511148199427 Eh           18534.62867 eV
Virial Ratio       :          2.00688123680849

DFT components:
N(Alpha)           :       48.000036101044 electrons
N(Beta)            :       48.000036101044 electrons
N(Total)           :       96.000072202089 electrons
E(X)               :      -84.608937346032 Eh       
E(C)               :       -3.285338992152 Eh       
E(XC)              :      -87.894276338184 Eh       

---------------
SCF CONVERGENCE
---------------

  Last Energy change         ...    5.4341e-07  Tolerance :   1.0000e-05
  Last MAX-Density change    ...    8.2484e-04  Tolerance :   1.0000e-03
  Last RMS-Density change    ...    3.5705e-05  Tolerance :   1.0000e-04
  Last DIIS Error            ...    1.1533e-03  Tolerance :   5.0000e-04
  Last Orbital Gradient      ...    1.8086e-04  Tolerance :   1.0000e-04
  Last Orbital Rotation      ...    1.5121e-04  Tolerance :   1.0000e-04


----------------
ORBITAL ENERGIES
----------------

  NO   OCC          E(Eh)            E(eV) 
   0   2.0000     -18.786841      -511.2159 
   1   2.0000     -18.771010      -510.7851 
   2   2.0000     -18.766042      -510.6500 
   3   2.0000     -18.750218      -510.2194 
   4   2.0000     -18.749356      -510.1959 
   5   2.0000     -18.748229      -510.1652 
   6   2.0000      -9.985221      -271.7117 
   7   2.0000      -9.952024      -270.8083 
   8   2.0000      -9.950184      -270.7583 
   9   2.0000      -9.943383      -270.5732 
  10   2.0000      -9.942593      -270.5517 
  11   2.0000      -9.931400      -270.2471 
  12   2.0000      -0.986109       -26.8334 
  13   2.0000      -0.958042       -26.0697 
  14   2.0000      -0.945738       -25.7348 
  15   2.0000      -0.933418       -25.3996 
  16   2.0000      -0.923505       -25.1298 
  17   2.0000      -0.910600       -24.7787 
  18   2.0000      -0.700706       -19.0672 
  19   2.0000      -0.689876       -18.7725 
  20   2.0000      -0.619901       -16.8684 
  21   2.0000      -0.591758       -16.1025 
  22   2.0000      -0.570177       -15.5153 
  23   2.0000      -0.529716       -14.4143 
  24   2.0000      -0.506116       -13.7721 
  25   2.0000      -0.499361       -13.5883 
  26   2.0000      -0.477262       -12.9869 
  27   2.0000      -0.467997       -12.7348 
  28   2.0000      -0.444489       -12.0952 
  29   2.0000      -0.442771       -12.0484 
  30   2.0000      -0.423233       -11.5168 
  31   2.0000      -0.396073       -10.7777 
  32   2.0000      -0.390066       -10.6142 
  33   2.0000      -0.371122       -10.0987 
  34   2.0000      -0.356658        -9.7052 
  35   2.0000      -0.349500        -9.5104 
  36   2.0000      -0.344630        -9.3778 
  37   2.0000      -0.329384        -8.9630 
  38   2.0000      -0.305992        -8.3265 
  39   2.0000      -0.302601        -8.2342 
  40   2.0000      -0.284939        -7.7536 
  41   2.0000      -0.275079        -7.4853 
  42   2.0000      -0.257153        -6.9975 
  43   2.0000      -0.249640        -6.7931 
  44   2.0000      -0.245180        -6.6717 
  45   2.0000      -0.222914        -6.0658 
  46   2.0000      -0.215479        -5.8635 
  47   2.0000      -0.197692        -5.3795 
  48   0.0000      -0.003426        -0.0932 
  49   0.0000       0.011898         0.3238 
  50   0.0000       0.033286         0.9058 
  51   0.0000       0.048608         1.3227 
  52   0.0000       0.072516         1.9733 
  53   0.0000       0.076568         2.0835 
  54   0.0000       0.081388         2.2147 
  55   0.0000       0.091525         2.4905 
  56   0.0000       0.094630         2.5750 
  57   0.0000       0.101773         2.7694 
  58   0.0000       0.111361         3.0303 
*Only the first 10 virtual orbitals were printed.

                    ********************************
                    * MULLIKEN POPULATION ANALYSIS *
                    ********************************

-----------------------
MULLIKEN ATOMIC CHARGES
-----------------------
   0 C :    0.080309
   1 C :   -0.014603
   2 H :    0.052700
   3 C :    0.035646
   4 H :    0.070174
   5 C :    0.062996
   6 H :    0.060432
   7 C :   -0.052866
   8 H :    0.090196
   9 C :    0.239800
  10 H :    0.067492
  11 O :   -0.290474
  12 O :   -0.391834
  13 O :   -0.414976
  14 O :   -0.417238
  15 O :   -0.434791
  16 O :   -0.426474
  17 H :    0.083721
  18 H :    0.086178
  19 H :    0.301728
  20 H :    0.314483
  21 H :    0.308026
  22 H :    0.288981
  23 H :    0.300394
Sum of atomic charges:    0.0000000

--------------------------------
MULLIKEN REDUCED ORBITAL CHARGES
--------------------------------
  0 C s       :     3.009631  s :     3.009631
      pz      :     1.083277  p :     2.846612
      px      :     0.832476
      py      :     0.930859
      dz2     :     0.013500  d :     0.063448
      dxz     :     0.007804
      dyz     :     0.007531
      dx2y2   :     0.019534
      dxy     :     0.015079

  1 C s       :     3.076032  s :     3.076032
      pz      :     0.990525  p :     2.871383
      px      :     0.928678
      py      :     0.952181
      dz2     :     0.017371  d :     0.067188
      dxz     :     0.011875
      dyz     :     0.007917
      dx2y2   :     0.014453
      dxy     :     0.015572

  2 H s       :     0.947300  s :     0.947300

  3 C s       :     3.068676  s :     3.068676
      pz      :     0.884783  p :     2.828360
      px      :     1.008269
      py      :     0.935308
      dz2     :     0.013169  d :     0.067319
      dxz     :     0.016317
      dyz     :     0.015859
      dx2y2   :     0.013825
      dxy     :     0.008149

  4 H s       :     0.929826  s :     0.929826

  5 C s       :     3.029890  s :     3.029890
      pz      :     0.769406  p :     2.839857
      px      :     1.036456
      py      :     1.033995
      dz2     :     0.019026  d :     0.067257
      dxz     :     0.015250
      dyz     :     0.014317
      dx2y2   :     0.012816
      dxy     :     0.005848

  6 H s       :     0.939568  s :     0.939568

  7 C s       :     3.101066  s :     3.101066
      pz      :     0.732781  p :     2.887682
      px      :     1.071553
      py      :     1.083348
      dz2     :     0.019820  d :     0.064117
      dxz     :     0.014365
      dyz     :     0.013707
      dx2y2   :     0.011020
      dxy     :     0.005204

  8 H s       :     0.909804  s :     0.909804

  9 C s       :     3.016976  s :     3.016976
      pz      :     0.930318  p :     2.641419
      px      :     0.740511
      py      :     0.970591
      dz2     :     0.018071  d :     0.101804
      dxz     :     0.023778
      dyz     :     0.016618
      dx2y2   :     0.024865
      dxy     :     0.018473

 10 H s       :     0.932508  s :     0.932508

 11 O s       :     3.760687  s :     3.760687
      pz      :     1.645404  p :     4.514264
      px      :     1.187428
      py      :     1.681432
      dz2     :     0.002166  d :     0.015522
      dxz     :     0.004183
      dyz     :     0.002671
      dx2y2   :     0.003006
      dxy     :     0.003497

 12 O s       :     3.773698  s :     3.773698
      pz      :     1.210334  p :     4.602113
      px      :     1.648350
      py      :     1.743429
      dz2     :     0.002405  d :     0.016024
      dxz     :     0.003790
      dyz     :     0.004630
      dx2y2   :     0.002152
      dxy     :     0.003048

 13 O s       :     3.785940  s :     3.785940
      pz      :     1.373417  p :     4.613823
      px      :     1.726532
      py      :     1.513873
      dz2     :     0.005231  d :     0.015213
      dxz     :     0.002299
      dyz     :     0.001915
      dx2y2   :     0.001502
      dxy     :     0.004266

 14 O s       :     3.776885  s :     3.776885
      pz      :     1.249525  p :     4.625152
      px      :     1.590099
      py      :     1.785529
      dz2     :     0.002496  d :     0.015201
      dxz     :     0.004987
      dyz     :     0.002929
      dx2y2   :     0.001955
      dxy     :     0.002834

 15 O s       :     3.791786  s :     3.791786
      pz      :     1.258670  p :     4.627422
      px      :     1.654636
      py      :     1.714116
      dz2     :     0.001347  d :     0.015584
      dxz     :     0.005686
      dyz     :     0.003511
      dx2y2   :     0.002398
      dxy     :     0.002641

 16 O s       :     3.783227  s :     3.783227
      pz      :     1.392185  p :     4.627391
      px      :     1.617256
      py      :     1.617949
      dz2     :     0.006916  d :     0.015856
      dxz     :     0.001645
      dyz     :     0.001878
      dx2y2   :     0.002139
      dxy     :     0.003279

 17 H s       :     0.916279  s :     0.916279

 18 H s       :     0.913822  s :     0.913822

 19 H s       :     0.698272  s :     0.698272

 20 H s       :     0.685517  s :     0.685517

 21 H s       :     0.691974  s :     0.691974

 22 H s       :     0.711019  s :     0.711019

 23 H s       :     0.699606  s :     0.699606


------------------------
MULLIKEN OVERLAP CHARGES
------------------------
B(  0-C ,  1-C ) :   0.6128 B(  0-C ,  2-H ) :  -0.0623 B(  0-C , 11-O ) :  -0.0751 
B(  0-C , 16-O ) :   0.6956 B(  0-C , 17-H ) :   0.7062 B(  0-C , 18-H ) :   0.6409 
B(  0-C , 23-H ) :  -0.1032 B(  1-C ,  2-H ) :   0.6474 B(  1-C ,  3-C ) :   0.1911 
B(  1-C ,  4-H ) :  -0.0893 B(  1-C ,  5-C ) :  -0.0726 B(  1-C ,  7-C ) :  -0.0510 
B(  1-C , 11-O ) :   0.5619 B(  1-C , 16-O ) :  -0.1384 B(  1-C , 17-H ) :  -0.0711 
B(  2-H ,  3-C ) :  -0.1189 B(  2-H , 11-O ) :  -0.0532 B(  3-C ,  4-H ) :   0.6505 
B(  3-C ,  5-C ) :   0.3653 B(  3-C ,  6-H ) :  -0.1307 B(  3-C ,  7-C ) :   0.0811 
B(  3-C ,  9-C ) :  -0.1070 B(  3-C , 11-O ) :  -0.1432 B(  3-C , 14-O ) :  -0.0517 
B(  3-C , 15-O ) :   0.4916 B(  3-C , 22-H ) :  -0.1217 B(  4-H ,  5-C ) :  -0.0505 
B(  5-C ,  6-H ) :   0.6984 B(  5-C ,  7-C ) :   0.2885 B(  5-C ,  8-H ) :  -0.0579 
B(  5-C ,  9-C ) :  -0.0854 B(  5-C , 11-O ) :   0.0784 B(  5-C , 13-O ) :  -0.1001 
B(  5-C , 14-O ) :   0.5009 B(  5-C , 21-H ) :  -0.0880 B(  6-H ,  7-C ) :  -0.1016 
B(  7-C ,  8-H ) :   0.6661 B(  7-C ,  9-C ) :   0.2472 B(  7-C , 10-H ) :  -0.1640 
B(  7-C , 11-O ) :  -0.1539 B(  7-C , 13-O ) :   0.4966 B(  7-C , 14-O ) :  -0.1351 
B(  7-C , 20-H ) :  -0.0588 B(  8-H ,  9-C ) :  -0.0730 B(  9-C , 10-H ) :   0.6823 
B(  9-C , 11-O ) :   0.5782 B(  9-C , 12-O ) :   0.6793 B(  9-C , 13-O ) :  -0.0829 
B(  9-C , 14-O ) :   0.0543 B(  9-C , 19-H ) :  -0.0812 B( 10-H , 11-O ) :  -0.0620 
B( 10-H , 12-O ) :  -0.0601 B( 11-O , 12-O ) :  -0.1221 B( 12-O , 19-H ) :   0.5394 
B( 13-O , 20-H ) :   0.5110 B( 13-O , 22-H ) :   0.1025 B( 14-O , 21-H ) :   0.5299 
B( 15-O , 22-H ) :   0.5434 B( 16-O , 17-H ) :  -0.0576 B( 16-O , 18-H ) :  -0.0611 
B( 16-O , 23-H ) :   0.5315 B( 17-H , 18-H ) :  -0.0795 


                     *******************************
                     * LOEWDIN POPULATION ANALYSIS *
                     *******************************

----------------------
LOEWDIN ATOMIC CHARGES
----------------------
   0 C :   -0.122935
   1 C :   -0.080689
   2 H :    0.098354
   3 C :   -0.084232
   4 H :    0.114305
   5 C :   -0.083700
   6 H :    0.096535
   7 C :   -0.091712
   8 H :    0.115878
   9 C :    0.011574
  10 H :    0.100730
  11 O :   -0.144165
  12 O :   -0.290748
  13 O :   -0.309030
  14 O :   -0.315097
  15 O :   -0.318645
  16 O :   -0.326463
  17 H :    0.100547
  18 H :    0.114629
  19 H :    0.280782
  20 H :    0.295914
  21 H :    0.289229
  22 H :    0.264968
  23 H :    0.283973

-------------------------------
LOEWDIN REDUCED ORBITAL CHARGES
-------------------------------
  0 C s       :     2.919630  s :     2.919630
      pz      :     1.116773  p :     3.059240
      px      :     0.938972
      py      :     1.003495
      dz2     :     0.032175  d :     0.144065
      dxz     :     0.015666
      dyz     :     0.015910
      dx2y2   :     0.044738
      dxy     :     0.035576

  1 C s       :     2.904554  s :     2.904554
      pz      :     1.048826  p :     3.019602
      px      :     0.962027
      py      :     1.008748
      dz2     :     0.042130  d :     0.156534
      dxz     :     0.025823
      dyz     :     0.016893
      dx2y2   :     0.038252
      dxy     :     0.033434

  2 H s       :     0.901646  s :     0.901646

  3 C s       :     2.896641  s :     2.896641
      pz      :     0.956329  p :     3.030528
      px      :     1.062445
      py      :     1.011754
      dz2     :     0.029137  d :     0.157063
      dxz     :     0.038537
      dyz     :     0.034722
      dx2y2   :     0.038435
      dxy     :     0.016232

  4 H s       :     0.885695  s :     0.885695

  5 C s       :     2.898993  s :     2.898993
      pz      :     0.870439  p :     3.025445
      px      :     1.080249
      py      :     1.074757
      dz2     :     0.043423  d :     0.159261
      dxz     :     0.035939
      dyz     :     0.034217
      dx2y2   :     0.031708
      dxy     :     0.013974

  6 H s       :     0.903465  s :     0.903465

  7 C s       :     2.909280  s :     2.909280
      pz      :     0.853215  p :     3.030978
      px      :     1.091254
      py      :     1.086509
      dz2     :     0.046152  d :     0.151454
      dxz     :     0.033849
      dyz     :     0.030466
      dx2y2   :     0.028034
      dxy     :     0.012952

  8 H s       :     0.884122  s :     0.884122

  9 C s       :     2.886614  s :     2.886614
      pz      :     1.002676  p :     2.876202
      px      :     0.833903
      py      :     1.039623
      dz2     :     0.037921  d :     0.225610
      dxz     :     0.053290
      dyz     :     0.036819
      dx2y2   :     0.061085
      dxy     :     0.036496

 10 H s       :     0.899270  s :     0.899270

 11 O s       :     3.471929  s :     3.471929
      pz      :     1.686183  p :     4.641861
      px      :     1.256202
      py      :     1.699477
      dz2     :     0.003601  d :     0.030374
      dxz     :     0.008388
      dyz     :     0.003867
      dx2y2   :     0.007129
      dxy     :     0.007389

 12 O s       :     3.523491  s :     3.523491
      pz      :     1.289585  p :     4.739223
      px      :     1.689134
      py      :     1.760504
      dz2     :     0.004974  d :     0.028034
      dxz     :     0.007842
      dyz     :     0.008420
      dx2y2   :     0.002670
      dxy     :     0.004129

 13 O s       :     3.536061  s :     3.536061
      pz      :     1.434715  p :     4.746248
      px      :     1.750296
      py      :     1.561237
      dz2     :     0.010083  d :     0.026721
      dxz     :     0.003809
      dyz     :     0.003902
      dx2y2   :     0.002221
      dxy     :     0.006705

 14 O s       :     3.527639  s :     3.527639
      pz      :     1.317568  p :     4.760426
      px      :     1.633013
      py      :     1.809845
      dz2     :     0.006060  d :     0.027032
      dxz     :     0.009255
      dyz     :     0.005213
      dx2y2   :     0.002598
      dxy     :     0.003907

 15 O s       :     3.531356  s :     3.531356
      pz      :     1.331966  p :     4.760024
      px      :     1.687253
      py      :     1.740805
      dz2     :     0.003219  d :     0.027265
      dxz     :     0.010187
      dyz     :     0.007173
      dx2y2   :     0.003320
      dxy     :     0.003365

 16 O s       :     3.536108  s :     3.536108
      pz      :     1.460157  p :     4.762901
      px      :     1.642091
      py      :     1.660653
      dz2     :     0.012009  d :     0.027454
      dxz     :     0.002443
      dyz     :     0.003545
      dx2y2   :     0.003300
      dxy     :     0.006157

 17 H s       :     0.899453  s :     0.899453

 18 H s       :     0.885371  s :     0.885371

 19 H s       :     0.719218  s :     0.719218

 20 H s       :     0.704086  s :     0.704086

 21 H s       :     0.710771  s :     0.710771

 22 H s       :     0.735032  s :     0.735032

 23 H s       :     0.716027  s :     0.716027


---------------------------------
LOEWDIN BOND ORDERS (THRESH 0.050000)
---------------------------------
B(  0-C ,  1-C ) :   1.0592 B(  0-C ,  3-C ) :   0.0538 B(  0-C , 11-O ) :   0.0650 
B(  0-C , 16-O ) :   1.2492 B(  0-C , 17-H ) :   0.9092 B(  0-C , 18-H ) :   0.9087 
B(  1-C ,  2-H ) :   0.8651 B(  1-C ,  3-C ) :   1.0041 B(  1-C ,  5-C ) :   0.0533 
B(  1-C ,  9-C ) :   0.0681 B(  1-C , 11-O ) :   1.1445 B(  1-C , 15-O ) :   0.0790 
B(  1-C , 16-O ) :   0.0766 B(  3-C ,  4-H ) :   0.8683 B(  3-C ,  5-C ) :   1.0157 
B(  3-C ,  7-C ) :   0.0539 B(  3-C , 11-O ) :   0.0641 B(  3-C , 14-O ) :   0.0723 
B(  3-C , 15-O ) :   1.2249 B(  5-C ,  6-H ) :   0.8699 B(  5-C ,  7-C ) :   1.0216 
B(  5-C ,  9-C ) :   0.0518 B(  5-C , 13-O ) :   0.0768 B(  5-C , 14-O ) :   1.2128 
B(  5-C , 15-O ) :   0.0853 B(  7-C ,  8-H ) :   0.8746 B(  7-C ,  9-C ) :   1.0016 
B(  7-C , 11-O ) :   0.0602 B(  7-C , 12-O ) :   0.0830 B(  7-C , 13-O ) :   1.1918 
B(  7-C , 14-O ) :   0.0624 B(  9-C , 10-H ) :   0.8784 B(  9-C , 11-O ) :   1.1576 
B(  9-C , 12-O ) :   1.3121 B(  9-C , 13-O ) :   0.0582 B( 11-O , 12-O ) :   0.0775 
B( 12-O , 19-H ) :   0.8628 B( 13-O , 20-H ) :   0.8787 B( 13-O , 22-H ) :   0.0743 
B( 14-O , 21-H ) :   0.8765 B( 15-O , 22-H ) :   0.8585 B( 16-O , 23-H ) :   0.8827 


------------------------------------------
LOEWDIN REDUCED ORBITAL POPULATIONS PER MO
-------------------------------------------
THRESHOLD FOR PRINTING IS 0.1%%
                      0         1         2         3         4         5   
                 -18.78684 -18.77101 -18.76604 -18.75022 -18.74936 -18.74823
                   2.00000   2.00000   2.00000   2.00000   2.00000   2.00000
                  --------  --------  --------  --------  --------  --------
11 O  s               0.0       0.0      99.9       0.0       0.0       0.0
12 O  s               0.0       0.0       0.0       0.0      99.9       0.0
13 O  s              99.9       0.0       0.0       0.0       0.0       0.0
14 O  s               0.0      99.9       0.0       0.0       0.0       0.0
15 O  s               0.0       0.0       0.0      99.9       0.0       0.0
16 O  s               0.0       0.0       0.0       0.0       0.0      99.9

                      6         7         8         9        10        11   
                  -9.98522  -9.95202  -9.95018  -9.94338  -9.94259  -9.93140
                   2.00000   2.00000   2.00000   2.00000   2.00000   2.00000
                  --------  --------  --------  --------  --------  --------
 0 C  s               0.0       0.0       0.0       0.0       0.0      99.6
 1 C  s               0.0       0.0       0.0      99.3       0.3       0.0
 1 C  py              0.0       0.0       0.0       0.0       0.1       0.0
 3 C  s               0.0       0.0       0.0       0.3      99.2       0.0
 5 C  s               0.0       0.0      99.6       0.0       0.0       0.0
 7 C  s               0.0      99.6       0.0       0.0       0.0       0.0
 9 C  s              99.6       0.0       0.0       0.0       0.0       0.0
13 O  pz              0.0       0.1       0.0       0.0       0.0       0.0
14 O  pz              0.0       0.0       0.1       0.0       0.0       0.0

                     12        13        14        15        16        17   
                  -0.98611  -0.95804  -0.94574  -0.93342  -0.92350  -0.91060
                   2.00000   2.00000   2.00000   2.00000   2.00000   2.00000
                  --------  --------  --------  --------  --------  --------
 0 C  s               0.4       0.1       0.0       4.7       5.9       0.0
 0 C  pz              0.0       0.0       0.0       0.3       0.3       0.0
 0 C  px              0.3       0.1       0.0       0.9       3.1       1.5
 0 C  py              0.0       0.0       0.0       1.7       2.1       0.2
 0 C  dxy             0.0       0.0       0.0       0.2       0.4       0.0
 1 C  s               4.4       0.6       0.0       2.3       0.0       3.5
 1 C  pz              0.7       0.2       0.0       0.0       0.1       0.8
 1 C  px              2.1       0.4       0.1       0.3       0.8       2.4
 1 C  py              0.4       0.7       0.3       0.3       0.6       1.3
 1 C  dxz             0.1       0.0       0.0       0.0       0.0       0.1
 1 C  dxy             0.1       0.0       0.0       0.0       0.0       0.2
 2 H  s               0.6       0.0       0.0       0.4       0.0       0.3
 3 C  s               1.5       0.5       1.3       5.5       3.1       0.1
 3 C  pz              0.1       0.2       0.1       3.8       2.9       0.3
 3 C  px              0.2       0.1       0.4       0.5       0.0       0.1
 3 C  py              0.2       0.4       0.2       0.4       1.3       1.0
 3 C  dz2             0.0       0.0       0.0       0.1       0.1       0.0
 3 C  dyz             0.0       0.0       0.0       0.2       0.2       0.0
 4 H  s               0.2       0.1       0.3       0.8       0.2       0.0
 5 C  s               2.3       1.4       7.6       0.1       0.0       0.0
 5 C  pz              0.1       0.1       8.1       1.2       0.5       0.0
 5 C  px              0.0       0.1       0.0       0.9       0.5       0.0
 5 C  py              0.7       0.1       0.2       0.0       0.0       0.1
 5 C  dz2             0.0       0.0       0.6       0.1       0.0       0.0
 5 C  dyz             0.0       0.0       0.1       0.0       0.0       0.0
 6 H  s               0.3       0.3       0.9       0.0       0.0       0.0
 7 C  s               4.7       5.5       0.3       0.4       0.1       0.0
 7 C  pz              0.2       6.4       2.9       0.0       0.1       0.1
 7 C  px              0.5       0.1       0.2       0.0       0.0       0.1
 7 C  py              0.5       1.6       0.2       0.0       0.0       0.1
 7 C  dz2             0.0       0.6       0.1       0.0       0.0       0.0
 8 H  s               0.7       0.6       0.0       0.1       0.0       0.1
 9 C  s              13.2       1.9       0.8       0.4       0.0       0.6
 9 C  pz              2.2       1.9       0.1       0.2       0.0       2.0
 9 C  px              0.8       0.2       0.0       0.8       0.0      11.4
 9 C  py              0.1       1.5       0.1       0.0       0.0       0.4
 9 C  dz2             0.0       0.0       0.0       0.0       0.0       0.2
 9 C  dxz             0.0       0.0       0.0       0.1       0.0       0.8
 9 C  dx2y2           0.2       0.2       0.0       0.0       0.0       0.1
 9 C  dxy             0.0       0.0       0.0       0.0       0.0       0.1
10 H  s               1.6       0.1       0.1       0.0       0.0       0.1
11 O  s              24.3       6.8       0.7       0.8       0.0      21.0
11 O  pz              0.7       0.1       0.0       0.1       0.0       0.8
11 O  px              0.5       0.1       0.1       0.2       0.0       0.4
11 O  py              0.6       0.1       0.0       0.1       0.0       0.7
12 O  s              13.4       5.6       1.7       3.4       0.2      33.7
12 O  pz              0.1       0.0       0.0       0.0       0.0       0.0
12 O  px              1.1       0.4       0.1       0.1       0.0       0.7
12 O  py              0.5       0.1       0.0       0.1       0.0       0.8
13 O  s               7.2      42.9       7.1       1.2       1.1       0.0
13 O  pz              0.4       1.0       0.1       0.0       0.0       0.0
13 O  px              0.1       0.5       0.1       0.0       0.0       0.0
13 O  py              0.1       0.8       0.1       0.0       0.0       0.0
14 O  s               3.5       1.8      48.4       3.9       1.1       0.0
14 O  pz              0.1       0.1       0.5       0.0       0.0       0.0
14 O  px              0.1       0.0       1.5       0.1       0.0       0.0
14 O  py              0.0       0.0       0.7       0.0       0.0       0.0
15 O  s               1.1       2.0       1.7      26.7      23.1       2.8
15 O  px              0.0       0.1       0.1       0.7       0.7       0.1
15 O  py              0.1       0.1       0.1       0.8       0.6       0.1
16 O  s               0.2       0.0       0.1      20.5      35.1       2.9
16 O  pz              0.0       0.0       0.0       0.4       0.8       0.1
16 O  px              0.0       0.0       0.0       0.7       1.1       0.1
16 O  py              0.0       0.0       0.0       0.2       0.2       0.0
17 H  s               0.1       0.0       0.0       0.5       0.7       0.0
18 H  s               0.1       0.0       0.0       0.6       0.7       0.0
19 H  s               3.1       1.0       0.2       0.7       0.0       6.4
20 H  s               1.4       8.8       1.4       0.3       0.2       0.0
21 H  s               0.7       0.4       9.9       0.8       0.2       0.0
22 H  s               0.5       1.1       0.2       5.1       4.5       0.5
23 H  s               0.1       0.0       0.0       4.5       6.8       0.6

                     18        19        20        21        22        23   
                  -0.70071  -0.68988  -0.61990  -0.59176  -0.57018  -0.52972
                   2.00000   2.00000   2.00000   2.00000   2.00000   2.00000
                  --------  --------  --------  --------  --------  --------
 0 C  s               0.1       8.3      11.9       1.0       8.9       0.5
 0 C  pz              0.0       0.0       0.0       0.2       1.7       2.1
 0 C  px              0.1       5.0       0.6       0.0       1.5       1.8
 0 C  py              0.1       0.0       0.7       0.8       0.7       0.1
 0 C  dxy             0.0       0.1       0.0       0.0       0.0       0.0
 1 C  s               1.1      17.5       1.2       0.6       4.4       3.9
 1 C  pz              0.0       0.2       0.1       0.6       1.2       3.0
 1 C  px              0.0       2.3       3.5       0.1       2.5       0.1
 1 C  py              2.5       0.1       2.3       5.6       0.1       0.0
 2 H  s               0.2       2.9       0.7       0.4       2.4       3.8
 3 C  s               6.9       4.9       6.0       7.8       0.6       0.8
 3 C  pz              0.9       0.3       1.4       0.2       1.2       0.4
 3 C  px              2.5       0.3       0.8       2.6       0.1       0.2
 3 C  py              0.3       3.4       0.6       0.4       3.4       2.6
 4 H  s               1.2       1.3       1.9       3.8       0.8       1.3
 5 C  s              14.8       0.0       3.7       4.7       2.3       1.0
 5 C  pz              4.0       0.0       0.1       0.1       0.1       1.8
 5 C  px              0.0       2.1       3.8       5.6       0.8       1.0
 5 C  py              0.9       0.1       0.6       0.2       1.2       0.0
 5 C  dz2             0.1       0.0       0.0       0.0       0.0       0.0
 6 H  s               2.6       0.0       1.3       2.1       1.4       0.2
 7 C  s              13.7       3.5       5.3       0.4       2.2       1.8
 7 C  pz              2.8       0.4       0.0       1.9       0.4       3.4
 7 C  px              1.3       0.0       1.0       0.0       0.2       0.0
 7 C  py              0.1       1.0       3.1       6.7       0.1       0.0
 8 H  s               2.6       0.7       1.8       0.4       0.8       0.1
 9 C  s               1.0       6.9       3.4       6.9       2.1       2.1
 9 C  pz              0.6       0.3       2.0       2.2       0.4       0.3
 9 C  px              0.6       1.2       1.5       0.3       0.5       1.9
 9 C  py              4.2       0.4       1.4       0.3       3.2       1.7
 9 C  dxz             0.0       0.2       0.0       0.0       0.0       0.1
 9 C  dx2y2           0.2       0.0       0.1       0.0       0.0       0.0
10 H  s               0.2       1.4       1.6       3.8       0.6       2.0
11 O  s               3.0       0.9       1.3       1.6       0.2       1.5
11 O  pz              0.1       0.0       0.2       0.3       0.6       1.1
11 O  px              0.0      10.4       0.1       3.1       7.8       0.1
11 O  py              0.4       0.4       0.0       0.0       1.6       0.0
12 O  s               0.3       3.2       0.6       0.6       0.6       0.1
12 O  pz              0.2       1.8       2.3       6.5       3.3      11.3
12 O  px              0.0       0.4       0.0       0.4       1.1       0.2
12 O  py              0.1       0.0       0.1       0.0       0.1       0.1
13 O  s               3.3       0.6       0.5       0.2       0.1       0.0
13 O  pz              3.5       0.8       2.6       0.0       3.2       9.8
13 O  px              0.3       0.1       0.1       0.0       0.3       0.5
13 O  py              1.4       0.5       2.4       0.8       2.2       5.1
13 O  dz2             0.1       0.0       0.0       0.0       0.0       0.1
14 O  s               4.1       0.0       0.8       0.2       0.4       0.0
14 O  pz              4.8       0.1       1.3       6.3       1.9       8.2
14 O  px              0.5       0.1       0.0       1.9       0.0       1.6
14 O  py              0.1       0.0       0.0       0.0       0.1       0.0
15 O  s               2.9       1.5       1.2       1.0       0.0       0.0
15 O  pz              1.5       0.9       3.2       5.8       1.3       3.9
15 O  px              0.0       0.1       0.0       0.7       0.0       0.2
15 O  py              0.1       0.2       0.1       0.7       0.1       0.0
16 O  s               0.1       2.8       1.7       0.0       0.7       0.0
16 O  pz              0.0       0.7       1.9       0.2       5.7       2.5
16 O  px              0.0       0.8       1.5       0.0       2.2       0.2
16 O  py              0.0       0.5       2.3       0.4       4.7       1.1
16 O  dz2             0.0       0.0       0.1       0.0       0.1       0.0
17 H  s               0.0       1.6       3.4       0.5       2.8       0.1
18 H  s               0.0       2.0       3.3       0.5       4.3       1.0
19 H  s               0.2       1.3       0.8       2.2       1.3       3.2
20 H  s               2.4       0.6       1.5       0.1       1.7       3.9
21 H  s               2.8       0.0       0.4       2.5       0.5       2.7
22 H  s               1.3       0.6       1.1       2.3       0.3       1.2
23 H  s               0.0       1.2       2.0       0.1       3.8       1.0

                     24        25        26        27        28        29   
                  -0.50612  -0.49936  -0.47726  -0.46800  -0.44449  -0.44277
                   2.00000   2.00000   2.00000   2.00000   2.00000   2.00000
                  --------  --------  --------  --------  --------  --------
 0 C  s               0.1       0.0       0.3       0.0       0.7       1.4
 0 C  pz              0.1       0.0       5.7       0.6       0.3       1.0
 0 C  px              0.5       1.4       0.5       0.1       7.9       0.4
 0 C  py              0.2       1.0       0.9       0.0       0.9      14.0
 0 C  dxy             0.0       0.0       0.0       0.0       0.4       0.1
 1 C  s               0.1       0.0       0.4       0.3       0.1       0.7
 1 C  pz              2.4       1.2      12.6       1.9       3.4       0.0
 1 C  px              0.5       0.1       3.3       0.0       8.6       0.1
 1 C  py              0.0       7.6       0.7       0.5       0.8       3.7
 1 C  dyz             0.0       0.1       0.0       0.0       0.0       0.0
 1 C  dxy             0.1       0.1       0.0       0.0       0.2       0.1
 2 H  s               1.4       0.3       5.1       0.8       1.6       0.1
 3 C  s               0.4       0.1       0.1       0.0       0.1       0.0
 3 C  pz              0.2       0.4       4.3       0.9       2.0       0.5
 3 C  px             10.6       0.1       2.4       1.7       0.2       2.1
 3 C  py              0.7       6.3       1.6       0.5       1.2       3.7
 3 C  dxy             0.1       0.0       0.0       0.0       0.0       0.0
 4 H  s               1.9       0.1       0.2       0.7       0.6       0.0
 5 C  s               1.6       1.2       0.1       0.1       0.0       0.0
 5 C  pz              1.8       0.6       0.1      11.5       0.1       0.1
 5 C  px              3.3       0.1       3.3       0.2       0.1       3.5
 5 C  py              0.9      10.5       2.5       0.7       1.3       0.7
 5 C  dz2             0.0       0.0       0.0       0.3       0.0       0.1
 5 C  dxz             0.0       0.0       0.0       0.2       0.0       0.0
 5 C  dyz             0.0       0.0       0.0       0.1       0.0       0.0
 6 H  s               1.2       5.1       1.1       1.3       0.5       0.2
 7 C  s               2.3       0.1       0.0       1.4       0.1       0.0
 7 C  pz              4.8       1.5       0.6       4.2       0.4       1.7
 7 C  px             12.4       2.2       0.0       0.8       0.5       0.8
 7 C  py              0.0       1.3       1.8       3.9       1.0       7.9
 7 C  dz2             0.1       0.0       0.1       0.5       0.1       0.2
 8 H  s               8.6       0.6       0.0       3.3       0.2       0.3
 9 C  s               0.1       0.0       0.0       0.0       0.1       0.8
 9 C  pz              1.3       1.1       0.0       2.4       8.1       1.6
 9 C  px              0.7       6.1       5.2       0.3       0.2       0.0
 9 C  py              1.9       4.1       1.5       0.1       0.3       7.2
 9 C  dxz             0.0       0.1       0.1       0.0       0.0       0.0
10 H  s               0.8       1.2       0.0       1.1       2.4       0.2
11 O  s               0.8       1.0       0.0       0.0       0.3       0.7
11 O  pz              1.1       0.1       0.9       0.0       9.4       0.6
11 O  px              0.7      11.0       7.5       2.3       3.3       0.1
11 O  py              0.0       1.6       4.0       0.0       0.8       0.9
12 O  s               0.5       0.6       0.0       0.2       0.5       0.3
12 O  pz              0.0       8.5       4.4       0.1       1.5       4.0
12 O  px              0.0       0.3       0.2       0.4       3.6       0.4
12 O  py              0.9       0.8       0.3       0.2       0.0       2.0
13 O  s               0.5       0.2       0.0       2.5       0.1       0.0
13 O  pz              1.2       2.4       1.6       0.7       2.5       6.9
13 O  px              7.4       0.2       0.0       1.3       0.9       0.1
13 O  py              2.9       0.3       0.5      11.7       0.3       0.3
14 O  s               0.2       0.4       0.2       0.2       0.0       0.2
14 O  pz              0.7       1.2       0.4      22.9       0.0       0.3
14 O  px              1.9       1.1       1.9       3.0       0.2       1.2
14 O  py              0.6       3.1       0.3       0.5       0.5       0.3
14 O  dxz             0.0       0.0       0.0       0.1       0.0       0.0
15 O  s               0.8       0.1       0.0       0.6       0.0       0.0
15 O  pz              6.9       1.4       8.4       0.3       4.5       0.8
15 O  px              4.2       0.0       1.9       1.1       0.1       0.1
15 O  py              0.0       0.7       0.6       0.2       0.0       0.7
16 O  s               0.0       0.0       0.8       0.0       1.3       0.3
16 O  pz              0.1       2.1       2.7       0.0      11.6       8.6
16 O  px              0.0       1.0       0.1       0.1       0.3       2.5
16 O  py              0.6       1.1       0.0       0.2       4.8       0.3
17 H  s               0.2       0.1       1.6       0.0       0.9       8.2
18 H  s               0.0       0.0       0.7       0.1       0.3       0.3
19 H  s               0.0       2.5       1.1       0.1       0.5       1.4
20 H  s               2.5       0.4       0.5       2.9       0.8       1.2
21 H  s               0.6       0.9       0.3       7.2       0.0       0.2
22 H  s               3.0       0.4       3.1       0.1       1.2       0.1
23 H  s               0.1       1.2       0.5       0.0       4.4       2.8

                     30        31        32        33        34        35   
                  -0.42323  -0.39607  -0.39007  -0.37112  -0.35666  -0.34950
                   2.00000   2.00000   2.00000   2.00000   2.00000   2.00000
                  --------  --------  --------  --------  --------  --------
 0 C  s               0.0       0.1       0.2       0.2       0.2       0.0
 0 C  pz              0.1       9.8       2.7      13.3       4.6       3.2
 0 C  px              1.1       6.7       0.1       0.2       0.3       4.1
 0 C  py              2.8       3.7       3.6       4.6       2.2       3.6
 0 C  dz2             0.0       0.1       0.1       0.3       0.1       0.0
 0 C  dxz             0.0       0.0       0.0       0.0       0.0       0.2
 1 C  s               0.1       0.0       0.3       0.1       0.2       0.1
 1 C  pz              0.0       3.8       0.4       0.4       4.2       4.8
 1 C  px              2.1       1.7       0.7       1.7       2.2       2.5
 1 C  py              0.1       0.0       0.9       3.5       1.1       6.9
 1 C  dz2             0.0       0.0       0.0       0.0       0.1       0.2
 1 C  dxz             0.0       0.1       0.0       0.0       0.0       0.2
 1 C  dyz             0.1       0.0       0.0       0.0       0.1       0.0
 1 C  dx2y2           0.0       0.0       0.1       0.1       0.0       0.0
 2 H  s               0.1       1.5       0.5       0.4       4.3       4.4
 3 C  s               0.1       0.7       0.9       0.2       0.4       0.1
 3 C  pz             10.1       1.6       0.0       4.3       5.7       0.0
 3 C  px              1.4       1.3       0.2       0.6       4.8       4.8
 3 C  py              0.2       0.0       1.5       2.3       0.6       5.2
 3 C  dyz             0.2       0.1       0.0       0.0       0.1       0.0
 3 C  dx2y2           0.0       0.0       0.0       0.1       0.0       0.1
 3 C  dxy             0.1       0.0       0.0       0.0       0.2       0.0
 4 H  s               4.2       0.2       0.0       2.2       6.5       0.3
 5 C  s               0.2       0.2       0.1       0.0       0.0       0.1
 5 C  pz              2.0       2.9       0.4       2.1       0.0       0.0
 5 C  px              0.8       6.0       0.0       0.2       1.0       5.0
 5 C  py              6.4       1.3       6.5       5.7       0.2       3.7
 5 C  dxz             0.0       0.0       0.0       0.1       0.3       0.0
 5 C  dx2y2           0.0       0.2       0.2       0.0       0.0       0.1
 6 H  s               2.6       2.6       4.0       1.7       0.1       3.2
 7 C  s               0.1       0.0       0.1       0.3       0.2       0.1
 7 C  pz              0.2       1.3       0.1       0.8       0.1       0.0
 7 C  px              6.4       8.0       0.4       5.7       2.1       0.5
 7 C  py              0.8       0.1       5.8       0.9       1.2       0.1
 7 C  dx2y2           0.0       0.2       0.1       0.0       0.0       0.1
 7 C  dxy             0.1       0.0       0.0       0.0       0.0       0.0
 8 H  s               2.3       3.0       0.9       1.3       0.6       0.4
 9 C  s               0.5       1.2       0.2       0.0       0.1       0.0
 9 C  pz              4.1       3.0       9.0       1.1       2.4       0.3
 9 C  px              1.8       0.2       0.8       0.0       0.5       0.1
 9 C  py              0.1       0.2      10.5       0.3       0.2       0.1
 9 C  dxz             0.2       0.0       0.0       0.0       0.2       0.0
 9 C  dxy             0.2       0.0       0.0       0.0       0.1       0.2
10 H  s               1.8       2.4       7.2       0.8       2.3       0.0
11 O  s               0.0       0.4       0.1       0.0       1.5       0.1
11 O  pz              0.6       0.0       1.7       0.5       6.2       0.1
11 O  px              2.2       0.0       0.1       1.0       0.5       0.1
11 O  py              0.3       0.1       1.7       0.4       1.4      10.8
12 O  s               0.1       0.1       1.0       0.3       0.2       0.7
12 O  pz             10.0       1.6       1.5       0.0       1.2       0.2
12 O  px              0.3       0.1       2.4       0.7       0.4       1.8
12 O  py              0.1       0.0       8.2       0.9       0.0       0.7
13 O  s               0.3       0.1       2.1       0.1       0.0       0.0
13 O  pz              0.1       2.5       2.8       0.1       1.2       0.0
13 O  px              2.8       3.3       2.0       1.2       0.8       0.1
13 O  py              0.2       0.6       3.9       2.8       1.5       0.0
14 O  s               1.6       0.3       0.6       0.1       0.4       0.0
14 O  pz              0.5       3.5       0.0       0.8       0.0       0.6
14 O  px              1.7       2.6       0.3       0.0       1.0       2.6
14 O  py              3.1       0.1       2.9       4.1       0.3       4.4
15 O  s               0.1       0.0       0.1       0.9       1.7       0.2
15 O  pz             12.0       0.9       0.5       0.1       1.4       1.3
15 O  px              0.0       0.5       0.2       1.3       8.8       4.1
15 O  py              1.8       0.0       0.6       6.3       6.3       0.2
16 O  s               0.1       0.0       0.0       0.6       0.9       1.0
16 O  pz              0.0       0.1       0.3       0.2       2.6       4.0
16 O  px              0.9       0.0       2.7       9.4       6.1       0.1
16 O  py              0.5       8.0       0.5       2.0       1.6       5.0
17 H  s               0.9       4.4       1.1       0.3       0.2       5.1
18 H  s               0.1       4.3       2.3       8.8       2.5       1.3
19 H  s               2.4       0.7       0.3       0.0       0.7       0.2
20 H  s               0.1       0.1       0.4       0.1       0.0       0.0
21 H  s               0.1       0.2       0.2       0.1       0.3       0.0
22 H  s               2.5       0.2       0.1       0.0       0.2       0.0
23 H  s               0.0       0.5       0.5       0.5       0.1       0.1

                     36        37        38        39        40        41   
                  -0.34463  -0.32938  -0.30599  -0.30260  -0.28494  -0.27508
                   2.00000   2.00000   2.00000   2.00000   2.00000   2.00000
                  --------  --------  --------  --------  --------  --------
 0 C  s               0.2       0.0       0.3       0.3       0.1       0.1
 0 C  pz              0.1       0.1       0.8       0.2       0.9       6.4
 0 C  px              0.9       0.0       0.2       0.2       0.4       4.4
 0 C  py              1.5       0.0       0.7       0.5       0.3       0.2
 0 C  dz2             0.0       0.0       0.1       0.0       0.0       0.5
 0 C  dxz             0.0       0.0       0.0       0.0       0.1       0.1
 0 C  dyz             0.0       0.0       0.0       0.0       0.0       0.2
 1 C  s               0.2       0.4       0.1       0.5       0.1       1.0
 1 C  pz              0.8       0.1       0.0       0.1       1.3       5.2
[...]
 3 C  dxz             0.1       0.1       1.0       0.4       0.0       0.1
 3 C  dyz             0.0       0.0       2.2       3.5       0.9       0.2
 3 C  dx2y2           0.0       0.0       0.2       0.4       0.2       0.0
 3 C  dxy             0.0       0.0       0.7       0.3       0.0       0.0
 5 C  s               0.2       0.1       1.2       0.3       0.7       0.0
 5 C  pz              0.3       0.2       1.5       0.8       0.9       0.1
 5 C  py              0.0       0.0       0.0       0.1       0.2       0.0
 5 C  dz2             1.6       0.9       4.2       1.8       1.9       0.0
 5 C  dxz             0.0       0.1       1.6       0.0       0.5       0.0
 5 C  dyz             0.0       0.0       0.8       0.6       0.6       0.1
 7 C  s               1.5       0.3       0.1       0.0       0.6       0.1
 7 C  pz              1.8       0.4       0.2       0.0       1.3       0.1
 7 C  px              0.0       0.0       0.0       0.0       0.2       0.1
 7 C  dz2             7.4       1.8       0.1       0.1       2.9       0.1
 7 C  dxz             0.0       0.0       0.4       0.0       0.3       0.0
 7 C  dyz             0.6       0.0       0.3       0.2       0.5       0.0
 7 C  dx2y2           0.0       0.0       0.0       0.1       0.0       0.0
 7 C  dxy             0.0       0.0       0.0       0.0       0.0       0.1
 9 C  s               1.3       0.3       0.2       0.4       1.0       0.1
 9 C  pz              0.4       0.3       0.1       0.3       0.4       0.1
 9 C  px              0.1       0.0       0.0       0.5       0.1       3.0
 9 C  py              0.1       0.1       0.0       0.1       0.2       0.0
 9 C  dz2             0.0       0.1       0.1       0.1       0.0       1.7
 9 C  dxz             0.8       0.0       0.5       2.1       2.6       3.2
 9 C  dyz             1.1       0.1       0.0       0.1       0.0       0.9
 9 C  dx2y2           0.2       0.4       0.2       0.1       1.6       2.4
 9 C  dxy             0.3       0.0       0.4       1.2       0.8       0.7
11 O  s               0.0       0.2       0.2       0.6       0.3       0.1
11 O  px              0.1       0.0       0.1       0.0       0.7       5.5
11 O  py              0.0       0.0       0.0       0.0       0.0       0.4
11 O  dz2             0.0       0.5       0.5       2.4       0.9       0.7
11 O  dxz             1.8       0.0       2.4       0.1       6.2      21.2
11 O  dyz             0.0       0.1       0.0       0.0       0.4       3.1
11 O  dx2y2           0.0       2.2       1.1       1.0       2.0       8.3
11 O  dxy             0.9       0.0       1.0       1.5       7.1      16.9
12 O  s               0.5       0.4       0.1       1.1       1.4       1.1
12 O  pz              0.9       0.2       0.2       0.6       0.7       0.5
12 O  px              0.2       0.0       0.0       0.2       0.2       0.4
12 O  py              0.0       0.0       0.0       0.1       0.2       0.0
12 O  dz2             0.7       0.0       0.9       1.0       1.8       0.0
12 O  dxz             9.5       1.8       1.5       7.0       5.1       7.7
12 O  dyz             3.4       1.2       0.9       3.0       4.7       1.0
12 O  dx2y2           1.2       0.1       0.0       0.4       0.2       2.8
12 O  dxy             0.7       0.8       0.2       2.0       3.0       1.6
13 O  s               2.2       0.6       0.2       0.0       2.1       0.2
13 O  pz              2.3       0.5       0.1       0.0       1.2       0.0
13 O  py              0.5       0.2       0.0       0.0       0.2       0.0
13 O  dz2            34.3       6.9       1.7       0.0      13.4       0.3
13 O  dxz             2.0       0.4       0.1       0.1       0.0       0.0
13 O  dyz             2.4       1.2       0.0       0.5       1.0       0.4
13 O  dxy             0.5       0.2       0.0       0.0       0.0       0.0
14 O  s               0.4       0.2       1.9       1.2       1.8       0.1
14 O  pz              0.5       0.3       2.1       0.9       1.3       0.1
14 O  dz2             3.4       2.6      23.7       7.8      11.5       0.5
14 O  dxz             1.8       0.6       1.2       2.9       1.0       0.1
14 O  dyz             1.7       1.1       4.4       0.6       0.5       0.0
14 O  dx2y2           0.1       0.0       0.3       0.1       0.0       0.0
15 O  s               0.0       0.0       1.2       3.6       0.3       0.3
15 O  pz              0.0       0.0       1.5       2.1       0.2       0.1
15 O  py              0.0       0.0       0.3       0.5       0.0       0.0
15 O  dz2             0.1       0.0       5.6       5.7       1.1       0.2
15 O  dxz             0.0       0.0       2.0       5.3       1.1       0.1
15 O  dyz             0.0       0.4      15.6      20.2       0.9       1.2
15 O  dx2y2           0.0       0.3       2.5       1.5       0.1       0.1
15 O  dxy             0.0       0.0       0.2       1.9       0.4       0.0
16 O  s               0.3       2.7       0.1       0.2       0.2       0.0
16 O  pz              0.1       0.6       0.0       0.0       0.0       0.0
16 O  px              0.1       1.3       0.0       0.1       0.1       0.0
16 O  py              0.2       1.3       0.1       0.0       0.0       0.0
16 O  dz2             1.6      13.9       0.8       0.5       0.4       0.0
16 O  dxz             0.3       2.7       0.1       0.1       0.1       0.0
16 O  dyz             0.1       1.0       0.0       0.1       0.0       0.0
16 O  dx2y2           0.0       0.8       0.0       0.1       0.2       0.7
16 O  dxy             3.8      31.8       2.1       0.8       1.2       0.1
19 H  s               0.2       0.1       0.0       0.1       0.1       0.1
20 H  s               0.5       0.1       0.0       0.0       0.1       0.0
21 H  s               0.1       0.1       0.3       0.1       0.1       0.0
22 H  s               0.0       0.0       0.3       0.4       0.0       0.0
23 H  s               0.1       0.6       0.0       0.0       0.0       0.0



                      *****************************
                      * MAYER POPULATION ANALYSIS *
                      *****************************

  NA   - Mulliken gross atomic population
  ZA   - Total nuclear charge
  QA   - Mulliken gross atomic charge
  VA   - Mayer's total valence
  BVA  - Mayer's bonded valence
  FA   - Mayer's free valence

  ATOM       NA         ZA         QA         VA         BVA        FA
  0 C      5.9197     6.0000     0.0803     3.9591     3.9591    -0.0000
  1 C      6.0146     6.0000    -0.0146     4.0673     4.0673    -0.0000
  2 H      0.9473     1.0000     0.0527     0.9823     0.9823    -0.0000
  3 C      5.9644     6.0000     0.0356     3.9408     3.9408    -0.0000
  4 H      0.9298     1.0000     0.0702     0.9935     0.9935    -0.0000
  5 C      5.9370     6.0000     0.0630     4.0294     4.0294     0.0000
  6 H      0.9396     1.0000     0.0604     0.9726     0.9726     0.0000
  7 C      6.0529     6.0000    -0.0529     3.9466     3.9466    -0.0000
  8 H      0.9098     1.0000     0.0902     0.9780     0.9780    -0.0000
  9 C      5.7602     6.0000     0.2398     4.0848     4.0848     0.0000
 10 H      0.9325     1.0000     0.0675     0.9765     0.9765    -0.0000
 11 O      8.2905     8.0000    -0.2905     2.1575     2.1575    -0.0000
 12 O      8.3918     8.0000    -0.3918     2.0536     2.0536    -0.0000
 13 O      8.4150     8.0000    -0.4150     2.0369     2.0369    -0.0000
 14 O      8.4172     8.0000    -0.4172     2.0131     2.0131    -0.0000
 15 O      8.4348     8.0000    -0.4348     2.0049     2.0049     0.0000
 16 O      8.4265     8.0000    -0.4265     2.0368     2.0368     0.0000
 17 H      0.9163     1.0000     0.0837     0.9495     0.9495    -0.0000
 18 H      0.9138     1.0000     0.0862     0.9709     0.9709    -0.0000
 19 H      0.6983     1.0000     0.3017     0.9212     0.9212     0.0000
 20 H      0.6855     1.0000     0.3145     0.8742     0.8742    -0.0000
 21 H      0.6920     1.0000     0.3080     0.8860     0.8860    -0.0000
 22 H      0.7110     1.0000     0.2890     0.9431     0.9431     0.0000
 23 H      0.6996     1.0000     0.3004     0.8943     0.8943    -0.0000

  Mayer bond orders larger than 0.100000
B(  0-C ,  1-C ) :   1.0469 B(  0-C , 16-O ) :   1.0769 B(  0-C , 17-H ) :   0.9217 
B(  0-C , 18-H ) :   0.9132 B(  1-C ,  2-H ) :   0.8767 B(  1-C ,  3-C ) :   0.9669 
B(  1-C , 11-O ) :   1.0405 B(  3-C ,  4-H ) :   0.8882 B(  3-C ,  5-C ) :   0.9751 
B(  3-C , 15-O ) :   1.0152 B(  5-C ,  6-H ) :   0.8959 B(  5-C ,  7-C ) :   1.0043 
B(  5-C , 14-O ) :   1.0459 B(  7-C ,  8-H ) :   0.9047 B(  7-C ,  9-C ) :   0.9480 
B(  7-C , 13-O ) :   1.0340 B(  9-C , 10-H ) :   0.8994 B(  9-C , 11-O ) :   1.0241 
B(  9-C , 12-O ) :   1.1427 B( 12-O , 19-H ) :   0.8329 B( 13-O , 20-H ) :   0.8394 
B( 14-O , 21-H ) :   0.8415 B( 15-O , 22-H ) :   0.8178 B( 16-O , 23-H ) :   0.8409 


-------
TIMINGS
-------

Total SCF time: 0 days 0 hours 0 min 6 sec 

Total time                  ....       6.451 sec
Sum of individual times     ....       6.419 sec  ( 99.5%)

SCF preparation             ....       0.239 sec  (  3.7%)
Fock matrix formation       ....       5.968 sec  ( 92.5%)
  Startup                   ....       0.008 sec  (  0.1% of F)
  Split-RI-J                ....       3.054 sec  ( 51.2% of F)
  XC integration            ....       2.775 sec  ( 46.5% of F)
    Basis function eval.    ....       1.089 sec  ( 39.2% of XC)
    Density eval.           ....       0.600 sec  ( 21.6% of XC)
    XC-Functional eval.     ....       0.160 sec  (  5.8% of XC)
    XC-Potential eval.      ....       0.619 sec  ( 22.3% of XC)
Diagonalization             ....       0.000 sec  (  0.0%)
Density matrix formation    ....       0.029 sec  (  0.5%)
Total Energy calculation    ....       0.002 sec  (  0.0%)
Population analysis         ....       0.062 sec  (  1.0%)
Orbital Transformation      ....       0.018 sec  (  0.3%)
Orbital Orthonormalization  ....       0.000 sec  (  0.0%)
DIIS solution               ....       0.079 sec  (  1.2%)
  MO trafo                  ....       0.000 sec  (  0.0 % of DIIS)
  Orb grad                  ....       0.000 sec  (  0.0 % of DIIS)
  Energy W gradient         ....       0.000 sec  (  0.0 % of DIIS)
  DIIS error                ....       0.006 sec  (  7.4 % of DIIS)
  DIIS work                 ....       0.064 sec  ( 80.2 % of DIIS)
  Form Q                    ....       0.000 sec  (  0.0 % of DIIS)
  Form QpQm                 ....       0.000 sec  (  0.0 % of DIIS)
  Exp/Cayley                ....       0.000 sec  (  0.0 % of DIIS)
  Orb update                ....       0.000 sec  (  0.0 % of DIIS)
  Wake-sleep                ....       0.001 sec  (  1.5 % of DIIS)
SOSCF solution              ....       0.022 sec  (  0.3%)
  MO trafo                  ....       0.013 sec  ( 60.4 % of SOSCF)
  Orb grad                  ....       0.000 sec  (  0.9 % of SOSCF)
  Rot update                ....       0.002 sec  (  8.2 % of SOSCF)
  Step                      ....       0.007 sec  ( 30.3 % of SOSCF)
Finished LeanSCF after   6.5 sec

Maximum memory used throughout the entire LEANSCF-calculation: 19.0 MB


-------------------------------------------------------------------------------
                          DFT DISPERSION CORRECTION                            
                                                                               
                                DFTD4 V3.4.0                                   
-------------------------------------------------------------------------------
The PBE functional is recognized
Active option DFTDOPT                   ...         5   

-------------------------   ----------------
Dispersion correction           -0.025206588
-------------------------   ----------------

------------------   -----------------
gCP correction             0.157481545
------------------   -----------------

-------------------------   --------------------
FINAL SINGLE POINT ENERGY      -685.689888525411
-------------------------   --------------------


------------------------------------------------------------------------------
                              ORCA PROPERTY CALCULATIONS
------------------------------------------------------------------------------

GBWName                                 ... sp.gbw
Number of atoms                         ...     24
Number of basis functions               ...    192
Max core memory                         ...   1024 MB

Electric properties:
Dipole moment                           ... YES
Quadrupole moment                       ...  NO
Static polarizability (Dipole/Dipole)   ...  NO
Static polarizability (Dipole/Quad.)    ...  NO
Static polarizability (Quad./Quad.)     ...  NO
Static polarizability (Velocity)        ...  NO

Atomic electric properties:
Dipole moment                           ...  NO
Quadrupole moment                       ...  NO
Static polarizability                   ...  NO

Choice of electric origin               ... Center of mass
Position of electric origin             ...    -0.000003     0.000001     0.000002

General magnetic properties:
Magnetizability                         ...  NO

EPR properties:
g-Tensor (aka g-matrix)                 ...  NO
Zero-Field splitting spin-orbit         ...  NO
Zero-field splitting spin-spin          ...  NO
Hyperfine couplings                     ...  NO (   0 nuclei)
Quadrupole couplings                    ...  NO (   0 nuclei)
Contact density                         ...  NO (   0 nuclei)

NMR properties:
Chemical shifts                         ...  NO (   0 nuclei)
Spin-rotation constants                 ...  NO (   0 nuclei)
Spin-spin couplings                     ...  NO (   0 nuclei,    0 pairs)

Choice of magnetic origin               ... GIAO
Position of magnetic origin             ...     0.000000     0.000000     0.000000

Properties with geometric perturbations:
SCF Hessian                             ...  NO
IR spectrum                             ...  NO
VCD spectrum                            ...  NO
X-ray spectroscopy properties:
SCF XES/XAS/RIXS spectra                ...  NO


-------------
DIPOLE MOMENT
-------------

Method             : SCF
Type of density    : Electron Density
Multiplicity       :   1
Irrep              :   0
Energy             :  -685.8221634826786612 Eh
Relativity type    : 
Basis              : AO
                                X                 Y                 Z
Electronic contribution:      1.833820243      -0.441861220      -0.649966499
Nuclear contribution   :     -1.375377648       1.355481128       1.031434327
                        -----------------------------------------
Total Dipole Moment    :      0.458442595       0.913619909       0.381467828
                        -----------------------------------------
Magnitude (a.u.)       :      1.091049337
Magnitude (Debye)      :      2.773227022



--------------------
Rotational spectrum 
--------------------
 
Rotational constants in cm-1:             0.043696             0.025933             0.022111 
Rotational constants in MHz :          1309.967592           777.464965           662.868116 

Dipole components along the rotational axes: 
x,y,z [a.u.] :     0.356474     1.027909    -0.081958 
x,y,z [Debye]:     0.906086     2.612738    -0.208321 

 

Dipole moment calculation done in   0.0 sec 

Maximum memory used throughout the entire PROP-calculation: 12.7 MB

--------------------------------
SUGGESTED CITATIONS FOR THIS RUN
--------------------------------

Below you find a list of papers that are relevant to this ORCA run
We neither can nor want to force you to cite these papers, but we appreciate if you do
You receive ORCA, which is the product of decades of hard work by many enthusiastic individuals, for free
The only thing we kindly ask in return is that you cite our papers,
We deeply appreciate it, if you show your appreciation for ORCA by not just citing the generic ORCA reference.

Please note that relegating all ORCA citations to the supporting information does *not* help us.
SI sections are not indexed - citations you put there will not count into any citation statistics
But we need these citations in order to attract the funding resources that allow us to do what we are doing

Therefore, if you are a happy ORCA user, please consider citing a few of the papers listed below in the main body of your paper

In addition to the list printed below, the program has created the file sp.bibtex that contains the list in bibtex format
You can import this file easily into all common literature databanks and citation aid programs


List of essential papers. We consider these as the minimum necessary citations

  1. Neese,F.
     Software update: the ORCA program system, version 5.0
     WIRES Comput. Molec. Sci., 2022 12(1)e1606
     doi.org/10.1002/wcms.1606

List of papers to cite with high priority. The work reported in these papers was absolutely
necessary for this run to complete.
Our perspective: the developers of density functionals and basis sets usually get cited in chemistry papers
Good! But without the algorithms to do something with them, the functionals or basis sets would not do anything.
Hence, in our opinion, the algorithm design and method developments papers are equally worthy of getting cited

  1. Neese,F.
     An improvement of the resolution of the identity approximation for the formation of the Coulomb matrix
     J. Comp. Chem., 2003 24(14)1740-1747
     doi.org/10.1002/jcc.10318
  2. Neese,F.
     The SHARK Integral Generation and Digestion System
     J. Comp. Chem., 2022  1-16
     doi.org/10.1002/jcc.26942
  3. Caldeweyher,E.; Bannwarth,C.; Grimme,S.
     Extension of the D3 dispersion coefficient model
     J. Chem. Phys., 2017 147 034112
     doi.org/10.1063/1.4993215
  4. Caldeweyher,E.; Ehlert,S.; Hansen,A.; Neugebauer,H.; Spicher,S.; Bannwarth,C.; Grimme,S.
     A generally applicable atomic-charge dependent London dispersion correction
     J. Chem. Phys., 2019 150 154122
     doi.org/10.1063/1.5090222
  5. Caldeweyher,E.; Mewes,J.; Ehlert,S.; Grimme,S.
     Extension and evaluation of the D4 London-dispersion model for periodic systems
     Phys. Chem. Chem. Phys., 2020 22(16)8499-8512
     doi.org/10.1039/D0CP00502A
  6. Wittmann,L.; Gordiy,I.; Friede,M.; Helmich-Paris,B.; Grimme,S.; Hansen,A.; Bursch,M.
     Extension of the D3 and D4 London Dispersion Corrections to the full Actinides Series
     Phys. Chem. Chem. Phys., 2024 26(32)21379-21394
     doi.org/https://doi.org/10.1039/D4CP01514B 

List of suggested additional citations. These are papers that are important in the 'surrounding' of 
of this run, or papers that preceded the highly important papers. If you like your results we are grateful for a citation.

  1. Neese,F.
     The ORCA program system
     WIRES Comput. Molec. Sci., 2012 2(1)73-78
     doi.org/10.1002/wcms.81
  2. Neese,F.
     Software update: the ORCA program system, version 4.0
     WIRES Comput. Molec. Sci., 2018 8(1)1-6
     doi.org/10.1002/wcms.1327
  3. Neese,F.; Wennmohs,F.; Becker,U.; Riplinger,C.
     The ORCA quantum chemistry program package
     J. Chem. Phys., 2020 152 Art. No. L224108
     doi.org/10.1063/5.0004608

List of optional additional citations

  1. Neese,F.
     Approximate second-order SCF convergence for spin unrestricted wavefunctions
     Chem. Phys. Lett., 2000 325(1-3)93-98
     doi.org/10.1016/s0009-2614(00)00662-x

Timings for individual modules:

Sum of individual times          ...        8.164 sec (=   0.136 min)
Startup calculation              ...        0.835 sec (=   0.014 min)  10.2 %
SCF iterations                   ...        7.262 sec (=   0.121 min)  88.9 %
Property calculations            ...        0.067 sec (=   0.001 min)   0.8 %
                             ****ORCA TERMINATED NORMALLY****
TOTAL RUN TIME: 0 days 0 hours 0 minutes 9 seconds 601 msec
