
                                 *****************
                                 * O   R   C   A *
                                 *****************

                                            #,                                       
                                            ###                                      
                                            ####                                     
                                            #####                                    
                                            ######                                   
                                           ########,                                 
                                     ,,################,,,,,                         
                               ,,#################################,,                 
                          ,,##########################################,,             
                       ,#########################################, ''#####,          
                    ,#############################################,,   '####,        
                  ,##################################################,,,,####,       
                ,###########''''           ''''###############################       
              ,#####''   ,,,,##########,,,,          '''####'''          '####       
            ,##' ,,,,###########################,,,                        '##       
           ' ,,###''''                  '''############,,,                           
         ,,##''                                '''############,,,,        ,,,,,,###''
      ,#''                                            '''#######################'''  
     '                                                          ''''####''''         
             ,#######,   #######,   ,#######,      ##                                
            ,#'     '#,  ##    ##  ,#'     '#,    #''#        ,####,   ,####,        
            ##       ##  ##   ,#'  ##            #'  '#       #'       #'  '#        
            ##       ##  #######   ##           ,######,      #####,   #    #        
            '#,     ,#'  ##    ##  '#,     ,#' ,#      #,     #,   #   #,  ,#        
             '#######'   ##     ##  '#######'  #'      '#     '####' # '####'        



                #########################################################
                #                        -***-                          #
                #          Department of theory and spectroscopy        #
                #                                                       #
                #                      Frank Neese                      #
                #                                                       #
                #     Directorship, Architecture, Infrastructure        #
                #                    SHARK, DRIVERS                     #
                #        Core code/Algorithms in most modules           #
                #                                                       #
                #        Max Planck Institute fuer Kohlenforschung      #
                #                Kaiser Wilhelm Platz 1                 #
                #                 D-45470 Muelheim/Ruhr                 #
                #                      Germany                          #
                #                                                       #
                #                  All rights reserved                  #
                #                        -***-                          #
                #########################################################


                         Program Version 6.0.1  -  RELEASE   -


 With contributions from (in alphabetic order):
[Max-Planck-Institut fuer Kohlenforschung]                               
  Daniel Aravena         : Magnetic Suceptibility                        
  Michael Atanasov       : Ab Initio Ligand Field Theory (pilot matlab implementation)
  Alexander A. Auer      : GIAO ZORA, VPT2 properties, NMR spectrum      
  Ute Becker             : All parallelization in ORCA, NUMFREQ, NUMCALC 
  Giovanni Bistoni       : ED, misc. LED, open-shell LED, HFLD           
  Martin Brehm           : Molecular dynamics                            
  Dmytro Bykov           : pre 5.0 version of the SCF Hessian            
  Marcos Casanova-Páez   : Triplet and SCS-CIS(D). UHF-(DLPNO)-IP/EA/STEOM-CCSD. UHF-CVS-IP/STEOM-CCSD   
  Vijay G. Chilkuri      : MRCI spin determinant printing, contributions to CSF-ICE 
  Pauline Colinet        : FMM embedding                                 
  Dipayan Datta          : RHF DLPNO-CCSD density                        
  Achintya Kumar Dutta   : EOM-CC, STEOM-CC                              
  Nicolas Foglia         : Exact transition moments, OPA infrastructure, MCD improvements    
  Dmitry Ganyushin       : Spin-Orbit,Spin-Spin,Magnetic field MRCI      
  Miquel Garcia-Rates    : C-PCM and meta-GGA Hessian, CCSD/C-PCM, Gaussian charge scheme 
  Tiago L. C. Gouveia    : GS-ROHF, GS-ROCIS                             
  Yang Guo               : DLPNO-NEVPT2, F12-NEVPT2, CIM, IAO-localization        
  Andreas Hansen         : Spin unrestricted coupled pair/coupled cluster methods 
  Ingolf Harden          : AUTO-CI MPn and infrastructure                
  Benjamin Helmich-Paris : MC-RPA, TRAH-(SCF,CASSCF), AVAS, COSX integrals, SCF dyn. polar. 
  Lee Huntington         : MR-EOM, pCC                                   
  Robert Izsak           : Overlap fitted RIJCOSX, COSX-SCS-MP3, EOM     
  Riya Kayal             : Wick's Theorem for AUTO-CI, AUTO-CI UHF-CCSDT 
  Emily Kempfer          : AUTO-CI, RHF CISDT and CCSDT                  
  Christian Kollmar      : KDIIS, OOCD, Brueckner-CCSD(T), CCSD density, CASPT2, CASPT2-K, improved NEVPT2 
  Axel Koslowski         : Symmetry handling                             
  Simone Kossmann        : meta-GGA functionals, TD-DFT gradient, OOMP2, (MP2 Hessian; deprecated post 5.0) 
  Lucas Lang             : DCDCAS                                        
  Marvin Lechner         : AUTO-CI (C++ implementation), FIC-MRCC        
  Spencer Leger          : CASSCF response                               
  Dagmar Lenk            : GEPOL surface, SMD, ORCA-2-JSON               
  Dimitrios Liakos       : Extrapolation schemes; Compound Job, initial MDCI parallelization 
  Dimitrios Manganas     : Further ROCIS development; embedding schemes. LFT, Crystal Embedding 
  Dimitrios Pantazis     : SARC Basis sets                               
  Anastasios Papadopoulos: AUTO-CI, single reference methods and gradients 
  Taras Petrenko         : pre 6.0 DFT Hessian and TD-DFT gradient, (ASA, deprecated), ECA, 1-Electron XAS/XES, NRVS 
  Peter Pinski           : DLPNO-MP2, DLPNO-MP2 Gradient                 
  Christoph Reimann      : Effective Core Potentials                     
  Marius Retegan         : Local ZFS, SOC                                
  Christoph Riplinger    : Optimizer, TS searches, QM/MM, DLPNO-CCSD(T), (RO)-DLPNO pert. Triples 
  Michael Roemelt        : Original ROCIS implementation                 
  Masaaki Saitow         : Open-shell DLPNO-CCSD energy and density      
  Barbara Sandhoefer     : DKH picture change effects                    
  Kantharuban Sivalingam : CASSCF convergence/infrastructure, NEVPT2 and variants, FIC-MRCI 
  Bernardo de Souza      : ESD, SOC TD-DFT                               
  Georgi L. Stoychev     : AutoAux, RI-MP2 NMR, DLPNO-MP2 response, X2C  
  Van Anh Tran           : RI-MP2 g-tensors                              
  Willem Van den Heuvel  : Paramagnetic NMR                              
  Zikuan Wang            : NOTCH, Electric field optimization            
  Frank Wennmohs         : Technical directorship and infrastructure     
  Hang Xu                : AUTO-CI-Response properties                   
                                                                         
[FACCTs GmbH]                                                            
  Markus Bursch, Miquel Garcia-Rates, Christoph Riplinger, Bernardo de Souza, Georgi L. Stoychev 
                                                                 
  APM, Basis sets (HGBS, AHGBS, def-TZVP (Ac-Lr), def2-XVPD (La-Lu)), CI-OPT, improved COSX, DLPNO-Multilevel,           
  DOCKER, DRACO, updates on ESD, GOAT, IRC, LR-CPCM, MBIS, meta-GGA TD-DFT gradient, ML-optimized integration grids, 
  MM, NACMEs, nearIR, NEB, NEB-TS, NL-DFT gradient (VV10), 2- and 3-layer-ONIOM, interface openCOSMO-RS, QMMM,   
  Crystal-QMMM, SF, symmetry and pop. for TD-DFT, r2SCAN hybrids, SOLVATOR                                   
                                                                         
[Other institutions]                                                     
  V. Asgeirsson          : NEB                                           
  Christoph Bannwarth    : sTDA-DFT, sTD-DFT, PBEh-3c, B97-3c, D3        
  Sebastian Ehlert       : rSCAN, r2SCAN, r2SCAN-3c, D4, dhf basis sets  
  Marvin Friede          : D4 for Fr, Ra, Ac-Lr                          
  Lars Goerigk           : TD-DFT with DH, B97 family of functionals     
  Stefan Grimme          : VdW corrections, initial TS optimization, DFT functionals, gCP, sTDA/sTD-DF 
  Waldemar Hujo          : DFT-NL                                        
  H. Jonsson             : NEB                                           
  Holger Kruse           : gCP                                           
  Marcel Mueller         : wB97X-3c, vDZP basis set                      
  Hagen Neugebauer       : wr2SCAN                                       
  Tobias Risthaus        : range-separated hybrid DFT                    
  Lukas Wittmann         : regularized MP2, r2SCAN double-hybrids, wr2SCAN        
                                                                         
We gratefully acknowledge several colleagues who have allowed us to      
interface, adapt or use parts of their codes:                            
  Ed Valeev, F. Pavosevic, A. Kumar             : LibInt (2-el integral package), F12 methods 
  Garnet Chan, S. Sharma, J. Yang, R. Olivares  : DMRG                   
  Ulf Ekstrom                                   : XCFun DFT Library      
  Mihaly Kallay                                 : mrcc  (arbitrary order and MRCC methods)
  Frank Weinhold                                : gennbo (NPA and NBO analysis)           
  Simon Mueller                                 : openCOSMO-RS                            
  Christopher J. Cramer and Donald G. Truhlar   : smd solvation model                     
  S Lehtola, MJT Oliveira, MAL Marques          : LibXC Library                           
  Liviu Ungur et al                             : ANISO software                          


 Your calculation uses the libint2 library for the computation of 2-el integrals
 For citations please refer to: http://libint.valeyev.net

 Your ORCA version has been built with support for libXC version: 6.2.2
 For citations please refer to: https://libxc.gitlab.io

 This ORCA versions uses:
   CBLAS   interface :  Fast vector & matrix operations
   LAPACKE interface :  Fast linear algebra routines
   SCALAPACK package :  Parallel linear algebra routines
   Shared memory     :  Shared parallel matrices
   BLAS/LAPACK       :  OpenBLAS 0.3.27  USE64BITINT DYNAMIC_ARCH NO_AFFINITY Zen SINGLE_THREADED
        Core in use  :  Zen
   Copyright (c) 2011-2014, The OpenBLAS Project


Your calculation utilizes the geometrical counterpoise correction gCP
Please cite in your paper:
H.Kruse, S. Grimme J.Chem.Phys., 136, (2012), 154101 
   

Your calculation utilizes the atom-pairwise dispersion correction
based on EEQ partial charges (D4)


================================================================================

----- Orbital basis set information -----
Your calculation utilizes the basis: def2-mTZVPP
   Stefan Grimme, Andreas Hansen, Sebastian Ehlert, and Jan-Michael Mewes 
   J. Chem. Phys. 154, 064103 (2021). DOI: 10.1063/5.0040021

----- AuxJ basis set information -----
Your calculation utilizes the auxiliary basis: def2/J
   F. Weigend, Phys. Chem. Chem. Phys. 8, 1057 (2006).

================================================================================
                                        WARNINGS
                       Please study these warnings very carefully!
================================================================================



WARNING: SCAN, rSCAN, or r2SCAN functional requested.
  ===> : libXC variant has now been activated.



================================================================================
                                       INPUT FILE
================================================================================
NAME = sp.inp
|  1> ! r2scan-3c def2/J RI DEFGRID2 scfconv6 printgap
|  2> %output
|  3>     printlevel normal
|  4> end
|  5> * xyz 0 1
|  6> C -2.5639633558 0.9671546648 4.76007e-05
|  7> C -1.2338700961 0.2813220135 -9.63567e-05
|  8> C -1.1498544891 -1.1097279626 -2.01954e-05
|  9> C 0.1002408389 -1.6988427748 0.0001202077
| 10> N 1.2324885413 -1.0145436825 -5.93086e-05
| 11> C 1.1694343392 0.3089432257 -0.0001630549
| 12> C -0.0443670088 0.9928958643 -4.30523e-05
| 13> C 2.4715953107 1.0480549475 4.19487e-05
| 14> H -3.1342625925 0.6808923407 0.8829955335
| 15> H -2.4467387044 2.0478644707 -0.0057877383
| 16> H -3.1394189532 0.6716706788 -0.8764033564
| 17> H -2.0447936324 -1.7135014416 -7.52566e-05
| 18> H 0.2103299403 -2.7759334997 8.96159e-05
| 19> H -0.0518751208 2.073520147 -3.28944e-05
| 20> H 2.5422672813 1.6910664179 -0.8757578861
| 21> H 2.5504100803 1.6748906326 0.8868624475
| 22> H 3.2917133205 0.3366236722 -0.0097208175
| 23> *
| 24> 
| 25>                          ****END OF INPUT****
================================================================================

                       ****************************
                       * Single Point Calculation *
                       ****************************

---------------------------------
CARTESIAN COORDINATES (ANGSTROEM)
---------------------------------
  C     -2.563963    0.967155    0.000048
  C     -1.233870    0.281322   -0.000096
  C     -1.149854   -1.109728   -0.000020
  C      0.100241   -1.698843    0.000120
  N      1.232489   -1.014544   -0.000059
  C      1.169434    0.308943   -0.000163
  C     -0.044367    0.992896   -0.000043
  C      2.471595    1.048055    0.000042
  H     -3.134263    0.680892    0.882996
  H     -2.446739    2.047864   -0.005788
  H     -3.139419    0.671671   -0.876403
  H     -2.044794   -1.713501   -0.000075
  H      0.210330   -2.775933    0.000090
  H     -0.051875    2.073520   -0.000033
  H      2.542267    1.691066   -0.875758
  H      2.550410    1.674891    0.886862
  H      3.291713    0.336624   -0.009721

----------------------------
CARTESIAN COORDINATES (A.U.)
----------------------------
  NO LB      ZA    FRAG     MASS         X           Y           Z
   0 C     6.0000    0    12.011   -4.845189    1.827657    0.000090
   1 C     6.0000    0    12.011   -2.331677    0.531622   -0.000182
   2 C     6.0000    0    12.011   -2.172910   -2.097082   -0.000038
   3 C     6.0000    0    12.011    0.189428   -3.210348    0.000227
   4 N     7.0000    0    14.007    2.329066   -1.917210   -0.000112
   5 C     6.0000    0    12.011    2.209911    0.583818   -0.000308
   6 C     6.0000    0    12.011   -0.083841    1.876301   -0.000081
   7 C     6.0000    0    12.011    4.670638    1.980537    0.000079
   8 H     1.0000    0     1.008   -5.922898    1.286700    1.668620
   9 H     1.0000    0     1.008   -4.623666    3.869903   -0.010937
  10 H     1.0000    0     1.008   -5.932642    1.269274   -1.656162
  11 H     1.0000    0     1.008   -3.864100   -3.238048   -0.000142
  12 H     1.0000    0     1.008    0.397466   -5.245754    0.000169
  13 H     1.0000    0     1.008   -0.098030    3.918385   -0.000062
  14 H     1.0000    0     1.008    4.804189    3.195652   -1.654943
  15 H     1.0000    0     1.008    4.819577    3.165085    1.675927
  16 H     1.0000    0     1.008    6.220437    0.636127   -0.018370

--------------------------------
INTERNAL COORDINATES (ANGSTROEM)
--------------------------------
 C      0   0   0     0.000000000000     0.00000000     0.00000000
 C      1   0   0     1.496500760378     0.00000000     0.00000000
 C      2   1   0     1.393584824841   120.73318510     0.00000000
 C      3   2   1     1.381953186889   118.68874447   180.01319603
 N      4   3   2     1.322970196013   123.61996276     0.00000000
 C      5   4   3     1.324988090264   118.41995055     0.00000000
 C      2   1   3     1.386093410517   121.83479489   180.01293533
 C      6   5   4     1.497300696262   116.85176395   179.98252381
 H      1   2   3     1.089396341841   110.17815563    59.69977823
 H      1   2   3     1.087064558637   111.08585333   180.32484126
 H      1   2   3     1.089323740108   110.19006826   300.97897145
 H      3   2   1     1.079564026441   120.54938398     0.00000000
 H      4   3   2     1.082702193980   121.06835194   180.00578115
 H      7   2   1     1.080650365386   120.49024731     0.00000000
 H      8   6   5     1.088799168410   110.35655001   120.91560235
 H      8   6   5     1.088845875739   110.31849038   240.28792452
 H      8   6   5     1.085736303656   109.47889266     0.55825516

---------------------------
INTERNAL COORDINATES (A.U.)
---------------------------
 C      0   0   0     0.000000000000     0.00000000     0.00000000
 C      1   0   0     2.827976596320     0.00000000     0.00000000
 C      2   1   0     2.633493663339   120.73318510     0.00000000
 C      3   2   1     2.611513053121   118.68874447   180.01319603
 N      4   3   2     2.500051353805   123.61996276     0.00000000
 C      5   4   3     2.503864621307   118.41995055     0.00000000
 C      2   1   3     2.619336941911   121.83479489   180.01293533
 C      6   5   4     2.829488256065   116.85176395   179.98252381
 H      1   2   3     2.058660737374   110.17815563    59.69977823
 H      1   2   3     2.054254305717   111.08585333   180.32484126
 H      1   2   3     2.058523539983   110.19006826   300.97897145
 H      3   2   1     2.040080354007   120.54938398     0.00000000
 H      4   3   2     2.046010631217   121.06835194   180.00578115
 H      7   2   1     2.042133237102   120.49024731     0.00000000
 H      8   6   5     2.057532243136   110.35655001   120.91560235
 H      8   6   5     2.057620507196   110.31849038   240.28792452
 H      8   6   5     2.051744267566   109.47889266     0.55825516

---------------------
BASIS SET INFORMATION
---------------------
There are 3 groups of distinct atoms

 Group   1 Type C   : 11s6p1d contracted to 5s3p1d pattern {62111/411/1}
 Group   2 Type N   : 11s6p2d contracted to 5s3p2d pattern {62111/411/11}
 Group   3 Type H   : 4s1p contracted to 2s1p pattern {31/1}

Atom   0C    basis set group =>   1
Atom   1C    basis set group =>   1
Atom   2C    basis set group =>   1
Atom   3C    basis set group =>   1
Atom   4N    basis set group =>   2
Atom   5C    basis set group =>   1
Atom   6C    basis set group =>   1
Atom   7C    basis set group =>   1
Atom   8H    basis set group =>   3
Atom   9H    basis set group =>   3
Atom  10H    basis set group =>   3
Atom  11H    basis set group =>   3
Atom  12H    basis set group =>   3
Atom  13H    basis set group =>   3
Atom  14H    basis set group =>   3
Atom  15H    basis set group =>   3
Atom  16H    basis set group =>   3
---------------------------------
AUXILIARY/J BASIS SET INFORMATION
---------------------------------
There are 3 groups of distinct atoms

 Group   1 Type C   : 12s5p4d2f1g contracted to 6s4p3d1f1g pattern {711111/2111/211/2/1}
 Group   2 Type N   : 12s5p4d2f1g contracted to 6s4p3d1f1g pattern {711111/2111/211/2/1}
 Group   3 Type H   : 5s2p1d contracted to 3s1p1d pattern {311/2/1}

Atom   0C    basis set group =>   1
Atom   1C    basis set group =>   1
Atom   2C    basis set group =>   1
Atom   3C    basis set group =>   1
Atom   4N    basis set group =>   2
Atom   5C    basis set group =>   1
Atom   6C    basis set group =>   1
Atom   7C    basis set group =>   1
Atom   8H    basis set group =>   3
Atom   9H    basis set group =>   3
Atom  10H    basis set group =>   3
Atom  11H    basis set group =>   3
Atom  12H    basis set group =>   3
Atom  13H    basis set group =>   3
Atom  14H    basis set group =>   3
Atom  15H    basis set group =>   3
Atom  16H    basis set group =>   3

Checking for AutoStart:
The File: sp.gbw exists
Trying to determine its content:
     ... Fine, the file contains calculation information
     ... Fine, the calculation information was read
     ... Fine, the file contains a basis set
     ... Fine, the basis set was read
     ... Fine, the file contains a geometry
     ... Fine, the geometry was read
     ... Fine, the file contains a set of orbitals
     ... Fine, the orbitals can be read
     => possible old guess file was deleted
     => GBW file was renamed to GES file
     => GES file is set as startup file
     => Guess is set to MORead
     ... now leaving AutoStart

------------------------------------------------------------------------------
                             ORCA STARTUP CALCULATIONS
                           -- RI-GTO INTEGRALS CHOSEN --
------------------------------------------------------------------------------
------------------------------------------------------------------------------
                   ___                                                        
                  /   \      - P O W E R E D   B Y -                         
                 /     \                                                     
                 |  |  |   _    _      __       _____    __    __             
                 |  |  |  | |  | |    /  \     |  _  \  |  |  /  |          
                  \  \/   | |  | |   /    \    | | | |  |  | /  /          
                 / \  \   | |__| |  /  /\  \   | |_| |  |  |/  /          
                |  |  |   |  __  | /  /__\  \  |    /   |      \           
                |  |  |   | |  | | |   __   |  |    \   |  |\   \          
                \     /   | |  | | |  |  |  |  | |\  \  |  | \   \       
                 \___/    |_|  |_| |__|  |__|  |_| \__\ |__|  \__/        
                                                                              
                      - O R C A' S   B I G   F R I E N D -                    
                                      &                                       
                       - I N T E G R A L  F E E D E R -                       
                                                                              
 v1 FN, 2020, v2 2021, v3 2022-2024                                           
------------------------------------------------------------------------------


----------------------
SHARK INTEGRAL PACKAGE
----------------------

Number of atoms                             ...     17
Number of basis functions                   ...    202
Number of shells                            ...    100
Maximum angular momentum                    ...      2
Integral batch strategy                     ... SHARK/LIBINT Hybrid
RI-J (if used) integral strategy            ... SPLIT-RIJ (Revised 2003 algorithm where possible)
Printlevel                                  ...      1
Contraction scheme used                     ... SEGMENTED contraction
Prescreening option                         ... SCHWARTZ
   Thresh                                   ... 1.000e-10
   Tcut                                     ... 1.000e-11
   Tpresel                                  ... 1.000e-11 
Coulomb Range Separation                    ... NOT USED
Exchange Range Separation                   ... NOT USED
Multipole approximations                    ... NOT USED
Finite Nucleus Model                        ... NOT USED
CABS basis                                  ... NOT available
Auxiliary Coulomb fitting basis             ... AVAILABLE
   # of basis functions in Aux-J            ...    491
   # of shells in Aux-J                     ...    165
   Maximum angular momentum in Aux-J        ...      4
Auxiliary J/K fitting basis                 ... NOT available
Auxiliary Correlation fitting basis         ... NOT available
Auxiliary 'external' fitting basis          ... NOT available

Checking pre-screening integrals            ... done (  0.0 sec) Dimension = 100
Check shell pair data                       ... done (  0.0 sec)
Shell pair information
Shell pair cut-off parameter TPreSel        ...   1.0e-11
Total number of shell pairs                 ...      5050
Shell pairs after pre-screening             ...      4550
Total number of primitive shell pairs       ...     18348
Primitive shell pairs kept                  ...     11848
          la=0 lb=0:   1505 shell pairs
          la=1 lb=0:   1728 shell pairs
          la=1 lb=1:    518 shell pairs
          la=2 lb=0:    481 shell pairs
          la=2 lb=1:    274 shell pairs
          la=2 lb=2:     44 shell pairs

Calculating one electron integrals          ... done (  0.0 sec)
Calculating RI/J V-Matrix + Cholesky decomp.... done (  0.0 sec)
Calculating Nuclear repulsion               ... done (  0.0 sec) ENN=    347.054975347492 Eh

Diagonalization of the overlap matrix:
Smallest eigenvalue                        ... 6.381e-05
Time for diagonalization                   ...    0.006 sec
Threshold for overlap eigenvalues          ... 1.000e-07
Number of eigenvalues below threshold      ... 0
Time for construction of square roots      ...    0.005 sec
Total time needed                          ...    0.012 sec

-------------------
DFT GRID GENERATION
-------------------

General Integration Accuracy     IntAcc      ... 4.388
Radial Grid Type                 RadialGrid  ... OptM3 with GC (2021)
Angular Grid (max. ang.)         AngularGrid ... 4 (Lebedev-302)
Angular grid pruning method      GridPruning ... 4 (adaptive)
Weight generation scheme         WeightScheme... mBecke (2022)
Basis function cutoff            BFCut       ... 1.0000e-10
Integration weight cutoff        WCut        ... 1.0000e-14
Partially contracted basis set               ... off
Rotationally invariant grid construction     ... off
Angular grids for H and He will be reduced by one unit

Total number of grid points                  ...    77026
Total number of batches                      ...     1214
Average number of points per batch           ...       63
Average number of grid points per atom       ...     4531
Initializing property integral containers    ... done (  0.0 sec)

SHARK setup successfully completed in   0.8 seconds

Maximum memory used throughout the entire STARTUP-calculation: 35.3 MB
-------------------------------------------------------------------------------
                                 ORCA GUESS
                   Start orbitals & Density for SCF / CASSCF
-------------------------------------------------------------------------------

------------
SCF SETTINGS
------------
Hamiltonian:
 Density Functional     Method          .... DFT(GTOs)
  Functional kind                       .... Exchange
  Functional name                       .... Re-regularized SCAN exchange by Furness et al
  Functional family                     .... MGGA
  Functional refs                              
    [ 0] J. W. Furness, A. D. Kaplan, J. Ning, J. P. Perdew, and J. Sun.,  J. Phys. Chem. Lett. 11, 8208-8215 (2020), doi: 10.1021/acs.jpclett.0c02405
    [ 1] J. W. Furness, A. D. Kaplan, J. Ning, J. P. Perdew, and J. Sun.,  J. Phys. Chem. Lett. 11, 9248-9248 (2020), doi: 10.1021/acs.jpclett.0c03077
  Functional external parameters        .... 6
    Parameter  0 _c1        =  6.670000e-01 : c1 parameter        
    Parameter  1 _c2        =  8.000000e-01 : c2 parameter        
    Parameter  2 _d         =  1.240000e+00 : d parameter         
    Parameter  3 _k1        =  6.500000e-02 : k1 parameter        
    Parameter  4 _eta       =  1.000000e-03 : eta parameter       
    Parameter  5 _dp2       =  3.610000e-01 : dp2 parameter       
  Functional kind                       .... Correlation
  Functional name                       .... Re-regularized SCAN correlation by Furness et al
  Functional family                     .... MGGA
  Functional refs                              
    [ 0] J. W. Furness, A. D. Kaplan, J. Ning, J. P. Perdew, and J. Sun.,  J. Phys. Chem. Lett. 11, 8208-8215 (2020), doi: 10.1021/acs.jpclett.0c02405
    [ 1] J. W. Furness, A. D. Kaplan, J. Ning, J. P. Perdew, and J. Sun.,  J. Phys. Chem. Lett. 11, 9248-9248 (2020), doi: 10.1021/acs.jpclett.0c03077
  Functional external parameters        .... 1
    Parameter  0 _eta       =  1.000000e-03 : Regularization parameter
 Gradients option       PostSCFGGA      .... off
 RI-approximation to the Coulomb term is turned on
   Number of AuxJ basis functions       .... 491


General Settings:
 Integral files         IntName         .... sp
 Hartree-Fock type      HFTyp           .... RHF
 Total Charge           Charge          ....    0
 Multiplicity           Mult            ....    1
 Number of Electrons    NEL             ....   58
 Basis Dimension        Dim             ....  202
 Nuclear Repulsion      ENuc            ....    347.0549753475 Eh

Convergence Acceleration:
 AO-DIIS                CNVDIIS         .... on
   Start iteration      DIISMaxIt       ....    12
   Startup error        DIISStart       ....  0.200000
   # of expansion vecs  DIISMaxEq       ....     5
   Bias factor          DIISBfac        ....   1.050
   Max. coefficient     DIISMaxC        ....  10.000
 MO-DIIS                CNVKDIIS        .... off
 Trust-Rad. Augm. Hess. CNVTRAH         .... auto
   Auto Start mean grad. ratio tolernc. ....  1.125000
   Auto Start start iteration           ....     1
   Auto Start num. interpolation iter.  ....    10
   Max. Number of Micro iterations      ....    24
   Max. Number of Macro iterations      .... Maxiter - #DIIS iter
   Number of Davidson start vectors     ....     2
   Converg. threshold    (grad. norm)   ....   3.330e-04
   Grad. Scal. Fac. for Micro threshold ....   0.100
   Minimum threshold for Micro iter.    ....   1.000e-02
   NR start threshold (gradient norm)   ....   1.000e-04
   Initial trust radius                 ....   0.400
   Minimum AH scaling param. (alpha)    ....   1.000
   Maximum AH scaling param. (alpha)    .... 1000.000
   Quad. conv. algorithm                .... NR
   White noise on init. David. guess    .... on
   Maximum white noise                  ....   0.010
   Pseudo random numbers                .... off
   Inactive MOs                         .... canonical
   Orbital update algorithm             .... Taylor
   Preconditioner                       .... Diag
   Full preconditioner red. dimension   ....   250
   COSX micro iterations for RIJONX calc.... off
 SOSCF                  CNVSOSCF        .... on
   Start iteration      SOSCFMaxIt      ....   150
   Startup grad/error   SOSCFStart      ....  0.003300
   Hessian update       SOSCFHessUp     .... L-BFGS
 Level Shifting         CNVShift        .... on
   Level shift para.    LevelShift      ....    0.2500
   Turn off err/grad.   ShiftErr        ....    0.0010
 Zerner damping         CNVZerner       .... off
 Static damping         CNVDamp         .... on
   Fraction old density DampFac         ....    0.7000
   Max. Damping (<1)    DampMax         ....    0.9800
   Min. Damping (>=0)   DampMin         ....    0.0000
   Turn off err/grad.   DampErr         ....    0.1000

SCF Procedure:
 Maximum # iterations   MaxIter         ....   125
 SCF integral mode      SCFMode         .... Direct
   Integral package                     .... SHARK and LIBINT hybrid scheme
 Reset frequency        DirectResetFreq ....    20
 Integral Threshold     Thresh          ....  1.000e-10 Eh
 Primitive CutOff       TCut            ....  1.000e-11 Eh

Convergence Tolerance:
 Convergence Check Mode ConvCheckMode   .... Total+1el-Energy
 Convergence forced     ConvForced      .... 0
 Energy Change          TolE            ....  1.000e-06 Eh
 1-El. energy change                    ....  1.000e-03 Eh
 Orbital Gradient       TolG            ....  3.330e-04
 Orbital Rotation angle TolX            ....  3.330e-04
 DIIS Error             TolErr          ....  1.000e-06

---------------------
INITIAL GUESS: MOREAD
---------------------
Guess MOs are being read from file: sp.ges
Input Geometry matches current geometry (good)
Atom 0: N(Shells)= 9 and 6 - projection required
Input basis set needs projection
NBasis(read)= 130
NBasis(calc)= 202
Basis set overlap was calculated
Using GuessMode=FMatrix for the initial guess
C*T matrix was formed
Effective Fockian was calculated
Effective Fockian was diagonalized
Initial density was built
                      ------------------
                      INITIAL GUESS DONE (   0.0 sec)
                      ------------------
             **** ENERGY FILE WAS UPDATED (sp.en.tmp) ****
Finished Guess after   0.1 sec
Maximum memory used throughout the entire GUESS-calculation: 14.6 MB

-------------------------------------------------------------------------------------------
                                      ORCA LEAN-SCF
                              memory conserving SCF solver
-------------------------------------------------------------------------------------------

----------------------------------------D-I-I-S--------------------------------------------
Iteration    Energy (Eh)           Delta-E    RMSDP     MaxDP     DIISErr   Damp  Time(sec)
-------------------------------------------------------------------------------------------
               ***  Starting incremental Fock matrix formation  ***
    1    -326.6726236853321552     0.00e+00  5.63e-03  2.22e-01  4.37e-01  0.700   1.6
    2    -326.7184819942096965    -4.59e-02  4.40e-03  1.49e-01  3.07e-01  0.700   1.4
    3    -326.7508873357239736    -3.24e-02  3.20e-03  1.02e-01  2.15e-01  0.700   1.4
                               ***Turning on AO-DIIS***
    4    -326.7736320879587311    -2.27e-02  2.32e-03  7.03e-02  1.51e-01  0.700   1.4
    5    -326.7895818587894610    -1.59e-02  1.65e-03  4.92e-02  1.05e-01  0.700   1.4
    6    -326.8007642329114333    -1.12e-02  1.17e-03  3.49e-02  7.37e-02  0.700   1.4
    7    -326.8086009766113875    -7.84e-03  2.74e-03  8.22e-02  5.16e-02  0.000   1.5
                              *** Initializing SOSCF ***
---------------------------------------S-O-S-C-F--------------------------------------
Iteration    Energy (Eh)           Delta-E    RMSDP     MaxDP     MaxGrad    Time(sec)
--------------------------------------------------------------------------------------
    8    -326.8269153402526399    -1.83e-02  2.56e-05  9.50e-04  2.32e-04     1.4
               *** Restarting incremental Fock matrix formation ***
    9    -326.8269155255476335    -1.85e-07  1.58e-05  3.10e-04  7.49e-05     1.6
                  *** Gradient check signals convergence ***

               *****************************************************
               *                     SUCCESS                       *
               *           SCF CONVERGED AFTER   9 CYCLES          *
               *****************************************************

             **** ENERGY FILE WAS UPDATED (sp.en.tmp) ****

----------------
TOTAL SCF ENERGY
----------------

Total Energy       :       -326.82691552554763 Eh           -8893.41250 eV

Components:
Nuclear Repulsion  :        347.05497534749156 Eh            9443.84600 eV
Electronic Energy  :       -673.88189087303920 Eh          -18337.25850 eV
One Electron Energy:      -1127.52223438134479 Eh          -30681.43981 eV
Two Electron Energy:        453.64034350830559 Eh           12344.18131 eV

Virial components:
Potential Energy   :       -652.35311993552261 Eh          -17751.43086 eV
Kinetic Energy     :        325.52620440997498 Eh            8858.01835 eV
Virial Ratio       :          2.00399571861789

DFT components:
N(Alpha)           :       28.999991560680 electrons
N(Beta)            :       28.999991560680 electrons
N(Total)           :       57.999983121360 electrons
E(X)               :      -46.320058734109 Eh       
E(C)               :       -1.851706776396 Eh       
E(XC)              :      -48.171765510505 Eh       

---------------
SCF CONVERGENCE
---------------

  Last Energy change         ...    1.8529e-07  Tolerance :   1.0000e-06
  Last MAX-Density change    ...    3.0995e-04  Tolerance :   1.0000e-05
  Last RMS-Density change    ...    1.5834e-05  Tolerance :   1.0000e-06
  Last DIIS Error            ...    2.3201e-04  Tolerance :   1.0000e-06
  Last Orbital Gradient      ...    7.4910e-05  Tolerance :   3.3300e-04
  Last Orbital Rotation      ...    3.5378e-04  Tolerance :   3.3300e-04


----------------
ORBITAL ENERGIES
----------------

  NO   OCC          E(Eh)            E(eV) 
   0   2.0000     -14.142855      -384.8466 
   1   2.0000     -10.069755      -274.0120 
   2   2.0000     -10.059695      -273.7382 
   3   2.0000     -10.058004      -273.6922 
   4   2.0000     -10.037005      -273.1208 
   5   2.0000     -10.033988      -273.0387 
   6   2.0000     -10.033973      -273.0383 
   7   2.0000     -10.021562      -272.7006 
   8   2.0000      -0.910337       -24.7715 
   9   2.0000      -0.788995       -21.4696 
  10   2.0000      -0.748386       -20.3646 
  11   2.0000      -0.682736       -18.5782 
  12   2.0000      -0.664399       -18.0792 
  13   2.0000      -0.592060       -16.1108 
  14   2.0000      -0.549704       -14.9582 
  15   2.0000      -0.469905       -12.7868 
  16   2.0000      -0.463599       -12.6152 
  17   2.0000      -0.425124       -11.5682 
  18   2.0000      -0.409671       -11.1477 
  19   2.0000      -0.393023       -10.6947 
  20   2.0000      -0.382844       -10.4177 
  21   2.0000      -0.375701       -10.2233 
  22   2.0000      -0.362124        -9.8539 
  23   2.0000      -0.343880        -9.3574 
  24   2.0000      -0.340022        -9.2525 
  25   2.0000      -0.318896        -8.6776 
  26   2.0000      -0.253841        -6.9074 
  27   2.0000      -0.233598        -6.3565 
  28   2.0000      -0.217269        -5.9122 
  29   0.0000      -0.042078        -1.1450 
  30   0.0000      -0.036207        -0.9852 
  31   0.0000       0.074635         2.0309 
  32   0.0000       0.102289         2.7834 
  33   0.0000       0.106281         2.8921 
  34   0.0000       0.108517         2.9529 
  35   0.0000       0.117388         3.1943 
  36   0.0000       0.137157         3.7322 
  37   0.0000       0.143562         3.9065 
  38   0.0000       0.160017         4.3543 
  39   0.0000       0.164582         4.4785 
*Only the first 10 virtual orbitals were printed.

                    ********************************
                    * MULLIKEN POPULATION ANALYSIS *
                    ********************************

-----------------------
MULLIKEN ATOMIC CHARGES
-----------------------
   0 C :   -0.542923
   1 C :    0.178039
   2 C :   -0.150075
   3 C :   -0.118991
   4 N :   -0.188771
   5 C :    0.280298
   6 C :   -0.257978
   7 C :   -0.603866
   8 H :    0.164866
   9 H :    0.153134
  10 H :    0.164523
  11 H :    0.148928
  12 H :    0.132060
  13 H :    0.151200
  14 H :    0.153980
  15 H :    0.154606
  16 H :    0.180971
Sum of atomic charges:   -0.0000000

--------------------------------
MULLIKEN REDUCED ORBITAL CHARGES
--------------------------------
  0 C s       :     3.380613  s :     3.380613
      pz      :     1.092891  p :     3.135378
      px      :     0.967674
      py      :     1.074812
      dz2     :     0.004880  d :     0.026932
      dxz     :     0.007535
      dyz     :     0.001903
      dx2y2   :     0.007338
      dxy     :     0.005276

  1 C s       :     3.152649  s :     3.152649
      pz      :     0.912553  p :     2.620420
      px      :     0.836385
      py      :     0.871481
      dz2     :     0.003538  d :     0.048892
      dxz     :     0.007282
      dyz     :     0.006826
      dx2y2   :     0.015874
      dxy     :     0.015373

  2 C s       :     3.145096  s :     3.145096
      pz      :     1.034046  p :     2.968993
      px      :     1.021637
      py      :     0.913310
      dz2     :     0.003334  d :     0.035987
      dxz     :     0.003358
      dyz     :     0.004575
      dx2y2   :     0.012000
      dxy     :     0.012720

  3 C s       :     3.238617  s :     3.238617
      pz      :     0.913142  p :     2.824552
      px      :     0.909684
      py      :     1.001726
      dz2     :     0.003865  d :     0.055821
      dxz     :     0.009907
      dyz     :     0.002892
      dx2y2   :     0.022678
      dxy     :     0.016480

  4 N s       :     3.446061  s :     3.446061
      pz      :     1.178777  p :     3.678952
      px      :     1.447215
      py      :     1.052960
      dz2     :     0.004057  d :     0.063758
      dxz     :     0.015007
      dyz     :     0.005025
      dx2y2   :     0.022519
      dxy     :     0.017150

  5 C s       :     3.112977  s :     3.112977
      pz      :     0.881449  p :     2.541178
      px      :     0.753596
      py      :     0.906133
      dz2     :     0.004116  d :     0.065547
      dxz     :     0.006552
      dyz     :     0.010057
      dx2y2   :     0.020276
      dxy     :     0.024546

  6 C s       :     3.139941  s :     3.139941
      pz      :     1.041697  p :     3.082119
      px      :     0.972663
      py      :     1.067759
      dz2     :     0.003325  d :     0.035918
      dxz     :     0.005335
      dyz     :     0.002346
      dx2y2   :     0.013206
      dxy     :     0.011705

  7 C s       :     3.406198  s :     3.406198
      pz      :     1.072394  p :     3.171591
      px      :     0.985342
      py      :     1.113856
      dz2     :     0.004773  d :     0.026076
      dxz     :     0.002299
      dyz     :     0.006969
      dx2y2   :     0.004196
      dxy     :     0.007838

  8 H s       :     0.816792  s :     0.816792
      pz      :     0.008508  p :     0.018342
      px      :     0.005763
      py      :     0.004071

  9 H s       :     0.828722  s :     0.828722
      pz      :     0.003671  p :     0.018144
      px      :     0.003414
      py      :     0.011059

 10 H s       :     0.817134  s :     0.817134
      pz      :     0.008442  p :     0.018343
      px      :     0.005801
      py      :     0.004099

 11 H s       :     0.831399  s :     0.831399
      pz      :     0.004326  p :     0.019673
      px      :     0.009409
      py      :     0.005938

 12 H s       :     0.848945  s :     0.848945
      pz      :     0.003683  p :     0.018995
      px      :     0.002701
      py      :     0.012611

 13 H s       :     0.829237  s :     0.829237
      pz      :     0.004301  p :     0.019564
      px      :     0.003113
      py      :     0.012150

 14 H s       :     0.827595  s :     0.827595
      pz      :     0.008432  p :     0.018425
      px      :     0.003642
      py      :     0.006350

 15 H s       :     0.826965  s :     0.826965
      pz      :     0.008545  p :     0.018429
      px      :     0.003659
      py      :     0.006226

 16 H s       :     0.800916  s :     0.800916
      pz      :     0.003535  p :     0.018113
      px      :     0.007645
      py      :     0.006934


------------------------
MULLIKEN OVERLAP CHARGES
------------------------
B(  0-C ,  1-C ) :   0.3313 B(  0-C ,  2-C ) :  -0.1401 B(  0-C ,  6-C ) :  -0.0559 
B(  0-C ,  8-H ) :   0.8427 B(  0-C ,  9-H ) :   0.8545 B(  0-C , 10-H ) :   0.8428 
B(  1-C ,  2-C ) :   0.6529 B(  1-C ,  6-C ) :   0.8632 B(  1-C ,  8-H ) :  -0.0945 
B(  1-C ,  9-H ) :  -0.1365 B(  1-C , 10-H ) :  -0.0953 B(  1-C , 11-H ) :  -0.0848 
B(  1-C , 13-H ) :  -0.0642 B(  2-C ,  3-C ) :   0.5416 B(  2-C ,  4-N ) :  -0.2339 
B(  2-C ,  5-C ) :  -0.1511 B(  2-C ,  6-C ) :   0.0922 B(  2-C , 11-H ) :   0.7728 
B(  2-C , 12-H ) :  -0.1969 B(  3-C ,  4-N ) :   0.9977 B(  3-C ,  5-C ) :  -0.2788 
B(  3-C ,  6-C ) :  -0.2295 B(  3-C , 12-H ) :   0.9261 B(  4-N ,  5-C ) :   0.7888 
B(  4-N ,  6-C ) :  -0.1327 B(  4-N , 12-H ) :  -0.1059 B(  5-C ,  6-C ) :   0.5623 
B(  5-C ,  7-C ) :   0.2288 B(  5-C , 14-H ) :  -0.0896 B(  5-C , 15-H ) :  -0.0866 
B(  5-C , 16-H ) :  -0.1138 B(  6-C ,  7-C ) :  -0.0952 B(  6-C , 13-H ) :   0.7161 
B(  7-C , 14-H ) :   0.8143 B(  7-C , 15-H ) :   0.8125 B(  7-C , 16-H ) :   0.8788 
B( 14-H , 15-H ) :  -0.0525 


                     *******************************
                     * LOEWDIN POPULATION ANALYSIS *
                     *******************************

----------------------
LOEWDIN ATOMIC CHARGES
----------------------
   0 C :   -0.387690
   1 C :   -0.060502
   2 C :   -0.157560
   3 C :    0.086127
   4 N :   -0.629439
   5 C :    0.130477
   6 C :   -0.146987
   7 C :   -0.363183
   8 H :    0.168383
   9 H :    0.160150
  10 H :    0.168286
  11 H :    0.170859
  12 H :    0.183298
  13 H :    0.171002
  14 H :    0.165301
  15 H :    0.165567
  16 H :    0.175910

-------------------------------
LOEWDIN REDUCED ORBITAL CHARGES
-------------------------------
  0 C s       :     2.955293  s :     2.955293
      pz      :     1.154939  p :     3.369719
      px      :     1.080644
      py      :     1.134136
      dz2     :     0.011917  d :     0.062678
      dxz     :     0.017924
      dyz     :     0.003950
      dx2y2   :     0.017413
      dxy     :     0.011475

  1 C s       :     2.870118  s :     2.870118
      pz      :     0.905587  p :     3.090561
      px      :     1.078128
      py      :     1.106846
      dz2     :     0.006347  d :     0.099823
      dxz     :     0.011859
      dyz     :     0.012261
      dx2y2   :     0.035105
      dxy     :     0.034251

  2 C s       :     2.898573  s :     2.898573
      pz      :     1.013715  p :     3.180179
      px      :     1.080923
      py      :     1.085541
      dz2     :     0.005832  d :     0.078807
      dxz     :     0.005386
      dyz     :     0.008170
      dx2y2   :     0.028358
      dxy     :     0.031062

  3 C s       :     2.828095  s :     2.828095
      pz      :     0.867991  p :     2.959824
      px      :     1.042999
      py      :     1.048834
      dz2     :     0.008036  d :     0.125953
      dxz     :     0.019439
      dyz     :     0.004078
      dx2y2   :     0.057183
      dxy     :     0.037217

  4 N s       :     3.224847  s :     3.224847
      pz      :     1.155899  p :     3.921434
      px      :     1.484989
      py      :     1.280546
      dz2     :     0.055217  d :     0.483158
      dxz     :     0.045695
      dyz     :     0.078128
      dx2y2   :     0.148047
      dxy     :     0.156072

  5 C s       :     2.795012  s :     2.795012
      pz      :     0.847980  p :     2.933454
      px      :     1.042439
      py      :     1.043036
      dz2     :     0.008872  d :     0.141056
      dxz     :     0.011315
      dyz     :     0.018196
      dx2y2   :     0.043915
      dxy     :     0.058758

  6 C s       :     2.891739  s :     2.891739
      pz      :     1.021289  p :     3.176069
      px      :     1.068845
      py      :     1.085935
      dz2     :     0.005896  d :     0.079179
      dxz     :     0.009875
      dyz     :     0.003296
      dx2y2   :     0.032708
      dxy     :     0.027404

  7 C s       :     2.956533  s :     2.956533
      pz      :     1.144976  p :     3.346585
      px      :     1.077188
      py      :     1.124420
      dz2     :     0.011445  d :     0.060065
      dxz     :     0.003952
      dyz     :     0.017709
      dx2y2   :     0.009187
      dxy     :     0.017772

  8 H s       :     0.787946  s :     0.787946
      pz      :     0.021127  p :     0.043670
      px      :     0.013330
      py      :     0.009214

  9 H s       :     0.796608  s :     0.796608
      pz      :     0.008045  p :     0.043242
      px      :     0.007535
      py      :     0.027662

 10 H s       :     0.788044  s :     0.788044
      pz      :     0.020946  p :     0.043670
      px      :     0.013426
      py      :     0.009298

 11 H s       :     0.783476  s :     0.783476
      pz      :     0.009652  p :     0.045666
      px      :     0.022128
      py      :     0.013886

 12 H s       :     0.776243  s :     0.776243
      pz      :     0.007643  p :     0.040459
      px      :     0.006098
      py      :     0.026718

 13 H s       :     0.783442  s :     0.783442
      pz      :     0.009683  p :     0.045556
      px      :     0.007090
      py      :     0.028783

 14 H s       :     0.790773  s :     0.790773
      pz      :     0.020807  p :     0.043927
      px      :     0.008056
      py      :     0.015064

 15 H s       :     0.790494  s :     0.790494
      pz      :     0.021111  p :     0.043939
      px      :     0.008093
      py      :     0.014735

 16 H s       :     0.780662  s :     0.780662
      pz      :     0.007700  p :     0.043427
      px      :     0.018562
      py      :     0.017166


---------------------------------
LOEWDIN BOND ORDERS (THRESH 0.050000)
---------------------------------
B(  0-C ,  1-C ) :   1.1175 B(  0-C ,  2-C ) :   0.0864 B(  0-C ,  6-C ) :   0.0900 
B(  0-C ,  8-H ) :   0.9102 B(  0-C ,  9-H ) :   0.9189 B(  0-C , 10-H ) :   0.9104 
B(  1-C ,  2-C ) :   1.4137 B(  1-C ,  3-C ) :   0.0915 B(  1-C ,  4-N ) :   0.1289 
B(  1-C ,  5-C ) :   0.0935 B(  1-C ,  6-C ) :   1.4605 B(  1-C , 11-H ) :   0.0517 
B(  1-C , 13-H ) :   0.0521 B(  2-C ,  3-C ) :   1.4204 B(  2-C ,  4-N ) :   0.2207 
B(  2-C ,  5-C ) :   0.1229 B(  2-C ,  6-C ) :   0.0877 B(  2-C , 11-H ) :   0.8654 
B(  2-C , 12-H ) :   0.0540 B(  3-C ,  4-N ) :   1.7929 B(  3-C ,  5-C ) :   0.1067 
B(  3-C ,  6-C ) :   0.1249 B(  3-C , 11-H ) :   0.0578 B(  3-C , 12-H ) :   0.8051 
B(  4-N ,  5-C ) :   1.7488 B(  4-N ,  6-C ) :   0.2054 B(  4-N ,  7-C ) :   0.1927 
B(  4-N , 12-H ) :   0.1163 B(  5-C ,  6-C ) :   1.3247 B(  5-C ,  7-C ) :   1.0410 
B(  5-C , 13-H ) :   0.0548 B(  6-C ,  7-C ) :   0.0885 B(  6-C , 13-H ) :   0.8596 
B(  7-C , 14-H ) :   0.9103 B(  7-C , 15-H ) :   0.9100 B(  7-C , 16-H ) :   0.9080 


------------------------------------------
LOEWDIN REDUCED ORBITAL POPULATIONS PER MO
-------------------------------------------
THRESHOLD FOR PRINTING IS 0.1%%
                      0         1         2         3         4         5   
                 -14.14285 -10.06976 -10.05970 -10.05800 -10.03701 -10.03399
                   2.00000   2.00000   2.00000   2.00000   2.00000   2.00000
                  --------  --------  --------  --------  --------  --------
 0 C  s               0.0       0.0       0.0       0.0      99.7       0.0
 1 C  s               0.0       0.0       0.0      99.5       0.0       0.0
 2 C  s               0.0       0.0       0.0       0.0       0.0      11.2
 2 C  px              0.0       0.0       0.1       0.0       0.0       0.0
 2 C  py              0.0       0.0       0.0       0.1       0.0       0.0
 3 C  s               0.0       0.0      99.2       0.0       0.0       0.0
 4 N  s              99.8       0.0       0.0       0.0       0.0       0.0
 4 N  px              0.0       0.0       0.1       0.0       0.0       0.0
 4 N  py              0.0       0.2       0.0       0.0       0.0       0.0
 4 N  dx2y2           0.0       0.2       0.1       0.0       0.0       0.0
 4 N  dxy             0.0       0.0       0.2       0.0       0.0       0.0
 5 C  s               0.0      99.2       0.0       0.0       0.0       0.0
 6 C  s               0.0       0.0       0.0       0.0       0.0      88.3
 6 C  px              0.0       0.1       0.0       0.1       0.0       0.0

                      6         7         8         9        10        11   
                 -10.03397 -10.02156  -0.91034  -0.78899  -0.74839  -0.68274
                   2.00000   2.00000   2.00000   2.00000   2.00000   2.00000
                  --------  --------  --------  --------  --------  --------
 0 C  s               0.0       0.0       0.3      12.0       0.0      26.2
 0 C  px              0.0       0.0       0.2       2.4       0.0       0.3
 0 C  py              0.0       0.0       0.1       0.7       0.1       0.1
 1 C  s               0.1       0.0       2.7      27.2       0.0       0.1
 1 C  px              0.0       0.0       1.0       0.1       1.0      10.1
 1 C  py              0.1       0.0       0.3       0.0       3.8       5.9
 1 C  dz2             0.0       0.0       0.0       0.3       0.0       0.0
 1 C  dx2y2           0.0       0.0       0.0       0.0       0.1       0.1
 1 C  dxy             0.0       0.0       0.0       0.0       0.0       0.1
 2 C  s              88.4       0.0       3.7      10.2       6.8       8.6
 2 C  px              0.0       0.0       2.3       0.3       0.9       0.9
 2 C  py              0.0       0.0       0.1       4.5       0.9       0.6
 2 C  dx2y2           0.0       0.0       0.0       0.1       0.0       0.0
 3 C  s               0.0       0.0      12.5       0.1      11.4       1.6
 3 C  px              0.1       0.0       2.3       5.5       0.3       7.2
 3 C  py              0.0       0.0       3.9       0.2       0.3       0.0
 3 C  dz2             0.0       0.0       0.2       0.0       0.1       0.0
 3 C  dxy             0.0       0.0       0.3       0.2       0.0       0.3
 4 N  s               0.0       0.0      33.1       6.5       0.7       4.8
 4 N  px              0.0       0.0       3.2       0.2       3.3       0.4
 4 N  py              0.0       0.0       1.1       0.1       8.7       0.1
 4 N  dz2             0.0       0.0       0.8       0.1       0.0       0.3
 4 N  dx2y2           0.0       0.0       0.1       0.1       2.1       0.1
 4 N  dxy             0.0       0.0       0.1       0.2       0.4       0.0
 5 C  s               0.0       0.0      14.0       0.2      14.1       0.2
 5 C  px              0.0       0.1       0.4       2.6       0.7       0.4
 5 C  py              0.0       0.0       5.3       3.0       4.6       4.3
 5 C  dz2             0.0       0.0       0.3       0.0       0.1       0.0
 5 C  dx2y2           0.0       0.0       0.3       0.2       0.1       0.2
 6 C  s              11.2       0.0       4.1       9.1       8.6       2.1
 6 C  px              0.0       0.0       0.5       4.7       2.7       0.8
 6 C  py              0.0       0.0       2.0       0.6       0.1       0.2
 6 C  dxy             0.0       0.0       0.0       0.1       0.0       0.0
 7 C  s               0.0      99.7       1.4       0.1      14.1       1.4
 7 C  px              0.0       0.0       1.0       0.0       1.5       0.0
 7 C  py              0.0       0.0       0.6       0.1       0.2       0.1
 8 H  s               0.0       0.0       0.0       1.5       0.0       5.8
 8 H  pz              0.0       0.0       0.0       0.1       0.0       0.3
 8 H  px              0.0       0.0       0.0       0.0       0.0       0.1
 9 H  s               0.0       0.0       0.0       1.6       0.0       5.9
 9 H  py              0.0       0.0       0.0       0.1       0.0       0.5
10 H  s               0.0       0.0       0.0       1.5       0.0       5.8
10 H  pz              0.0       0.0       0.0       0.1       0.0       0.3
10 H  px              0.0       0.0       0.0       0.0       0.0       0.1
11 H  s               0.0       0.0       0.2       1.3       1.0       1.5
11 H  px              0.0       0.0       0.0       0.1       0.1       0.1
12 H  s               0.0       0.0       0.8       0.0       1.9       0.3
12 H  py              0.0       0.0       0.1       0.0       0.2       0.0
13 H  s               0.0       0.0       0.3       1.1       1.5       0.3
13 H  py              0.0       0.0       0.0       0.1       0.1       0.0
14 H  s               0.0       0.0       0.1       0.0       2.2       0.4
14 H  pz              0.0       0.0       0.0       0.0       0.1       0.0
15 H  s               0.0       0.0       0.1       0.0       2.2       0.4
15 H  pz              0.0       0.0       0.0       0.0       0.1       0.0
16 H  s               0.0       0.0       0.1       0.0       2.1       0.2
16 H  px              0.0       0.0       0.0       0.0       0.1       0.0

                     12        13        14        15        16        17   
                  -0.66440  -0.59206  -0.54970  -0.46991  -0.46360  -0.42512
                   2.00000   2.00000   2.00000   2.00000   2.00000   2.00000
                  --------  --------  --------  --------  --------  --------
 0 C  s               3.3       1.0       3.4       0.5       0.4       0.1
 0 C  px              0.3       0.1       5.9       6.6       0.3       1.6
 0 C  py              0.1       1.4       0.6       0.2       8.7       2.6
 1 C  s               0.2       1.2       8.8       0.3       0.2       2.9
 1 C  px              6.6       0.7       0.9       0.4       8.2       0.3
 1 C  py              3.1       8.9       0.3       7.7       3.9       0.0
 1 C  dx2y2           0.1       0.1       0.0       0.0       0.0       0.2
 1 C  dxy             0.2       0.0       0.1       0.1       0.0       0.1
 2 C  s               5.3       3.6       1.8       0.6       0.3       2.4
 2 C  px              0.1       4.2       0.1       3.0      19.8       2.0
 2 C  py              0.9       3.6       9.7       8.6       1.6       2.1
 2 C  dx2y2           0.0       0.1       0.2       0.0       0.1       0.3
 2 C  dxy             0.0       0.0       0.0       0.0       0.0       0.2
 3 C  s               1.9      10.0       0.6       0.4       0.3       1.8
 3 C  px              2.0       1.8       8.2       1.5      12.4       0.2
 3 C  py              0.2       3.5       0.5       7.8       1.1      16.6
 3 C  dx2y2           0.0       0.0       0.0       0.0       0.0       0.4
 3 C  dxy             0.1       0.0       0.1       0.0       0.2       0.1
 4 N  s               0.2       0.5       1.6       1.3       1.3       1.6
 4 N  px              0.1       3.6       0.4       8.5       0.3       1.1
 4 N  py              0.2      15.2       4.0       2.1       7.9       0.0
 4 N  dz2             0.1       0.1       0.1       0.0       0.1       0.5
 4 N  dx2y2           0.0       0.1       0.3       0.3       1.0       1.4
 4 N  dxy             1.6       0.8       0.1       1.3       0.1       0.8
 5 C  s               0.1       1.4       6.3       0.0       0.1       2.8
 5 C  px             13.5       1.0       1.9       6.8       0.1       0.8
 5 C  py              0.5       8.7       1.2       3.5       5.3       1.7
 5 C  dx2y2           0.0       0.1       0.0       0.1       0.0       0.3
 5 C  dxy             0.3       0.0       0.1       0.0       0.0       0.0
 6 C  s              10.1       5.5       0.2       0.7       0.2       1.2
 6 C  px              0.2       0.0      15.3       6.8       6.3       0.1
 6 C  py              0.2       3.6       0.2       8.8       3.8      12.8
 6 C  dx2y2           0.0       0.0       0.0       0.0       0.0       0.4
 6 C  dxy             0.0       0.0       0.4       0.0       0.0       0.0
 7 C  s              23.2       1.6       4.2       0.3       0.2       0.2
 7 C  px              0.4       0.1       5.0       0.0       3.0       4.5
 7 C  py              0.1       1.6       0.5       4.1       0.5       3.2
 8 H  s               1.0       0.2       2.3       1.5       0.0       0.0
 8 H  pz              0.1       0.0       0.1       0.1       0.0       0.0
 9 H  s               0.6       1.0       1.6       0.0       3.6       1.3
 9 H  py              0.0       0.1       0.1       0.0       0.1       0.0
10 H  s               1.0       0.2       2.3       1.5       0.0       0.0
10 H  pz              0.1       0.0       0.1       0.1       0.0       0.0
11 H  s               1.7       1.5       2.2       4.4       4.2       5.1
11 H  px              0.1       0.0       0.1       0.2       0.0       0.1
11 H  py              0.0       0.1       0.0       0.0       0.2       0.0
12 H  s               0.6       5.7       0.4       2.8       0.2      12.7
12 H  py              0.0       0.4       0.0       0.1       0.0       0.4
13 H  s               1.8       3.9       0.2       4.6       1.8       9.7
13 H  py              0.2       0.3       0.0       0.2       0.1       0.2
14 H  s               5.3       0.9       1.9       0.9       0.0       1.0
14 H  pz              0.3       0.1       0.1       0.0       0.0       0.0
14 H  py              0.2       0.0       0.0       0.0       0.0       0.0
15 H  s               5.3       0.9       1.9       0.9       0.0       1.0
15 H  pz              0.3       0.1       0.1       0.0       0.0       0.0
15 H  py              0.1       0.0       0.0       0.0       0.0       0.0
16 H  s               5.3       0.2       2.7       0.2       1.4       0.3
16 H  px              0.2       0.0       0.1       0.0       0.0       0.0
16 H  py              0.2       0.0       0.1       0.0       0.0       0.0

                     18        19        20        21        22        23   
                  -0.40967  -0.39302  -0.38284  -0.37570  -0.36212  -0.34388
                   2.00000   2.00000   2.00000   2.00000   2.00000   2.00000
                  --------  --------  --------  --------  --------  --------
 0 C  s               0.0       0.0       0.1       0.0       0.2       0.0
 0 C  pz             23.4      25.2       0.0       0.0       0.0       5.5
 0 C  px              0.0       0.0       6.2      13.9       2.5       0.0
 0 C  py              0.0       0.0       0.9      14.7      22.5       0.0
 0 C  dz2             0.0       0.0       0.1       0.2       0.0       0.0
 0 C  dxz             0.1       0.2       0.0       0.0       0.0       0.1
 0 C  dx2y2           0.0       0.0       0.0       0.1       0.4       0.0
 1 C  s               0.0       0.0       0.2       0.1       0.1       0.0
 1 C  pz             11.6       3.1       0.0       0.0       0.0       2.6
 1 C  px              0.0       0.0       4.4       0.7       6.2       0.0
 1 C  py              0.0       0.0       0.7       2.3       5.7       0.0
 1 C  dxz             0.0       0.1       0.0       0.0       0.0       0.1
 1 C  dx2y2           0.0       0.0       0.3       0.0       0.4       0.0
 1 C  dxy             0.0       0.0       0.4       0.1       0.0       0.0
 2 C  s               0.0       0.0       0.3       0.1       0.8       0.0
 2 C  pz              4.5       0.2       0.0       0.0       0.0       9.1
 2 C  px              0.0       0.0      10.6       3.5       2.1       0.0
 2 C  py              0.0       0.0       3.2       2.1       3.9       0.0
 2 C  dxz             0.0       0.0       0.0       0.0       0.0       0.1
 2 C  dxy             0.0       0.0       0.3       0.1       0.3       0.0
 3 C  s               0.0       0.0       0.5       0.1       0.3       0.0
 3 C  pz              3.6       0.6       0.0       0.0       0.0      18.1
 3 C  px              0.0       0.0       1.1       0.5       3.8       0.0
 3 C  py              0.0       0.0       7.9       0.0       0.1       0.0
 3 C  dyz             0.0       0.0       0.0       0.0       0.0       0.1
 4 N  s               0.0       0.0       0.0       0.0       0.1       0.0
 4 N  pz              6.3       3.6       0.0       0.0       0.0      21.1
 4 N  px              0.0       0.0       0.2       1.0       1.2       0.0
 4 N  py              0.0       0.0       0.2       0.0       6.2       0.0
 4 N  dxz             0.2       0.0       0.0       0.0       0.0       1.3
 4 N  dyz             0.3       0.4       0.0       0.0       0.0       0.0
 4 N  dx2y2           0.0       0.0       0.4       0.3       0.1       0.0
 4 N  dxy             0.0       0.0       0.4       0.4       0.2       0.0
 5 C  s               0.0       0.0       0.2       0.4       0.0       0.0
 5 C  pz             10.2       8.3       0.0       0.0       0.0       3.7
 5 C  px              0.0       0.0       9.6       1.5       1.9       0.0
 5 C  py              0.0       0.0       2.5       0.2       3.0       0.0
 5 C  dxz             0.0       0.1       0.0       0.0       0.0       0.1
 5 C  dyz             0.0       0.0       0.0       0.0       0.0       0.3
 5 C  dx2y2           0.0       0.0       0.1       0.0       0.3       0.0
 5 C  dxy             0.0       0.0       0.2       0.1       0.0       0.0
 6 C  s               0.0       0.0       1.6       1.0       0.0       0.0
 6 C  pz              6.6       0.4       0.0       0.0       0.0       3.4
 6 C  px              0.0       0.0       0.2       0.3       0.0       0.0
 6 C  py              0.0       0.0      10.1       6.1       0.2       0.0
 6 C  dx2y2           0.0       0.0       0.0       0.3       0.0       0.0
 6 C  dxy             0.0       0.0       0.0       0.1       0.1       0.0
 7 C  s               0.0       0.0       0.2       0.0       0.0       0.0
 7 C  pz             12.7      26.2       0.0       0.0       0.0      15.8
 7 C  px              0.0       0.0      15.4       2.2       0.1       0.0
 7 C  py              0.0       0.0       0.3      10.5      14.9       0.0
 7 C  dz2             0.0       0.0       0.0       0.1       0.1       0.0
 7 C  dyz             0.1       0.2       0.0       0.0       0.0       0.3
 7 C  dxy             0.0       0.0       0.2       0.0       0.0       0.0
 8 H  s               6.4       7.6       1.2       4.4       0.2       2.2
 8 H  pz              0.0       0.0       0.0       0.2       0.0       0.0
 8 H  px              0.1       0.1       0.0       0.0       0.0       0.0
 8 H  py              0.0       0.0       0.0       0.0       0.2       0.0
 9 H  s               0.0       0.0       0.6       8.9      11.5       0.0
 9 H  pz              0.1       0.2       0.0       0.0       0.0       0.0
 9 H  py              0.0       0.0       0.0       0.2       0.1       0.0
10 H  s               6.4       7.5       1.2       4.5       0.2       2.2
10 H  pz              0.0       0.0       0.0       0.2       0.0       0.0
10 H  px              0.1       0.1       0.0       0.0       0.0       0.0
10 H  py              0.0       0.0       0.0       0.0       0.2       0.0
11 H  s               0.0       0.0       7.1       3.5       0.5       0.0
12 H  s               0.0       0.0       3.0       0.0       0.0       0.0
12 H  pz              0.0       0.0       0.0       0.0       0.0       0.1
13 H  s               0.0       0.0       2.5       6.1       0.0       0.0
13 H  py              0.0       0.0       0.0       0.2       0.0       0.0
14 H  s               3.2       7.4       0.3       1.6       2.7       6.4
14 H  pz              0.0       0.0       0.0       0.1       0.1       0.0
14 H  px              0.0       0.0       0.1       0.0       0.0       0.0
14 H  py              0.1       0.2       0.0       0.0       0.0       0.1
15 H  s               3.3       7.6       0.4       1.5       2.6       6.4
15 H  pz              0.0       0.0       0.0       0.1       0.1       0.0
15 H  px              0.0       0.0       0.1       0.0       0.0       0.0
15 H  py              0.1       0.2       0.0       0.0       0.0       0.1
16 H  s               0.0       0.0       3.7       5.0       2.9       0.0
16 H  pz              0.1       0.2       0.0       0.0       0.0       0.1
16 H  px              0.0       0.0       0.0       0.1       0.1       0.0
16 H  py              0.0       0.0       0.1       0.0       0.0       0.0

                     24        25        26        27        28        29   
                  -0.34002  -0.31890  -0.25384  -0.23360  -0.21727  -0.04208
                   2.00000   2.00000   2.00000   2.00000   2.00000   0.00000
                  --------  --------  --------  --------  --------  --------
 0 C  s               0.3       0.0       0.0       0.0       0.2       0.0
 0 C  pz              0.0       0.0       3.5       0.1       0.0       0.1
 0 C  px             11.8       1.2       0.0       0.0       0.7       0.0
 0 C  py              0.6       3.3       0.0       0.0       0.1       0.0
 0 C  dxz             0.0       0.0       0.5       0.0       0.0       1.1
 0 C  dx2y2           0.0       0.2       0.0       0.0       0.0       0.0
 1 C  pz              0.0       0.0      27.7       0.2       0.0      33.0
 1 C  px              9.4       3.4       0.0       0.0       0.2       0.0
 1 C  py              1.8      10.7       0.0       0.0       0.1       0.0
 1 C  dxz             0.0       0.0       0.3       0.1       0.0       0.1
 1 C  dyz             0.0       0.0       0.0       0.5       0.0       0.0
 1 C  dx2y2           0.1       0.3       0.0       0.0       0.1       0.0
 1 C  dxy             0.3       0.2       0.0       0.0       0.1       0.0
 2 C  s               0.1       0.0       0.0       0.0       0.5       0.0
 2 C  pz              0.0       0.0       8.4      28.4       0.0       3.7
 2 C  px              0.0       0.6       0.0       0.0       3.4       0.0
 2 C  py              1.5       9.6       0.0       0.0       1.1       0.0
 2 C  dxz             0.0       0.0       0.0       0.1       0.0       0.2
 2 C  dyz             0.0       0.0       0.3       0.0       0.0       1.1
 2 C  dx2y2           0.2       0.3       0.0       0.0       0.0       0.0
 2 C  dxy             0.1       0.3       0.0       0.0       0.1       0.0
 3 C  s               0.3       0.2       0.0       0.0       0.4       0.0
 3 C  pz              0.0       0.0       4.6      16.5       0.0      10.8
 3 C  px              0.1       0.3       0.0       0.0       4.5       0.0
 3 C  py              2.8       7.1       0.0       0.0       0.3       0.0
 3 C  dxz             0.0       0.0       0.5       0.4       0.0       0.9
 3 C  dyz             0.0       0.0       0.0       0.0       0.0       0.2
 3 C  dx2y2           0.0       0.7       0.0       0.0       1.4       0.0
 3 C  dxy             0.0       0.1       0.0       0.0       0.3       0.0
 4 N  s               1.2       0.0       0.0       0.0       8.5       0.0
 4 N  pz              0.0       0.0      25.2       1.6       0.0      23.5
 4 N  px              5.6       1.0       0.0       0.0      43.9       0.0
 4 N  py              0.4       5.2       0.0       0.0      12.5       0.0
 4 N  dz2             0.1       0.0       0.0       0.0       0.2       0.0
 4 N  dxz             0.0       0.0       0.0       0.7       0.0       1.7
 4 N  dyz             0.0       0.0       0.1       3.1       0.0       0.1
 4 N  dx2y2           0.1       0.1       0.0       0.0       0.6       0.0
 4 N  dxy             0.0       0.1       0.0       0.0       1.2       0.0
 5 C  s               0.2       0.0       0.0       0.0       0.5       0.0
 5 C  pz              0.0       0.0       0.6      19.7       0.0       6.5
 5 C  px              4.1       4.9       0.0       0.0       1.7       0.0
 5 C  py              1.0       4.3       0.0       0.0       2.8       0.0
 5 C  dxz             0.0       0.0       0.2       0.2       0.0       0.2
 5 C  dyz             0.0       0.0       0.6       0.0       0.0       1.1
 5 C  dx2y2           0.2       0.3       0.0       0.0       0.0       0.0
 5 C  dxy             0.0       0.4       0.0       0.0       1.7       0.0
 6 C  s               0.0       0.1       0.0       0.0       0.5       0.0
 6 C  pz              0.0       0.0      20.6      20.2       0.0       9.4
 6 C  px              6.0       5.9       0.0       0.0       3.3       0.0
 6 C  py              0.2       4.2       0.0       0.0       1.1       0.0
 6 C  dxz             0.0       0.0       0.2       0.2       0.0       1.1
 6 C  dx2y2           0.1       0.6       0.0       0.0       0.1       0.0
 6 C  dxy             0.3       0.1       0.0       0.0       0.0       0.0
 7 C  s               0.0       0.4       0.0       0.0       0.6       0.0
 7 C  pz              0.0       0.0       0.0       2.6       0.0       0.1
 7 C  px             10.6       8.9       0.0       0.0       1.1       0.0
 7 C  py             15.3       2.8       0.0       0.0       1.3       0.0
 7 C  dz2             0.1       0.0       0.0       0.0       0.0       0.0
 7 C  dxz             0.0       0.0       0.0       0.1       0.0       0.1
 7 C  dyz             0.0       0.0       0.0       0.3       0.0       0.0
 7 C  dxy             0.3       0.1       0.0       0.0       0.0       0.0
 8 H  s               1.2       0.8       3.0       0.0       0.0       1.8
 9 H  s               0.0       3.2       0.0       0.0       0.0       0.0
 9 H  px              0.1       0.0       0.0       0.0       0.0       0.0
10 H  s               1.1       0.9       2.9       0.0       0.0       1.7
11 H  s               0.0       4.2       0.0       0.0       0.7       0.0
11 H  pz              0.0       0.0       0.1       0.3       0.0       0.1
12 H  s               1.4       6.5       0.0       0.0       2.5       0.0
12 H  pz              0.0       0.0       0.1       0.2       0.0       0.3
13 H  s               0.3       4.1       0.0       0.0       0.9       0.0
13 H  pz              0.0       0.0       0.2       0.2       0.0       0.3
14 H  s               2.4       0.5       0.1       2.0       0.1       0.2
15 H  s               2.4       0.5       0.1       2.1       0.1       0.2
16 H  s              14.3       0.6       0.0       0.0       0.1       0.0
16 H  px              0.1       0.0       0.0       0.0       0.0       0.0
16 H  py              0.1       0.1       0.0       0.0       0.0       0.0

                     30        31        32        33        34        35   
                  -0.03621   0.07464   0.10229   0.10628   0.10852   0.11739
                   0.00000   0.00000   0.00000   0.00000   0.00000   0.00000
                  --------  --------  --------  --------  --------  --------
 0 C  s               0.0      10.3       0.0      12.8      16.1       0.5
 0 C  pz              0.2       0.0       4.1       0.0       0.0       0.0
 0 C  px              0.0       3.1       0.0       2.8       3.6       1.1
 0 C  py              0.0       1.2       0.0       4.6       0.5      13.1
 0 C  dz2             0.0       0.1       0.0       0.0       0.0       0.1
 0 C  dxz             0.0       0.0       0.9       0.0       0.0       0.0
 0 C  dx2y2           0.0       0.2       0.0       0.1       0.1       0.6
 0 C  dxy             0.0       0.3       0.0       0.1       0.1       0.0
 1 C  s               0.0       5.4       0.0       3.2       0.4       1.8
 1 C  pz              0.2       0.0      11.0       0.0       0.0       0.0
 1 C  px              0.0       0.9       0.0       2.5       1.7       0.8
 1 C  py              0.0       0.3       0.0       0.4       0.2       2.3
 1 C  dz2             0.0       0.1       0.0       0.5       0.0       0.1
 1 C  dxz             0.2       0.0       0.3       0.0       0.0       0.0
 1 C  dyz             1.1       0.0       0.1       0.0       0.0       0.0
 1 C  dx2y2           0.0       0.2       0.0       0.5       0.1       0.8
 1 C  dxy             0.0       0.3       0.0       1.1       0.0       0.2
 2 C  s               0.0       6.4       0.0       0.8       1.0       7.3
 2 C  pz             23.9       0.0      12.7       0.0       0.0       0.0
 2 C  px              0.0       4.6       0.0       4.2       9.4       1.0
 2 C  py              0.0       0.9       0.0       6.1       1.0       2.9
 2 C  dz2             0.0       0.0       0.0       0.5       0.0       0.2
 2 C  dxz             0.4       0.0       0.4       0.0       0.0       0.0
 2 C  dx2y2           0.0       0.1       0.0       0.0       0.1       0.1
 2 C  dxy             0.0       0.3       0.0       1.3       0.1       0.3
 3 C  s               0.0       4.3       0.0       1.4       0.1       8.1
 3 C  pz             17.3       0.0      14.4       0.0       0.0       0.0
 3 C  px              0.0       0.5       0.0       0.2       0.4       0.6
 3 C  py              0.0       0.7       0.0       8.3       0.1       5.3
 3 C  dz2             0.0       0.1       0.0       0.5       0.0       0.1
 3 C  dxz             0.3       0.0       0.0       0.0       0.0       0.0
 3 C  dyz             0.1       0.0       0.5       0.0       0.0       0.0
 3 C  dx2y2           0.0       0.2       0.0       0.4       0.0       0.5
 3 C  dxy             0.0       0.1       0.0       0.0       0.0       0.1
 4 N  s               0.0       1.5       0.0       0.7       1.2       0.6
 4 N  pz              0.2       0.0      14.2       0.0       0.0       0.0
 4 N  px              0.0       0.1       0.0       0.2       1.4       0.3
 4 N  py              0.0       0.1       0.0       0.0       0.1       0.9
 4 N  dz2             0.0       1.3       0.0       1.9       0.9       2.1
 4 N  dxz             1.6       0.0       0.7       0.0       0.0       0.0
 4 N  dyz             8.1       0.0       0.3       0.0       0.0       0.0
 4 N  dx2y2           0.0       0.5       0.0       0.8       0.1       0.1
 4 N  dxy             0.0       0.9       0.0       1.2       0.0       0.1
 5 C  s               0.0       4.4       0.0       3.5       3.2       0.7
 5 C  pz             21.0       0.0      11.2       0.0       0.0       0.0
 5 C  px              0.0       0.1       0.0       0.2       0.8       0.5
 5 C  py              0.0       1.4       0.0       0.2       0.7       0.7
 5 C  dz2             0.0       0.2       0.0       0.8       0.2       0.1
 5 C  dxz             0.2       0.0       0.4       0.0       0.0       0.0
 5 C  dyz             0.0       0.0       0.3       0.0       0.0       0.0
 5 C  dx2y2           0.0       0.3       0.0       0.0       0.1       0.5
 6 C  s               0.0       9.0       0.0       3.8       2.3       0.3
 6 C  pz             18.0       0.0      11.4       0.0       0.0       0.0
 6 C  px              0.0       0.0       0.0       0.7       5.6       1.2
 6 C  py              0.0      10.9       0.0       1.9       1.3      20.0
 6 C  dz2             0.0       0.0       0.0       0.5       0.0       0.1
 6 C  dxz             0.5       0.0       0.0       0.0       0.0       0.0
 6 C  dyz             0.2       0.0       0.5       0.0       0.0       0.0
 6 C  dx2y2           0.0       0.3       0.0       0.7       0.1       0.4
 6 C  dxy             0.0       0.0       0.0       0.3       0.2       0.1
 7 C  s               0.0       4.9       0.0       3.0      18.6       1.8
 7 C  pz              0.1       0.0       2.3       0.0       0.0       0.0
 7 C  px              0.0       1.6       0.0       2.7       1.2       1.6
 7 C  py              0.0       0.7       0.0       0.2       2.4       0.9
 7 C  dz2             0.0       0.1       0.0       0.1       0.2       0.0
 7 C  dxz             0.3       0.0       0.3       0.0       0.0       0.0
 7 C  dyz             0.5       0.0       0.9       0.0       0.0       0.0
 7 C  dx2y2           0.0       0.1       0.0       0.0       0.2       0.1
 7 C  dxy             0.0       0.1       0.0       0.3       0.1       0.0
 8 H  s               0.2       1.4       1.9       1.4       2.0       0.2
 8 H  pz              0.0       0.5       0.2       0.6       0.8       0.1
 8 H  px              0.0       0.0       0.3       0.3       0.3       0.1
 8 H  py              0.0       0.3       0.0       0.0       0.3       0.1
 9 H  s               0.0       2.0       0.0       0.4       2.6       5.4
[...]
13 H  py              0.0       0.0       8.5       1.4      10.2       1.4
14 H  s               0.2       7.9       1.0       1.7       0.0       0.1
14 H  pz              0.2      10.8       2.2       3.4       0.1       0.1
14 H  px              0.0       0.1       0.0       0.2       0.0       0.0
14 H  py              0.2       8.4       0.5       0.6       0.0       0.0
15 H  s               0.2       8.0       0.9       1.7       0.0       0.1
15 H  pz              0.3      11.5       2.0       3.4       0.1       0.1
15 H  px              0.0       0.1       0.0       0.3       0.0       0.0
15 H  py              0.2       8.2       0.4       0.5       0.0       0.0
16 H  s               0.0       0.0       1.3       9.5       0.0       0.2
16 H  pz              0.0       0.4       0.0       0.0       0.0       0.0
16 H  px              0.0       0.0       1.7      12.9       0.0       0.2
16 H  py              0.0       0.0       0.9      10.1       0.1       0.1

                    192       193       194       195       196       197   
                   3.99125   4.12859  21.57636  21.93180  21.96439  22.04452
                   0.00000   0.00000   0.00000   0.00000   0.00000   0.00000
                  --------  --------  --------  --------  --------  --------
 0 C  s               0.1       0.0       5.1      51.2       4.3      11.4
 0 C  px              0.3       0.0       0.0       0.0       0.0       0.0
 0 C  py              0.2       0.0       0.0       0.0       0.0       0.0
 0 C  dx2y2           0.6       0.0       0.0       0.0       0.0       0.0
 0 C  dxy             0.6       0.0       0.0       0.0       0.0       0.0
 1 C  s               0.2       0.0      40.8       2.0       2.3       0.0
 1 C  px              0.4       0.1       0.0       0.1       0.0       0.0
 1 C  py              0.1       0.8       0.0       0.0       0.0       0.1
 1 C  dx2y2           1.4       0.8       0.0       0.0       0.0       0.0
 1 C  dxy             4.2       0.0       0.0       0.0       0.0       0.0
 2 C  s               0.2       0.1      21.2       1.8       9.6      31.3
 2 C  px              1.4       0.0       0.0       0.0       0.0       0.0
 2 C  py              0.2       0.9       0.0       0.0       0.0       0.0
 2 C  dx2y2           0.9       1.3       0.0       0.0       0.0       0.0
 2 C  dxy             9.2       0.3       0.0       0.0       0.0       0.0
 3 C  s               0.4       2.6       3.8      16.1       1.8       1.8
 3 C  px              0.0       4.2       0.0       0.0       0.0       0.0
 3 C  py              2.1       1.8       0.0       0.0       0.0       0.0
 3 C  dz2             0.1       0.5       0.0       0.0       0.0       0.0
 3 C  dx2y2          11.9       1.8       0.0       0.0       0.0       0.0
 3 C  dxy             0.3       5.9       0.0       0.0       0.0       0.0
 4 N  s               4.9       0.1       0.2       0.0       0.1       0.0
 4 N  px              0.2       4.7       0.0       0.0       0.0       0.0
 4 N  py              0.8      19.6       0.0       0.0       0.1       0.0
 4 N  dz2             4.4       0.0       0.0       0.0       0.0       0.0
 4 N  dx2y2           8.3      22.2       0.0       0.0       0.0       0.0
 4 N  dxy             8.0      12.2       0.0       0.0       0.0       0.0
 5 C  s               1.1       2.2       4.2      10.3      21.6       7.0
 5 C  px              0.4       0.1       0.0       0.0       0.0       0.1
 5 C  py              1.4       6.1       0.0       0.0       0.2       0.0
 5 C  dz2             0.7       0.7       0.0       0.0       0.0       0.0
 5 C  dx2y2           3.6       6.5       0.0       0.0       0.0       0.0
 5 C  dxy             4.8       0.3       0.0       0.0       0.0       0.0
 6 C  s               0.2       0.0      23.9       0.2      26.0       6.4
 6 C  px              0.0       0.8       0.0       0.0       0.0       0.0
 6 C  py              1.0       0.0       0.0       0.0       0.0       0.0
 6 C  dx2y2           7.2       0.0       0.0       0.0       0.0       0.0
 6 C  dxy             0.0       1.0       0.0       0.0       0.0       0.0
 7 C  s               0.0       0.0       0.4      18.0      33.7      41.6
 7 C  px              0.5       0.1       0.0       0.0       0.0       0.0
 7 C  dx2y2           0.3       0.0       0.0       0.0       0.0       0.0
 7 C  dxy             1.0       0.1       0.0       0.0       0.0       0.0
 9 H  s               0.1       0.0       0.0       0.0       0.0       0.0
 9 H  py              0.2       0.0       0.0       0.0       0.0       0.0
11 H  s               2.2       0.2       0.0       0.0       0.0       0.0
11 H  px              2.8       0.1       0.0       0.0       0.0       0.0
11 H  py              1.3       0.1       0.0       0.0       0.0       0.0
12 H  s               2.0       0.4       0.0       0.0       0.0       0.0
12 H  px              0.2       0.1       0.0       0.0       0.0       0.0
12 H  py              3.4       0.4       0.0       0.0       0.0       0.0
13 H  s               1.4       0.0       0.0       0.0       0.0       0.0
13 H  py              2.6       0.0       0.0       0.0       0.0       0.0
16 H  s               0.2       0.1       0.0       0.0       0.0       0.0
16 H  px              0.1       0.0       0.0       0.0       0.0       0.0
16 H  py              0.2       0.2       0.0       0.0       0.0       0.0

                    198       199       200       201   
                  22.08943  22.22121  22.26155  31.93065
                   0.00000   0.00000   0.00000   0.00000
                  --------  --------  --------  --------
 0 C  s              26.3       0.8       0.5       0.0
 1 C  s              16.9      35.9       1.7       0.0
 2 C  s               3.3      23.9       8.4       0.0
 3 C  s              22.4      10.2      43.1       0.0
 4 N  s               0.1       0.1       0.0      99.8
 4 N  py              0.0       0.0       0.1       0.0
 5 C  s              22.8       3.5      29.8       0.0
 6 C  s               6.3      21.6      15.2       0.0
 7 C  s               1.4       3.7       0.7       0.0


                      *****************************
                      * MAYER POPULATION ANALYSIS *
                      *****************************

  NA   - Mulliken gross atomic population
  ZA   - Total nuclear charge
  QA   - Mulliken gross atomic charge
  VA   - Mayer's total valence
  BVA  - Mayer's bonded valence
  FA   - Mayer's free valence

  ATOM       NA         ZA         QA         VA         BVA        FA
  0 C      6.5429     6.0000    -0.5429     3.7885     3.7885     0.0000
  1 C      5.8220     6.0000     0.1780     3.5025     3.5025    -0.0000
  2 C      6.1501     6.0000    -0.1501     3.6897     3.6897    -0.0000
  3 C      6.1190     6.0000    -0.1190     3.9545     3.9545     0.0000
  4 N      7.1888     7.0000    -0.1888     2.9914     2.9914    -0.0000
  5 C      5.7197     6.0000     0.2803     3.6091     3.6091     0.0000
  6 C      6.2580     6.0000    -0.2580     3.9459     3.9459     0.0000
  7 C      6.6039     6.0000    -0.6039     3.8768     3.8768    -0.0000
  8 H      0.8351     1.0000     0.1649     0.9571     0.9571     0.0000
  9 H      0.8469     1.0000     0.1531     0.9647     0.9647     0.0000
 10 H      0.8355     1.0000     0.1645     0.9572     0.9572    -0.0000
 11 H      0.8511     1.0000     0.1489     0.9700     0.9700    -0.0000
 12 H      0.8679     1.0000     0.1321     0.9686     0.9686    -0.0000
 13 H      0.8488     1.0000     0.1512     0.9694     0.9694    -0.0000
 14 H      0.8460     1.0000     0.1540     0.9597     0.9597    -0.0000
 15 H      0.8454     1.0000     0.1546     0.9594     0.9594    -0.0000
 16 H      0.8190     1.0000     0.1810     0.9588     0.9588    -0.0000

  Mayer bond orders larger than 0.100000
B(  0-C ,  1-C ) :   0.7984 B(  0-C ,  8-H ) :   0.9747 B(  0-C ,  9-H ) :   0.9931 
B(  0-C , 10-H ) :   0.9750 B(  1-C ,  2-C ) :   1.3209 B(  1-C ,  4-N ) :   0.1025 
B(  1-C ,  6-C ) :   1.4409 B(  2-C ,  3-C ) :   1.3886 B(  2-C , 11-H ) :   0.9385 
B(  3-C ,  4-N ) :   1.4513 B(  3-C , 12-H ) :   0.9881 B(  4-N ,  5-C ) :   1.3570 
B(  5-C ,  6-C ) :   1.4115 B(  5-C ,  7-C ) :   0.8249 B(  6-C , 13-H ) :   0.9050 
B(  7-C , 14-H ) :   0.9690 B(  7-C , 15-H ) :   0.9680 B(  7-C , 16-H ) :   1.0014 


-------
TIMINGS
-------

Total SCF time: 0 days 0 hours 0 min 13 sec 

Total time                  ....      13.673 sec
Sum of individual times     ....      13.436 sec  ( 98.3%)

SCF preparation             ....       0.286 sec  (  2.1%)
Fock matrix formation       ....      12.709 sec  ( 93.0%)
  Startup                   ....       0.008 sec  (  0.1% of F)
  Split-RI-J                ....       2.601 sec  ( 20.5% of F)
  XC integration            ....       9.998 sec  ( 78.7% of F)
    Basis function eval.    ....       1.772 sec  ( 17.7% of XC)
    Density eval.           ....       3.231 sec  ( 32.3% of XC)
    XC-Functional eval.     ....       1.170 sec  ( 11.7% of XC)
    XC-Potential eval.      ....       3.507 sec  ( 35.1% of XC)
Diagonalization             ....       0.000 sec  (  0.0%)
Density matrix formation    ....       0.040 sec  (  0.3%)
Total Energy calculation    ....       0.002 sec  (  0.0%)
Population analysis         ....       0.247 sec  (  1.8%)
Orbital Transformation      ....       0.020 sec  (  0.1%)
Orbital Orthonormalization  ....       0.000 sec  (  0.0%)
DIIS solution               ....       0.114 sec  (  0.8%)
  MO trafo                  ....       0.000 sec  (  0.0 % of DIIS)
  Orb grad                  ....       0.000 sec  (  0.0 % of DIIS)
  Energy W gradient         ....       0.000 sec  (  0.0 % of DIIS)
  DIIS error                ....       0.012 sec  ( 10.4 % of DIIS)
  DIIS work                 ....       0.091 sec  ( 79.7 % of DIIS)
  Form Q                    ....       0.000 sec  (  0.0 % of DIIS)
  Form QpQm                 ....       0.000 sec  (  0.0 % of DIIS)
  Exp/Cayley                ....       0.000 sec  (  0.0 % of DIIS)
  Orb update                ....       0.000 sec  (  0.0 % of DIIS)
  Wake-sleep                ....       0.001 sec  (  1.3 % of DIIS)
SOSCF solution              ....       0.017 sec  (  0.1%)
  MO trafo                  ....       0.012 sec  ( 74.0 % of SOSCF)
  Orb grad                  ....       0.000 sec  (  0.5 % of SOSCF)
  Rot update                ....       0.000 sec  (  0.1 % of SOSCF)
  Step                      ....       0.004 sec  ( 25.0 % of SOSCF)
Finished LeanSCF after  13.9 sec

Maximum memory used throughout the entire LEANSCF-calculation: 22.4 MB


-------------------------------------------------------------------------------
                          DFT DISPERSION CORRECTION                            
                                                                               
                                DFTD4 V3.4.0                                   
-------------------------------------------------------------------------------
The R2SCAN3C composite method is recognized
Using three-body term ABC
Active option DFTDOPT                   ...         5   

-------------------------   ----------------
Dispersion correction           -0.005202420
-------------------------   ----------------

------------------   -----------------
gCP correction             0.007753832
------------------   -----------------

-------------------------   --------------------
FINAL SINGLE POINT ENERGY      -326.824364113500
-------------------------   --------------------


------------------------------------------------------------------------------
                              ORCA PROPERTY CALCULATIONS
------------------------------------------------------------------------------

GBWName                                 ... sp.gbw
Number of atoms                         ...     17
Number of basis functions               ...    202
Max core memory                         ...   1024 MB

Electric properties:
Dipole moment                           ... YES
Quadrupole moment                       ...  NO
Static polarizability (Dipole/Dipole)   ...  NO
Static polarizability (Dipole/Quad.)    ...  NO
Static polarizability (Quad./Quad.)     ...  NO
Static polarizability (Velocity)        ...  NO

Atomic electric properties:
Dipole moment                           ...  NO
Quadrupole moment                       ...  NO
Static polarizability                   ...  NO

Choice of electric origin               ... Center of mass
Position of electric origin             ...     0.000003     0.000003     0.000000

General magnetic properties:
Magnetizability                         ...  NO

EPR properties:
g-Tensor (aka g-matrix)                 ...  NO
Zero-Field splitting spin-orbit         ...  NO
Zero-field splitting spin-spin          ...  NO
Hyperfine couplings                     ...  NO (   0 nuclei)
Quadrupole couplings                    ...  NO (   0 nuclei)
Contact density                         ...  NO (   0 nuclei)

NMR properties:
Chemical shifts                         ...  NO (   0 nuclei)
Spin-rotation constants                 ...  NO (   0 nuclei)
Spin-spin couplings                     ...  NO (   0 nuclei,    0 pairs)

Choice of magnetic origin               ... GIAO
Position of magnetic origin             ...     0.000000     0.000000     0.000000

Properties with geometric perturbations:
SCF Hessian                             ...  NO
IR spectrum                             ...  NO
VCD spectrum                            ...  NO
X-ray spectroscopy properties:
SCF XES/XAS/RIXS spectra                ...  NO


-------------
DIPOLE MOMENT
-------------

Method             : SCF
Type of density    : Electron Density
Multiplicity       :   1
Irrep              :   0
Energy             :  -326.8269155255476335 Eh
Relativity type    : 
Basis              : AO
                                X                 Y                 Z
Electronic contribution:      1.341923294      -3.843351384      -0.001143335
Nuclear contribution   :     -2.078198347       4.391720808       0.002035170
                        -----------------------------------------
Total Dipole Moment    :     -0.736275053       0.548369424       0.000891835
                        -----------------------------------------
Magnitude (a.u.)       :      0.918047261
Magnitude (Debye)      :      2.333490693



--------------------
Rotational spectrum 
--------------------
 
Rotational constants in cm-1:             0.128292             0.059864             0.041445 
Rotational constants in MHz :          3846.103212          1794.679911          1242.491882 

Dipole components along the rotational axes: 
x,y,z [a.u.] :    -0.736275     0.548369     0.000892 
x,y,z [Debye]:    -1.871463     1.393844     0.002267 

 

Dipole moment calculation done in   0.2 sec 

Maximum memory used throughout the entire PROP-calculation: 13.2 MB

--------------------------------
SUGGESTED CITATIONS FOR THIS RUN
--------------------------------

Below you find a list of papers that are relevant to this ORCA run
We neither can nor want to force you to cite these papers, but we appreciate if you do
You receive ORCA, which is the product of decades of hard work by many enthusiastic individuals, for free
The only thing we kindly ask in return is that you cite our papers,
We deeply appreciate it, if you show your appreciation for ORCA by not just citing the generic ORCA reference.

Please note that relegating all ORCA citations to the supporting information does *not* help us.
SI sections are not indexed - citations you put there will not count into any citation statistics
But we need these citations in order to attract the funding resources that allow us to do what we are doing

Therefore, if you are a happy ORCA user, please consider citing a few of the papers listed below in the main body of your paper

In addition to the list printed below, the program has created the file sp.bibtex that contains the list in bibtex format
You can import this file easily into all common literature databanks and citation aid programs


List of essential papers. We consider these as the minimum necessary citations

  1. Neese,F.
     Software update: the ORCA program system, version 5.0
     WIRES Comput. Molec. Sci., 2022 12(1)e1606
     doi.org/10.1002/wcms.1606
  2. Grimme,S.; Hansen,A.; Ehlert,S.; Mewes,J.
     r2SCAN-3c: A 'Swiss army knife' composite electronic-structure method
     J. Chem. Phys., 2021 154 064103
     doi.org/10.1063/5.0040021

List of papers to cite with high priority. The work reported in these papers was absolutely
necessary for this run to complete.
Our perspective: the developers of density functionals and basis sets usually get cited in chemistry papers
Good! But without the algorithms to do something with them, the functionals or basis sets would not do anything.
Hence, in our opinion, the algorithm design and method developments papers are equally worthy of getting cited

  1. Neese,F.
     An improvement of the resolution of the identity approximation for the formation of the Coulomb matrix
     J. Comp. Chem., 2003 24(14)1740-1747
     doi.org/10.1002/jcc.10318
  2. Neese,F.
     The SHARK Integral Generation and Digestion System
     J. Comp. Chem., 2022  1-16
     doi.org/10.1002/jcc.26942
  3. Lehtola,S.; Steigemann,C.; Oliveira,M.; Marques,M.
     Recent developments in Libxc - A comprehensive library of functionals for density functional theory
     Software X, 2018 7 
     doi.org/10.1016/j.softx.2017.11.002
  4. Caldeweyher,E.; Bannwarth,C.; Grimme,S.
     Extension of the D3 dispersion coefficient model
     J. Chem. Phys., 2017 147 034112
     doi.org/10.1063/1.4993215
  5. Caldeweyher,E.; Ehlert,S.; Hansen,A.; Neugebauer,H.; Spicher,S.; Bannwarth,C.; Grimme,S.
     A generally applicable atomic-charge dependent London dispersion correction
     J. Chem. Phys., 2019 150 154122
     doi.org/10.1063/1.5090222
  6. Caldeweyher,E.; Mewes,J.; Ehlert,S.; Grimme,S.
     Extension and evaluation of the D4 London-dispersion model for periodic systems
     Phys. Chem. Chem. Phys., 2020 22(16)8499-8512
     doi.org/10.1039/D0CP00502A
  7. Wittmann,L.; Gordiy,I.; Friede,M.; Helmich-Paris,B.; Grimme,S.; Hansen,A.; Bursch,M.
     Extension of the D3 and D4 London Dispersion Corrections to the full Actinides Series
     Phys. Chem. Chem. Phys., 2024 26(32)21379-21394
     doi.org/https://doi.org/10.1039/D4CP01514B 

List of suggested additional citations. These are papers that are important in the 'surrounding' of 
of this run, or papers that preceded the highly important papers. If you like your results we are grateful for a citation.

  1. Neese,F.
     The ORCA program system
     WIRES Comput. Molec. Sci., 2012 2(1)73-78
     doi.org/10.1002/wcms.81
  2. Neese,F.
     Software update: the ORCA program system, version 4.0
     WIRES Comput. Molec. Sci., 2018 8(1)1-6
     doi.org/10.1002/wcms.1327
  3. Neese,F.; Wennmohs,F.; Becker,U.; Riplinger,C.
     The ORCA quantum chemistry program package
     J. Chem. Phys., 2020 152 Art. No. L224108
     doi.org/10.1063/5.0004608

List of optional additional citations

  1. Neese,F.
     Approximate second-order SCF convergence for spin unrestricted wavefunctions
     Chem. Phys. Lett., 2000 325(1-3)93-98
     doi.org/10.1016/s0009-2614(00)00662-x

Timings for individual modules:

Sum of individual times          ...       15.041 sec (=   0.251 min)
Startup calculation              ...        0.794 sec (=   0.013 min)   5.3 %
SCF iterations                   ...       14.014 sec (=   0.234 min)  93.2 %
Property calculations            ...        0.232 sec (=   0.004 min)   1.5 %
                             ****ORCA TERMINATED NORMALLY****
TOTAL RUN TIME: 0 days 0 hours 0 minutes 16 seconds 656 msec
