
                                 *****************
                                 * O   R   C   A *
                                 *****************

                                            #,                                       
                                            ###                                      
                                            ####                                     
                                            #####                                    
                                            ######                                   
                                           ########,                                 
                                     ,,################,,,,,                         
                               ,,#################################,,                 
                          ,,##########################################,,             
                       ,#########################################, ''#####,          
                    ,#############################################,,   '####,        
                  ,##################################################,,,,####,       
                ,###########''''           ''''###############################       
              ,#####''   ,,,,##########,,,,          '''####'''          '####       
            ,##' ,,,,###########################,,,                        '##       
           ' ,,###''''                  '''############,,,                           
         ,,##''                                '''############,,,,        ,,,,,,###''
      ,#''                                            '''#######################'''  
     '                                                          ''''####''''         
             ,#######,   #######,   ,#######,      ##                                
            ,#'     '#,  ##    ##  ,#'     '#,    #''#        ,####,   ,####,        
            ##       ##  ##   ,#'  ##            #'  '#       #'       #'  '#        
            ##       ##  #######   ##           ,######,      #####,   #    #        
            '#,     ,#'  ##    ##  '#,     ,#' ,#      #,     #,   #   #,  ,#        
             '#######'   ##     ##  '#######'  #'      '#     '####' # '####'        



                #########################################################
                #                        -***-                          #
                #          Department of theory and spectroscopy        #
                #                                                       #
                #                      Frank Neese                      #
                #                                                       #
                #     Directorship, Architecture, Infrastructure        #
                #                    SHARK, DRIVERS                     #
                #        Core code/Algorithms in most modules           #
                #                                                       #
                #        Max Planck Institute fuer Kohlenforschung      #
                #                Kaiser Wilhelm Platz 1                 #
                #                 D-45470 Muelheim/Ruhr                 #
                #                      Germany                          #
                #                                                       #
                #                  All rights reserved                  #
                #                        -***-                          #
                #########################################################


                         Program Version 6.0.0  -   RELEASE  -


 With contributions from (in alphabetic order):
   Daniel Aravena         : Magnetic Suceptibility
   Michael Atanasov       : Ab Initio Ligand Field Theory (pilot matlab implementation)
   Alexander A. Auer      : GIAO ZORA, VPT2 properties, NMR spectrum
   Ute Becker             : All parallelization in ORCA, NUMFREQ, NUMCALC
   Giovanni Bistoni       : ED, misc. LED, open-shell LED, HFLD
   Martin Brehm           : Molecular dynamics
   Dmytro Bykov           : pre 5.0 version of the SCF Hessian
   Marcos Casanova-Páez   : Triplet and SCS-CIS(D). UHF-(DLPNO)-IP/EA/STEOM-CCSD. UHF-CVS-IP/STEOM-CCSD
   Vijay G. Chilkuri      : MRCI spin determinant printing, contributions to CSF-ICE
   Pauline Colinet        : FMM embedding
   Dipayan Datta          : RHF DLPNO-CCSD density
   Achintya Kumar Dutta   : EOM-CC, STEOM-CC
   Nicolas Foglia         : Exact transition moments, OPA infrastructure, MCD improvements
   Dmitry Ganyushin       : Spin-Orbit,Spin-Spin,Magnetic field MRCI
   Miquel Garcia          : C-PCM and meta-GGA Hessian, CCSD/C-PCM, Gaussian charge scheme
   Tiago L. C. Gouveia    : GS-ROHF, GS-ROCIS
   Yang Guo               : DLPNO-NEVPT2, F12-NEVPT2, CIM, IAO-localization
   Andreas Hansen         : Spin unrestricted coupled pair/coupled cluster methods
   Ingolf Harden          : AUTO-CI MPn and infrastructure 
   Benjamin Helmich-Paris : MC-RPA, TRAH-(SCF,CASSCF), AVAS, COSX integrals, SCF dyn. polar.
   Lee Huntington         : MR-EOM, pCC
   Robert Izsak           : Overlap fitted RIJCOSX, COSX-SCS-MP3, EOM
   Riya Kayal             : Wick's Theorem for AUTO-CI, AUTO-CI UHF-CCSDT
   Emily Kempfer          : AUTO-CI, RHF CISDT and CCSDT
   Christian Kollmar      : KDIIS, OOCD, Brueckner-CCSD(T), CCSD density, CASPT2, CASPT2-K, improved NEVPT2
   Axel Koslowski         : Symmetry handling
   Simone Kossmann        : Meta GGA functionals, TD-DFT gradient, OOMP2, (MP2 Hessian; deprecated post 5.0)
   Lucas Lang             : DCDCAS
   Marvin Lechner         : AUTO-CI (C++ implementation), FIC-MRCC
   Spencer Leger          : CASSCF response
   Dagmar Lenk            : GEPOL surface, SMD, ORCA-2-JSON
   Dimitrios Liakos       : Extrapolation schemes; Compound Job, initial MDCI parallelization
   Dimitrios Manganas     : Further ROCIS development; embedding schemes. LFT, Crystal Embedding
   Dimitrios Pantazis     : SARC Basis sets
   Anastasios Papadopoulos: AUTO-CI, single reference methods and gradients
   Taras Petrenko         : pre 6.0 DFT Hessian and TD-DFT gradient, (ASA, deprecated), ECA, 1-Electron XAS/XES, NRVS
   Peter Pinski           : DLPNO-MP2, DLPNO-MP2 Gradient
   Christoph Reimann      : Effective Core Potentials
   Marius Retegan         : Local ZFS, SOC
   Christoph Riplinger    : Optimizer, TS searches, QM/MM, DLPNO-CCSD(T), (RO)-DLPNO pert. Triples
   Michael Roemelt        : Original ROCIS implementation
   Masaaki Saitow         : Open-shell DLPNO-CCSD energy and density
   Barbara Sandhoefer     : DKH picture change effects
   Kantharuban Sivalingam : CASSCF convergence/infrastructure, NEVPT2 and variants, FIC-MRCI
   Bernardo de Souza      : ESD, SOC TD-DFT
   Georgi Stoychev        : AutoAux, RI-MP2 NMR, DLPNO-MP2 response, X2C
   Van Anh Tran           : RI-MP2 g-tensors
   Willem Van den Heuvel  : Paramagnetic NMR
   Zikuan Wang            : NOTCH, Electric field optimization 
   Frank Wennmohs         : Technical directorship and infrastructure
   Hang Xu                : AUTO-CI-Response properties 


 We gratefully acknowledge several colleagues who have allowed us to
 interface, adapt or use parts of their codes:
   Stefan Grimme, W. Hujo, H. Kruse, P. Pracht,  : VdW corrections, initial TS optimization,
                  C. Bannwarth, S. Ehlert,         DFT functionals, gCP, sTDA/sTD-DF
                  L. Wittmann, M. Mueller
   Ed Valeev, F. Pavosevic, A. Kumar             : LibInt (2-el integral package), F12 methods
   Garnet Chan, S. Sharma, J. Yang, R. Olivares  : DMRG
   Ulf Ekstrom                                   : XCFun DFT Library
   Mihaly Kallay                                 : mrcc  (arbitrary order and MRCC methods)
   Frank Weinhold                                : gennbo (NPA and NBO analysis)
   Simon Mueller                                 : openCOSMO-RS
   Christopher J. Cramer and Donald G. Truhlar   : smd solvation model
   Lars Goerigk                                  : TD-DFT with DH, B97 family of functionals
   V. Asgeirsson, H. Jonsson                     : NEB implementation
   FAccTs GmbH                                   : IRC, NEB, NEB-TS, DLPNO-Multilevel, CI-OPT
                                                   MM, QMMM, 2- and 3-layer-ONIOM, Crystal-QMMM,
                                                   LR-CPCM, SF, NACMEs, symmetry and pop. for TD-DFT,
                                                   nearIR, NL-DFT gradient (VV10), updates on ESD,
                                                   ML-optimized integration grids, MBIS, APM,
                                                   GOAT, DOCKER, SOLVATOR, interface openCOSMO-RS
   S Lehtola, MJT Oliveira, MAL Marques          : LibXC Library
   Liviu Ungur et al                             : ANISO software


 Your calculation uses the libint2 library for the computation of 2-el integrals
 For citations please refer to: http://libint.valeyev.net

 Your ORCA version has been built with support for libXC version: 6.2.2
 For citations please refer to: https://libxc.gitlab.io

 This ORCA versions uses:
   CBLAS   interface :  Fast vector & matrix operations
   LAPACKE interface :  Fast linear algebra routines
   SCALAPACK package :  Parallel linear algebra routines
   Shared memory     :  Shared parallel matrices
   BLAS/LAPACK       :  OpenBLAS 0.3.27  USE64BITINT DYNAMIC_ARCH NO_AFFINITY SkylakeX SINGLE_THREADED
        Core in use  :  SkylakeX
   Copyright (c) 2011-2014, The OpenBLAS Project




***************************************
The coordinates will be read from file: vacuum_censo.xyz
***************************************


Your calculation utilizes the geometrical counterpoise correction gCP
Please cite in your paper:
H.Kruse, S. Grimme J.Chem.Phys., 136, (2012), 154101 
   

Your calculation utilizes the atom-pairwise dispersion correction
based on EEQ partial charges (D4)


================================================================================

----- Orbital basis set information -----
Your calculation utilizes the basis: def2-TZVP
   F. Weigend and R. Ahlrichs, Phys. Chem. Chem. Phys. 7, 3297 (2005).

----- AuxJ basis set information -----
Your calculation utilizes the basis: def2-mTZVPP/J
   Stefan Grimme, Andreas Hansen, Sebastian Ehlert, and Jan-Michael Mewes 
   J. Chem. Phys. 154, 000000 (2021). DOI: 10.1063/5.0040021

================================================================================
                                        WARNINGS
                       Please study these warnings very carefully!
================================================================================

Using LibXC functional ID 497 : Re-regularized SCAN exchange by Furness et al
[ 1]  J. W. Furness, A. D. Kaplan, J. Ning, J. P. Perdew, and J. Sun.,  J. Phys. Chem. Lett. 11, 8208-8215 (2020)
[ 2]  J. W. Furness, A. D. Kaplan, J. Ning, J. P. Perdew, and J. Sun.,  J. Phys. Chem. Lett. 11, 9248-9248 (2020)
Using LibXC functional ID 498 : Re-regularized SCAN correlation by Furness et al
[ 1]  J. W. Furness, A. D. Kaplan, J. Ning, J. P. Perdew, and J. Sun.,  J. Phys. Chem. Lett. 11, 8208-8215 (2020)
[ 2]  J. W. Furness, A. D. Kaplan, J. Ning, J. P. Perdew, and J. Sun.,  J. Phys. Chem. Lett. 11, 9248-9248 (2020)
Using LibXC functional ID 497 : Re-regularized SCAN exchange by Furness et al
[ 1]  J. W. Furness, A. D. Kaplan, J. Ning, J. P. Perdew, and J. Sun.,  J. Phys. Chem. Lett. 11, 8208-8215 (2020)
[ 2]  J. W. Furness, A. D. Kaplan, J. Ning, J. P. Perdew, and J. Sun.,  J. Phys. Chem. Lett. 11, 9248-9248 (2020)
Using LibXC functional ID 498 : Re-regularized SCAN correlation by Furness et al
[ 1]  J. W. Furness, A. D. Kaplan, J. Ning, J. P. Perdew, and J. Sun.,  J. Phys. Chem. Lett. 11, 8208-8215 (2020)
[ 2]  J. W. Furness, A. D. Kaplan, J. Ning, J. P. Perdew, and J. Sun.,  J. Phys. Chem. Lett. 11, 9248-9248 (2020)

================================================================================
                                       INPUT FILE
================================================================================
NAME = vacuum_censo.inp
|  1> ! r2SCAN-3c DEF2-TZVP FREQ
|  2> * xyzfile 0 1 vacuum_censo.xyz
|  3> 
|  4>                          ****END OF INPUT****
================================================================================

                       ****************************
                       * Single Point Calculation *
                       ****************************

---------------------------------
CARTESIAN COORDINATES (ANGSTROEM)
---------------------------------
  C      1.840662   -0.118997    0.000091
  C      0.605907    0.397381    0.000043
  C     -0.605907   -0.397398    0.000007
  C     -1.840661    0.118978    0.000032
  H      2.721819    0.513008    0.000026
  H      1.999409   -1.194206    0.000028
  H      0.475531    1.479291    0.000006
  H     -0.475522   -1.479305   -0.000010
  H     -2.721813   -0.513033    0.000025
  H     -1.999412    1.194186    0.000043

----------------------------
CARTESIAN COORDINATES (A.U.)
----------------------------
  NO LB      ZA    FRAG     MASS         X           Y           Z
   0 C     6.0000    0    12.011    3.478347   -0.224872    0.000171
   1 C     6.0000    0    12.011    1.144998    0.750941    0.000081
   2 C     6.0000    0    12.011   -1.144999   -0.750973    0.000013
   3 C     6.0000    0    12.011   -3.478345    0.224836    0.000060
   4 H     1.0000    0     1.008    5.143492    0.969445    0.000049
   5 H     1.0000    0     1.008    3.778336   -2.256723    0.000053
   6 H     1.0000    0     1.008    0.898623    2.795455    0.000012
   7 H     1.0000    0     1.008   -0.898606   -2.795481   -0.000019
   8 H     1.0000    0     1.008   -5.143482   -0.969491    0.000046
   9 H     1.0000    0     1.008   -3.778341    2.256685    0.000082

--------------------------------
INTERNAL COORDINATES (ANGSTROEM)
--------------------------------
 C      0   0   0     0.000000000000     0.00000000     0.00000000
 C      1   0   0     1.338381983769     0.00000000     0.00000000
 C      2   1   0     1.449194932625   124.04596584     0.00000000
 C      3   2   1     1.338379846503   124.04604559   179.99623076
 H      1   2   3     1.084374696867   121.65540602   179.99438338
 H      1   2   3     1.086865132758   121.09349142     0.00000000
 H      2   1   3     1.089737173227   119.56613801   180.00136875
 H      3   2   1     1.089735739845   116.38739280     0.00000000
 H      4   3   2     1.084374028607   121.65510601   180.00134253
 H      4   3   2     1.086864537206   121.09359821     0.00000000

---------------------------
INTERNAL COORDINATES (A.U.)
---------------------------
 C      0   0   0     0.000000000000     0.00000000     0.00000000
 C      1   0   0     2.529175411898     0.00000000     0.00000000
 C      2   1   0     2.738581537327   124.04596584     0.00000000
 C      3   2   1     2.529171373050   124.04604559   179.99623076
 H      1   2   3     2.049171203632   121.65540602   179.99438338
 H      1   2   3     2.053877445420   121.09349142     0.00000000
 H      2   1   3     2.059304815352   119.56613801   180.00136875
 H      3   2   1     2.059302106653   116.38739280     0.00000000
 H      4   3   2     2.049169940804   121.65510601   180.00134253
 H      4   3   2     2.053876319990   121.09359821     0.00000000

---------------------
BASIS SET INFORMATION
---------------------
There are 2 groups of distinct atoms

 Group   1 Type C   : 11s6p2d1f contracted to 5s3p2d1f pattern {62111/411/11/1}
 Group   2 Type H   : 5s1p contracted to 3s1p pattern {311/1}

Atom   0C    basis set group =>   1
Atom   1C    basis set group =>   1
Atom   2C    basis set group =>   1
Atom   3C    basis set group =>   1
Atom   4H    basis set group =>   2
Atom   5H    basis set group =>   2
Atom   6H    basis set group =>   2
Atom   7H    basis set group =>   2
Atom   8H    basis set group =>   2
Atom   9H    basis set group =>   2
---------------------------------
AUXILIARY/J BASIS SET INFORMATION
---------------------------------
There are 2 groups of distinct atoms

 Group   1 Type C   : 8s3p3d contracted to 6s3p3d pattern {311111/111/111}
 Group   2 Type H   : 5s2p1d contracted to 3s1p1d pattern {311/2/1}

Atom   0C    basis set group =>   1
Atom   1C    basis set group =>   1
Atom   2C    basis set group =>   1
Atom   3C    basis set group =>   1
Atom   4H    basis set group =>   2
Atom   5H    basis set group =>   2
Atom   6H    basis set group =>   2
Atom   7H    basis set group =>   2
Atom   8H    basis set group =>   2
Atom   9H    basis set group =>   2
------------------------------------------------------------------------------
                             ORCA STARTUP CALCULATIONS
                           -- RI-GTO INTEGRALS CHOSEN --
------------------------------------------------------------------------------
------------------------------------------------------------------------------
                   ___                                                        
                  /   \      - P O W E R E D   B Y -                         
                 /     \                                                     
                 |  |  |   _    _      __       _____    __    __             
                 |  |  |  | |  | |    /  \     |  _  \  |  |  /  |          
                  \  \/   | |  | |   /    \    | | | |  |  | /  /          
                 / \  \   | |__| |  /  /\  \   | |_| |  |  |/  /          
                |  |  |   |  __  | /  /__\  \  |    /   |      \           
                |  |  |   | |  | | |   __   |  |    \   |  |\   \          
                \     /   | |  | | |  |  |  |  | |\  \  |  | \   \       
                 \___/    |_|  |_| |__|  |__|  |_| \__\ |__|  \__/        
                                                                              
                      - O R C A' S   B I G   F R I E N D -                    
                                      &                                       
                       - I N T E G R A L  F E E D E R -                       
                                                                              
 v1 FN, 2020, v2 2021, v3 2022-2024                                           
------------------------------------------------------------------------------


----------------------
SHARK INTEGRAL PACKAGE
----------------------

Number of atoms                             ...     10
Number of basis functions                   ...    160
Number of shells                            ...     68
Maximum angular momentum                    ...      3
Integral batch strategy                     ... SHARK/LIBINT Hybrid
RI-J (if used) integral strategy            ... SPLIT-RIJ (Revised 2003 algorithm where possible)
Printlevel                                  ...      1
Contraction scheme used                     ... SEGMENTED contraction
Prescreening option                         ... SCHWARTZ
   Thresh                                   ... 1.000e-10
   Tcut                                     ... 1.000e-11
   Tpresel                                  ... 1.000e-11 
Coulomb Range Separation                    ... NOT USED
Exchange Range Separation                   ... NOT USED
Multipole approximations                    ... NOT USED
Finite Nucleus Model                        ... NOT USED
CABS basis                                  ... NOT available
Auxiliary Coulomb fitting basis             ... AVAILABLE
   # of basis functions in Aux-J            ...    186
   # of shells in Aux-J                     ...     78
   Maximum angular momentum in Aux-J        ...      2
Auxiliary J/K fitting basis                 ... NOT available
Auxiliary Correlation fitting basis         ... NOT available
Auxiliary 'external' fitting basis          ... NOT available

Checking pre-screening integrals            ... done (  0.0 sec) Dimension = 68
Check shell pair data                       ... done (  0.0 sec)
Shell pair information
Shell pair cut-off parameter TPreSel        ...   1.0e-11
Total number of shell pairs                 ...      2346
Shell pairs after pre-screening             ...      2255
Total number of primitive shell pairs       ...      6892
Primitive shell pairs kept                  ...      5411
          la=0 lb=0:    696 shell pairs
          la=1 lb=0:    658 shell pairs
          la=1 lb=1:    165 shell pairs
          la=2 lb=0:    296 shell pairs
          la=2 lb=1:    142 shell pairs
          la=2 lb=2:     36 shell pairs
          la=3 lb=0:    148 shell pairs
          la=3 lb=1:     72 shell pairs
          la=3 lb=2:     32 shell pairs
          la=3 lb=3:     10 shell pairs

Calculating one electron integrals          ... done (  0.0 sec)
Calculating RI/J V-Matrix + Cholesky decomp.... done (  0.0 sec)
Calculating Nuclear repulsion               ... done (  0.0 sec) ENN=    103.869379431126 Eh

Diagonalization of the overlap matrix:
Smallest eigenvalue                        ... 1.720e-04
Time for diagonalization                   ...    0.003 sec
Threshold for overlap eigenvalues          ... 1.000e-07
Number of eigenvalues below threshold      ... 0
Time for construction of square roots      ...    0.014 sec
Total time needed                          ...    0.024 sec

-------------------
DFT GRID GENERATION
-------------------

General Integration Accuracy     IntAcc      ... 4.388
Radial Grid Type                 RadialGrid  ... OptM3 with GC (2021)
Angular Grid (max. ang.)         AngularGrid ... 4 (Lebedev-302)
Angular grid pruning method      GridPruning ... 4 (adaptive)
Weight generation scheme         WeightScheme... mBecke (2022)
Basis function cutoff            BFCut       ... 1.0000e-10
Integration weight cutoff        WCut        ... 1.0000e-14
Partially contracted basis set               ... off
Rotationally invariant grid construction     ... off
Angular grids for H and He will be reduced by one unit

Total number of grid points                  ...    43782
Total number of batches                      ...      688
Average number of points per batch           ...       63
Average number of grid points per atom       ...     4378
Initializing property integral containers    ... done (  0.0 sec)

SHARK setup successfully completed in   0.6 seconds

Maximum memory used throughout the entire STARTUP-calculation: 20.5 MB
-------------------------------------------------------------------------------
                                 ORCA GUESS
                   Start orbitals & Density for SCF / CASSCF
-------------------------------------------------------------------------------

------------
SCF SETTINGS
------------
Hamiltonian:
 Density Functional     Method          .... DFT(GTOs)
  Functional kind                       .... Exchange
  Functional name                       .... Re-regularized SCAN exchange by Furness et al
  Functional family                     .... MGGA
  Functional refs                              
    [ 0] J. W. Furness, A. D. Kaplan, J. Ning, J. P. Perdew, and J. Sun.,  J. Phys. Chem. Lett. 11, 8208-8215 (2020), doi: 10.1021/acs.jpclett.0c02405
    [ 1] J. W. Furness, A. D. Kaplan, J. Ning, J. P. Perdew, and J. Sun.,  J. Phys. Chem. Lett. 11, 9248-9248 (2020), doi: 10.1021/acs.jpclett.0c03077
  Functional external parameters        .... 6
    Parameter  0 _c1        =  6.670000e-01 : c1 parameter        
    Parameter  1 _c2        =  8.000000e-01 : c2 parameter        
    Parameter  2 _d         =  1.240000e+00 : d parameter         
    Parameter  3 _k1        =  6.500000e-02 : k1 parameter        
    Parameter  4 _eta       =  1.000000e-03 : eta parameter       
    Parameter  5 _dp2       =  3.610000e-01 : dp2 parameter       
  Functional kind                       .... Correlation
  Functional name                       .... Re-regularized SCAN correlation by Furness et al
  Functional family                     .... MGGA
  Functional refs                              
    [ 0] J. W. Furness, A. D. Kaplan, J. Ning, J. P. Perdew, and J. Sun.,  J. Phys. Chem. Lett. 11, 8208-8215 (2020), doi: 10.1021/acs.jpclett.0c02405
    [ 1] J. W. Furness, A. D. Kaplan, J. Ning, J. P. Perdew, and J. Sun.,  J. Phys. Chem. Lett. 11, 9248-9248 (2020), doi: 10.1021/acs.jpclett.0c03077
  Functional external parameters        .... 1
    Parameter  0 _eta       =  1.000000e-03 : Regularization parameter
 Gradients option       PostSCFGGA      .... off
 RI-approximation to the Coulomb term is turned on
   Number of AuxJ basis functions       .... 186


General Settings:
 Integral files         IntName         .... vacuum_censo
 Hartree-Fock type      HFTyp           .... RHF
 Total Charge           Charge          ....    0
 Multiplicity           Mult            ....    1
 Number of Electrons    NEL             ....   30
 Basis Dimension        Dim             ....  160
 Nuclear Repulsion      ENuc            ....    103.8693794311 Eh

Convergence Acceleration:
 AO-DIIS                CNVDIIS         .... on
   Start iteration      DIISMaxIt       ....    12
   Startup error        DIISStart       ....  0.200000
   # of expansion vecs  DIISMaxEq       ....     5
   Bias factor          DIISBfac        ....   1.050
   Max. coefficient     DIISMaxC        ....  10.000
 MO-DIIS                CNVKDIIS        .... off
 Trust-Rad. Augm. Hess. CNVTRAH         .... auto
   Auto Start mean grad. ratio tolernc. ....  1.125000
   Auto Start start iteration           ....    50
   Auto Start num. interpolation iter.  ....    10
   Max. Number of Micro iterations      ....    24
   Max. Number of Macro iterations      .... Maxiter - #DIIS iter
   Number of Davidson start vectors     ....     2
   Converg. threshold    (grad. norm)   ....   5.000e-05
   Grad. Scal. Fac. for Micro threshold ....   0.100
   Minimum threshold for Micro iter.    ....   1.000e-02
   NR start threshold (gradient norm)   ....   1.000e-04
   Initial trust radius                 ....   0.400
   Minimum AH scaling param. (alpha)    ....   1.000
   Maximum AH scaling param. (alpha)    .... 1000.000
   Quad. conv. algorithm                .... NR
   White noise on init. David. guess    .... on
   Maximum white noise                  ....   0.010
   Pseudo random numbers                .... off
   Inactive MOs                         .... canonical
   Orbital update algorithm             .... Taylor
   Preconditioner                       .... Diag
   Full preconditioner red. dimension   ....   250
   COSX micro iterations for RIJONX calc.... off
 SOSCF                  CNVSOSCF        .... on
   Start iteration      SOSCFMaxIt      ....   150
   Startup grad/error   SOSCFStart      ....  0.003300
   Hessian update       SOSCFHessUp     .... L-BFGS
 Level Shifting         CNVShift        .... on
   Level shift para.    LevelShift      ....    0.2500
   Turn off err/grad.   ShiftErr        ....    0.0010
 Zerner damping         CNVZerner       .... off
 Static damping         CNVDamp         .... on
   Fraction old density DampFac         ....    0.7000
   Max. Damping (<1)    DampMax         ....    0.9800
   Min. Damping (>=0)   DampMin         ....    0.0000
   Turn off err/grad.   DampErr         ....    0.1000

SCF Procedure:
 Maximum # iterations   MaxIter         ....   125
 SCF integral mode      SCFMode         .... Direct
   Integral package                     .... SHARK and LIBINT hybrid scheme
 Reset frequency        DirectResetFreq ....    20
 Integral Threshold     Thresh          ....  1.000e-10 Eh
 Primitive CutOff       TCut            ....  1.000e-11 Eh

Convergence Tolerance:
 Convergence Check Mode ConvCheckMode   .... Total+1el-Energy
 Convergence forced     ConvForced      .... 0
 Energy Change          TolE            ....  1.000e-06 Eh
 1-El. energy change                    ....  1.000e-03 Eh
 Orbital Gradient       TolG            ....  5.000e-05
 Orbital Rotation angle TolX            ....  5.000e-05
 DIIS Error             TolErr          ....  1.000e-06

------------------------------
INITIAL GUESS: MODEL POTENTIAL
------------------------------
Loading Hartree-Fock densities                     ... done
Calculating cut-offs                               ... done
Initializing the effective Hamiltonian             ... done
Setting up the integral package (SHARK)            ... done
Starting the Coulomb interaction                   ... done (   0.1 sec)
Making the grid                                    ... done (   0.1 sec)
Mapping shells                                     ... done
Starting the XC term evaluation                    ... done (   0.1 sec)
  promolecular density results
     # of electrons  =     30.000063665
     EX              =    -22.161079937
     EC              =     -0.945891663
     EX+EC           =    -23.106971600
Transforming the Hamiltonian                       ... done (   0.0 sec)
Diagonalizing the Hamiltonian                      ... done (   0.0 sec)
Back transforming the eigenvectors                 ... done (   0.0 sec)
Now organizing SCF variables                       ... done
                      ------------------
                      INITIAL GUESS DONE (   0.3 sec)
                      ------------------
             **** ENERGY FILE WAS UPDATED (vacuum_censo.en.tmp) ****
Finished Guess after   0.5 sec
Maximum memory used throughout the entire GUESS-calculation: 11.9 MB

-------------------------------------------------------------------------------------------
                                      ORCA LEAN-SCF
                              memory conserving SCF solver
-------------------------------------------------------------------------------------------

----------------------------------------D-I-I-S--------------------------------------------
Iteration    Energy (Eh)           Delta-E    RMSDP     MaxDP     DIISErr   Damp  Time(sec)
-------------------------------------------------------------------------------------------
               ***  Starting incremental Fock matrix formation  ***
    1    -155.8233120695422258     0.00e+00  1.48e-03  2.99e-02  1.56e-01  0.700   1.4
    2    -155.8815088768024566    -5.82e-02  1.09e-03  2.02e-02  8.45e-02  0.700   1.4
                               ***Turning on AO-DIIS***
    3    -155.9059049922962004    -2.44e-02  5.18e-04  7.17e-03  3.38e-02  0.700   1.3
    4    -155.9196377680093519    -1.37e-02  1.06e-03  1.50e-02  1.60e-02  0.000   1.3
    5    -155.9491168677966471    -2.95e-02  1.61e-04  2.11e-03  6.72e-03  0.000   1.3
                              *** Initializing SOSCF ***
---------------------------------------S-O-S-C-F--------------------------------------
Iteration    Energy (Eh)           Delta-E    RMSDP     MaxDP     MaxGrad    Time(sec)
--------------------------------------------------------------------------------------
    6    -155.9493355906337229    -2.19e-04  7.65e-05  1.09e-03  2.00e-03     1.3
               *** Restarting incremental Fock matrix formation ***
    7    -155.9493522567659056    -1.67e-05  5.22e-05  7.31e-04  3.85e-04     1.3
    8    -155.9493485981999470     3.66e-06  2.17e-05  4.41e-04  8.40e-04     1.2
    9    -155.9493541840825515    -5.59e-06  6.11e-06  8.87e-05  5.02e-05     1.2
   10    -155.9493541636016403     2.05e-08  3.35e-06  5.05e-05  6.37e-05     1.2
                 **** Energy Check signals convergence ****

               *****************************************************
               *                     SUCCESS                       *
               *           SCF CONVERGED AFTER  10 CYCLES          *
               *****************************************************

             **** ENERGY FILE WAS UPDATED (vacuum_censo.en.tmp) ****

----------------
TOTAL SCF ENERGY
----------------

Total Energy       :       -155.94935416360164 Eh           -4243.59767 eV

Components:
Nuclear Repulsion  :        103.86937943112639 Eh            2826.42951 eV
Electronic Energy  :       -259.81873359472803 Eh           -7070.02717 eV
One Electron Energy:       -413.72699690430369 Eh          -11258.08394 eV
Two Electron Energy:        153.90826330957566 Eh            4188.05676 eV

Virial components:
Potential Energy   :       -311.11171952057498 Eh           -8465.78028 eV
Kinetic Energy     :        155.16236535697331 Eh            4222.18261 eV
Virial Ratio       :          2.00507203409034

DFT components:
N(Alpha)           :       15.000003003355 electrons
N(Beta)            :       15.000003003355 electrons
N(Total)           :       30.000006006709 electrons
E(X)               :      -22.883143819875 Eh       
E(C)               :       -0.917367551546 Eh       
E(XC)              :      -23.800511371421 Eh       

---------------
SCF CONVERGENCE
---------------

  Last Energy change         ...   -2.0481e-08  Tolerance :   1.0000e-06
  Last MAX-Density change    ...    5.0527e-05  Tolerance :   1.0000e-05
  Last RMS-Density change    ...    3.3547e-06  Tolerance :   1.0000e-06
  Last DIIS Error            ...    1.9987e-03  Tolerance :   1.0000e-06
  Last Orbital Gradient      ...    6.3733e-05  Tolerance :   5.0000e-05
  Last Orbital Rotation      ...    6.3092e-05  Tolerance :   5.0000e-05


----------------
ORBITAL ENERGIES
----------------

  NO   OCC          E(Eh)            E(eV) 
   0   2.0000     -10.043102      -273.2867 
   1   2.0000     -10.042845      -273.2797 
   2   2.0000     -10.033329      -273.0208 
   3   2.0000     -10.033323      -273.0206 
   4   2.0000      -0.776221       -21.1220 
   5   2.0000      -0.703267       -19.1369 
   6   2.0000      -0.576793       -15.6953 
   7   2.0000      -0.522654       -14.2221 
   8   2.0000      -0.437228       -11.8976 
   9   2.0000      -0.433428       -11.7942 
  10   2.0000      -0.363839        -9.9006 
  11   2.0000      -0.356927        -9.7125 
  12   2.0000      -0.317638        -8.6434 
  13   2.0000      -0.307270        -8.3612 
  14   2.0000      -0.219876        -5.9831 
  15   0.0000      -0.061251        -1.6667 
  16   0.0000       0.034041         0.9263 
  17   0.0000       0.073387         1.9970 
  18   0.0000       0.084463         2.2984 
  19   0.0000       0.089238         2.4283 
  20   0.0000       0.132068         3.5938 
  21   0.0000       0.149043         4.0557 
  22   0.0000       0.154461         4.2031 
  23   0.0000       0.183864         5.0032 
  24   0.0000       0.195760         5.3269 
  25   0.0000       0.218472         5.9449 
*Only the first 10 virtual orbitals were printed.

                    ********************************
                    * MULLIKEN POPULATION ANALYSIS *
                    ********************************

-----------------------
MULLIKEN ATOMIC CHARGES
-----------------------
   0 C :   -0.264590
   1 C :   -0.072628
   2 C :   -0.072627
   3 C :   -0.264589
   4 H :    0.125390
   5 H :    0.115228
   6 H :    0.096600
   7 H :    0.096599
   8 H :    0.125390
   9 H :    0.115228
Sum of atomic charges:   -0.0000000

--------------------------------
MULLIKEN REDUCED ORBITAL CHARGES
--------------------------------
  0 C s       :     3.271375  s :     3.271375
      pz      :     0.998098  p :     2.946358
      px      :     0.945058
      py      :     1.003203
      dz2     :     0.003809  d :     0.041155
      dxz     :     0.009221
      dyz     :     0.001045
      dx2y2   :     0.016045
      dxy     :     0.011035
      f0      :     0.001324  f :     0.005701
      f+1     :     0.000551
      f-1     :     0.000532
      f+2     :     0.000349
      f-2     :     0.000238
      f+3     :     0.001254
      f-3     :     0.001453

  1 C s       :     3.226245  s :     3.226245
      pz      :     0.940955  p :     2.765195
      px      :     0.905909
      py      :     0.918332
      dz2     :     0.004300  d :     0.072768
      dxz     :     0.027025
      dyz     :     0.001991
      dx2y2   :     0.021873
      dxy     :     0.017579
      f0      :     0.001728  f :     0.008420
      f+1     :     0.000679
      f-1     :     0.000566
      f+2     :     0.000372
      f-2     :     0.000755
      f+3     :     0.002513
      f-3     :     0.001807

  2 C s       :     3.226245  s :     3.226245
      pz      :     0.940955  p :     2.765194
      px      :     0.905909
      py      :     0.918330
      dz2     :     0.004300  d :     0.072768
      dxz     :     0.027025
      dyz     :     0.001991
      dx2y2   :     0.021873
      dxy     :     0.017579
      f0      :     0.001728  f :     0.008420
      f+1     :     0.000679
      f-1     :     0.000566
      f+2     :     0.000372
      f-2     :     0.000755
      f+3     :     0.002513
      f-3     :     0.001807

  3 C s       :     3.271375  s :     3.271375
      pz      :     0.998098  p :     2.946358
      px      :     0.945057
      py      :     1.003203
      dz2     :     0.003809  d :     0.041156
      dxz     :     0.009221
      dyz     :     0.001045
      dx2y2   :     0.016045
      dxy     :     0.011035
      f0      :     0.001324  f :     0.005701
      f+1     :     0.000551
      f-1     :     0.000532
      f+2     :     0.000349
      f-2     :     0.000238
      f+3     :     0.001254
      f-3     :     0.001453

  4 H s       :     0.850948  s :     0.850948
      pz      :     0.005997  p :     0.023662
      px      :     0.010349
      py      :     0.007316

  5 H s       :     0.861215  s :     0.861215
      pz      :     0.005788  p :     0.023558
      px      :     0.004432
      py      :     0.013337

  6 H s       :     0.880255  s :     0.880255
      pz      :     0.005115  p :     0.023145
      px      :     0.004488
      py      :     0.013543

  7 H s       :     0.880256  s :     0.880256
      pz      :     0.005115  p :     0.023145
      px      :     0.004488
      py      :     0.013543

  8 H s       :     0.850948  s :     0.850948
      pz      :     0.005997  p :     0.023662
      px      :     0.010349
      py      :     0.007316

  9 H s       :     0.861214  s :     0.861214
      pz      :     0.005788  p :     0.023558
      px      :     0.004432
      py      :     0.013337



                     *******************************
                     * LOEWDIN POPULATION ANALYSIS *
                     *******************************

----------------------
LOEWDIN ATOMIC CHARGES
----------------------
   0 C :   -0.194127
   1 C :   -0.193516
   2 C :   -0.193517
   3 C :   -0.194127
   4 H :    0.121409
   5 H :    0.121898
   6 H :    0.144337
   7 H :    0.144337
   8 H :    0.121409
   9 H :    0.121898

-------------------------------
LOEWDIN REDUCED ORBITAL CHARGES
-------------------------------
  0 C s       :     2.863369  s :     2.863369
      pz      :     0.942425  p :     3.067674
      px      :     1.087025
      py      :     1.038224
      dz2     :     0.016461  d :     0.235500
      dxz     :     0.025633
      dyz     :     0.004074
      dx2y2   :     0.095843
      dxy     :     0.093489
      f0      :     0.002226  f :     0.027585
      f+1     :     0.003942
      f-1     :     0.002891
      f+2     :     0.001890
      f-2     :     0.001847
      f+3     :     0.008074
      f-3     :     0.006716

  1 C s       :     2.790104  s :     2.790104
      pz      :     0.873252  p :     2.956780
      px      :     1.079430
      py      :     1.004099
      dz2     :     0.025898  d :     0.403514
      dxz     :     0.084950
      dyz     :     0.009527
      dx2y2   :     0.162123
      dxy     :     0.121016
      f0      :     0.003368  f :     0.043118
      f+1     :     0.004669
      f-1     :     0.003233
      f+2     :     0.001875
      f-2     :     0.005773
      f+3     :     0.015335
      f-3     :     0.008865

  2 C s       :     2.790103  s :     2.790103
      pz      :     0.873252  p :     2.956781
      px      :     1.079430
      py      :     1.004099
      dz2     :     0.025898  d :     0.403515
      dxz     :     0.084950
      dyz     :     0.009527
      dx2y2   :     0.162123
      dxy     :     0.121017
      f0      :     0.003368  f :     0.043119
      f+1     :     0.004669
      f-1     :     0.003233
      f+2     :     0.001875
      f-2     :     0.005773
      f+3     :     0.015335
      f-3     :     0.008865

  3 C s       :     2.863368  s :     2.863368
      pz      :     0.942425  p :     3.067674
      px      :     1.087026
      py      :     1.038224
      dz2     :     0.016461  d :     0.235501
      dxz     :     0.025633
      dyz     :     0.004074
      dx2y2   :     0.095843
      dxy     :     0.093490
      f0      :     0.002226  f :     0.027585
      f+1     :     0.003942
      f-1     :     0.002891
      f+2     :     0.001890
      f-2     :     0.001847
      f+3     :     0.008074
      f-3     :     0.006716

  4 H s       :     0.814329  s :     0.814329
      pz      :     0.015192  p :     0.064262
      px      :     0.027048
      py      :     0.022022

  5 H s       :     0.814307  s :     0.814307
      pz      :     0.014985  p :     0.063794
      px      :     0.012004
      py      :     0.036805

  6 H s       :     0.796780  s :     0.796780
      pz      :     0.012984  p :     0.058884
      px      :     0.011286
      py      :     0.034613

  7 H s       :     0.796779  s :     0.796779
      pz      :     0.012984  p :     0.058884
      px      :     0.011287
      py      :     0.034613

  8 H s       :     0.814329  s :     0.814329
      pz      :     0.015192  p :     0.064262
      px      :     0.027048
      py      :     0.022022

  9 H s       :     0.814307  s :     0.814307
      pz      :     0.014985  p :     0.063794
      px      :     0.012004
      py      :     0.036805



                      *****************************
                      * MAYER POPULATION ANALYSIS *
                      *****************************

  NA   - Mulliken gross atomic population
  ZA   - Total nuclear charge
  QA   - Mulliken gross atomic charge
  VA   - Mayer's total valence
  BVA  - Mayer's bonded valence
  FA   - Mayer's free valence

  ATOM       NA         ZA         QA         VA         BVA        FA
  0 C      6.2646     6.0000    -0.2646     3.9131     3.9131     0.0000
  1 C      6.0726     6.0000    -0.0726     3.8353     3.8353    -0.0000
  2 C      6.0726     6.0000    -0.0726     3.8353     3.8353    -0.0000
  3 C      6.2646     6.0000    -0.2646     3.9131     3.9131     0.0000
  4 H      0.8746     1.0000     0.1254     0.9775     0.9775     0.0000
  5 H      0.8848     1.0000     0.1152     0.9808     0.9808     0.0000
  6 H      0.9034     1.0000     0.0966     0.9827     0.9827     0.0000
  7 H      0.9034     1.0000     0.0966     0.9827     0.9827    -0.0000
  8 H      0.8746     1.0000     0.1254     0.9775     0.9775     0.0000
  9 H      0.8848     1.0000     0.1152     0.9808     0.9808     0.0000

  Mayer bond orders larger than 0.100000
B(  0-C ,  1-C ) :   1.8221 B(  0-C ,  3-C ) :   0.1345 B(  0-C ,  4-H ) :   0.9641 
B(  0-C ,  5-H ) :   0.9624 B(  1-C ,  2-C ) :   1.0465 B(  1-C ,  6-H ) :   0.9601 
B(  2-C ,  3-C ) :   1.8221 B(  2-C ,  7-H ) :   0.9601 B(  3-C ,  8-H ) :   0.9641 
B(  3-C ,  9-H ) :   0.9624 

-------
TIMINGS
-------

Total SCF time: 0 days 0 hours 0 min 13 sec 

Total time                  ....      13.088 sec
Sum of individual times     ....      12.572 sec  ( 96.1%)

SCF preparation             ....       0.158 sec  (  1.2%)
Fock matrix formation       ....      11.615 sec  ( 88.7%)
  Startup                   ....       0.081 sec  (  0.7% of F)
  Split-RI-J                ....       0.877 sec  (  7.6% of F)
  XC integration            ....      10.111 sec  ( 87.0% of F)
    XC Preparation          ....       0.000 sec  (  0.0% of XC)
    Basis function eval.    ....       1.562 sec  ( 15.4% of XC)
    Density eval.           ....       2.787 sec  ( 27.6% of XC)
    XC-Functional eval.     ....       1.246 sec  ( 12.3% of XC)
    XC-Potential eval.      ....       3.722 sec  ( 36.8% of XC)
Diagonalization             ....       0.000 sec  (  0.0%)
Density matrix formation    ....       0.208 sec  (  1.6%)
Total Energy calculation    ....       0.030 sec  (  0.2%)
Population analysis         ....       0.029 sec  (  0.2%)
Orbital Transformation      ....       0.047 sec  (  0.4%)
Orbital Orthonormalization  ....       0.000 sec  (  0.0%)
DIIS solution               ....       0.333 sec  (  2.5%)
SOSCF solution              ....       0.151 sec  (  1.2%)
Finished LeanSCF after  13.2 sec

Maximum memory used throughout the entire LEANSCF-calculation: 14.3 MB

------------------------------------------------------------------------------
                         ORCA PROPERTY INTEGRAL CALCULATIONS
------------------------------------------------------------------------------

GBWName                                   ... vacuum_censo.gbw
Number of atoms                           ...     10
Number of basis functions                 ...    160
Max core memory                           ...   1024 MB

Dipole integrals                          ... YES
Quadrupole integrals                      ...  NO
Linear momentum integrals                 ...  NO
Angular momentum integrals                ...  NO
Higher moments length integrals           ...  NO
Higher moments velocity integrals         ...  NO
Kinetic energy integrals                  ...  NO
GIAO right hand sides                     ...  NO
GIAO dipole derivative integrals          ...  NO
SOC integrals                             ...  NO
EPR diamagnetic integrals (GIAO)          ...  NO
EPR gauge integrals                       ...  NO
Field gradient integrals                  ...  NO (   0 nuclei)
Spin-dipole/Fermi contact integrals       ...  NO (   0 nuclei)
Contact density integrals                 ...  NO (   0 nuclei)
Nucleus-orbit integrals                   ...  NO (   0 nuclei)
Geometric perturbations                   ... YES (  10 nuclei)

Choice of electric origin   ... Center of mass
Position of electric origin ... (  0.0000, -0.0000,  0.0001) 
Choice of magnetic origin   ... GIAO
Position of magnetic origin ... (  0.0000,  0.0000,  0.0000) 

Calculating integrals                     ... Electric Dipole (Length)     done (  0.1 sec)
Calculating integrals                     ... Geometrical perturbation right hand sides

-----------------------
GEOMETRIC PERTURBATIONS (10 nuclei)
-----------------------

MaxCore                            ...   1024 MB
Number of batches                  ...      1

BATCH   0: Atoms    0 -    9 ( 30 perturbations)
   => H(core) and overlap derivative integrals     ... done (     0.1 sec)
   => Making and storing internal U-coefficients   ... done (     0.6 sec)
   => RI-J derivative integrals                    ... done (     0.9 sec)
   => RI-J response operators                      ... done (     0.2 sec)
   => XC derivative integrals                      ... done (    56.7 sec)
   => XC response operators                        ... done (    15.0 sec)
   => Completing and storing right hand sides      ... done (     0.3 sec)
   => Total time for right hand sides =  75.2 sec

  geometrical perturbations done ( 75.2 sec)

Property integrals calculated in  75.2 sec

Maximum memory used throughout the entire PROPINT-calculation: 49.6 MB


-------------------------------------------------------------------------------
                          DFT DISPERSION CORRECTION                            
                                                                               
                                DFTD4 V3.4.0                                   
-------------------------------------------------------------------------------
The R2SCAN3C composite method is recognized
Using three-body term ABC
Active option DFTDOPT                   ...         5   

-------------------------   ----------------
Dispersion correction           -0.001862396
-------------------------   ----------------

------------------   -----------------
gCP correction             0.002537493
------------------   -----------------

-------------------------   --------------------
FINAL SINGLE POINT ENERGY      -155.948679066098
-------------------------   --------------------

------------------------------------------------------------------------------
                            ORCA SCF RESPONSE CALCULATION
------------------------------------------------------------------------------

GBWName                                 ... vacuum_censo.gbw
Number of atoms                         ...     10
Number of basis functions               ...    160
Max core memory                         ...   1024 MB

Electric field perturbation             ...  NO
Quadrupolar field perturbation          ...  NO
Magnetic field perturbation (no GIAO)   ...  NO
Magnetic field perturbation (with GIAO) ...  NO
Linear momentum (velocity) perturbation ...  NO
Spin-orbit coupling perturbation        ...  NO
Choice of electric origin               ... Center of mass
Position of electric origin             ...     0.000001    -0.000017     0.000076
Choice of magnetic origin               ... GIAO
Position of magnetic origin             ...     0.000000     0.000000     0.000000
Nuclear geometric perturbations         ... YES (  30 perturbations)
Nucleus-orbit perturbations             ...  NO (   0 perturbations)
Spin-dipole/Fermi contact perturbations ...  NO (   0 perturbations)

Total number of real perturbations      ...     30
Total number of imaginary perturbations ...      0
Total number of triplet perturbations   ...      0
Total number of SOC perturbations       ...      0


                                **********************
                                * REAL PERTURBATIONS *
                                **********************



-------------------
SHARK CP-SCF DRIVER
-------------------

Dimension of the orbital basis          ...    160
Dimension of the CPSCF-problem          ...   2175
Number of operators                     ...      1
Max. number of iterations               ...    128
Convergence Tolerance                   ... 1.0e-03
Number of perturbations                 ...     30
Perturbation type                       ... REAL

----------------------------
POPLE LINEAR EQUATION SOLVER
----------------------------

  ITERATION   0:   ||err||_max =   3.3052e-01 (   6.1 sec   0/ 30 done)
  ITERATION   1:   ||err||_max =   5.0509e-02 (   5.5 sec   0/ 30 done)
  ITERATION   2:   ||err||_max =   1.4669e-02 (   5.5 sec  10/ 30 done)
  ITERATION   3:   ||err||_max =   6.3471e-03 (   4.8 sec  14/ 30 done)
  ITERATION   4:   ||err||_max =   1.6807e-03 (   3.8 sec  22/ 30 done)
  ITERATION   5:   ||err||_max =   5.1289e-04 (   2.0 sec  30/ 30 done)

CP-SCF equations solved in  31.4 sec
Response densities calculated in   0.3 sec

Maximum memory used throughout the entire SCFRESP-calculation: 23.9 MB

------------------------------------------------------------------------------
                              ORCA PROPERTY CALCULATIONS
------------------------------------------------------------------------------

GBWName                                 ... vacuum_censo.gbw
Number of atoms                         ...     10
Number of basis functions               ...    160
Max core memory                         ...   1024 MB

Electric properties:
Dipole moment                           ... YES
Quadrupole moment                       ...  NO
Static polarizability (Dipole/Dipole)   ...  NO
Static polarizability (Dipole/Quad.)    ...  NO
Static polarizability (Quad./Quad.)     ...  NO
Static polarizability (Velocity)        ...  NO

Atomic electric properties:
Dipole moment                           ...  NO
Quadrupole moment                       ...  NO
Static polarizability                   ...  NO

Choice of electric origin               ... Center of mass
Position of electric origin             ...     0.000001    -0.000017     0.000076

General magnetic properties:
Magnetizability                         ...  NO

EPR properties:
g-Tensor (aka g-matrix)                 ...  NO
Zero-Field splitting spin-orbit         ...  NO
Zero-field splitting spin-spin          ...  NO
Hyperfine couplings                     ...  NO (   0 nuclei)
Quadrupole couplings                    ...  NO (   0 nuclei)
Contact density                         ...  NO (   0 nuclei)

NMR properties:
Chemical shifts                         ...  NO (   0 nuclei)
Spin-rotation constants                 ...  NO (   0 nuclei)
Spin-spin couplings                     ...  NO (   0 nuclei,    0 pairs)

Choice of magnetic origin               ... GIAO
Position of magnetic origin             ...     0.000000     0.000000     0.000000

Properties with geometric perturbations:
SCF Hessian                             ... YES
IR spectrum                             ... YES
VCD spectrum                            ...  NO
X-ray spectroscopy properties:
SCF XES/XAS/RIXS spectra                ...  NO


-------------
DIPOLE MOMENT
-------------

Method             : SCF
Type of density    : Electron Density
Multiplicity       :   1
Irrep              :   0
Energy             :  -155.9493541636016403 Eh
Relativity type    : 
Basis              : AO
                                X                 Y                 Z
Electronic contribution:     -0.000009157       0.000004411       0.000066310
Nuclear contribution   :      0.000009402      -0.000004387      -0.000115730
                        -----------------------------------------
Total Dipole Moment    :      0.000000245       0.000000024      -0.000049421
                        -----------------------------------------
Magnitude (a.u.)       :      0.000049421
Magnitude (Debye)      :      0.000125619



--------------------
Rotational spectrum 
--------------------
 
Rotational constants in cm-1:             1.410580             0.148321             0.134209 
Rotational constants in MHz :         42288.125170          4446.546012          4023.481703 

Dipole components along the rotational axes: 
x,y,z [a.u.] :     0.000000    -0.000000    -0.000049 
x,y,z [Debye]:     0.000001    -0.000000    -0.000126 

 

Dipole moment calculation done in   0.0 sec 

-----------
SCF HESSIAN
-----------

Occupied/Occupied contributions to the Hessian:
   => Occupied/Occupied contributions              ... done (  0.0 sec)
Perturbed density contributions to the Hessian:
   => Perturbed density contributions              ... done (  0.0 sec)
Explicit contributions to the Hessian:
   => Nuclear repulsion Hessian                    ... done (  0.0 sec)
   => HCore and overlap Hessian                    ... done (  2.1 sec)
   => RI-J Hessian                                 ... done (  2.4 sec)
   => XC-Hessian                                   ... done ( 22.8 sec)
   => Van der Waals-Hessian                        ... done (  1.9 sec)
   => GCP-Hessian                                  ... done (  0.0 sec)
   => Explicit contributions done
Dipole derivatives                                 ... done (  0.0 sec)
Mass weighting the Hessian           ... done
Calculating normal modes             ... done
Scaling frequencies                  ... done

-----------------------
VIBRATIONAL FREQUENCIES
-----------------------

Scaling factor for frequencies =  1.000000000  (already applied!)

     0:       0.00 cm**-1
     1:       0.00 cm**-1
     2:       0.00 cm**-1
     3:       0.00 cm**-1
     4:       0.00 cm**-1
     5:       0.00 cm**-1
     6:     179.50 cm**-1
     7:     304.73 cm**-1
     8:     524.58 cm**-1
     9:     536.40 cm**-1
    10:     785.80 cm**-1
    11:     904.76 cm**-1
    12:     921.56 cm**-1
    13:     923.44 cm**-1
    14:     991.61 cm**-1
    15:    1003.14 cm**-1
    16:    1052.77 cm**-1
    17:    1231.02 cm**-1
    18:    1312.53 cm**-1
    19:    1318.24 cm**-1
    20:    1410.50 cm**-1
    21:    1470.59 cm**-1
    22:    1637.19 cm**-1
    23:    1683.47 cm**-1
    24:    3114.88 cm**-1
    25:    3123.05 cm**-1
    26:    3125.02 cm**-1
    27:    3127.78 cm**-1
    28:    3217.06 cm**-1
    29:    3217.17 cm**-1


------------
NORMAL MODES
------------

These modes are the Cartesian displacements weighted by the diagonal matrix
M(i,i)=1/sqrt(m[i]) where m[i] is the mass of the displaced atom
Thus, these vectors are normalized but *not* orthogonal

                  0          1          2          3          4          5    
      0       0.000000   0.000000   0.000000   0.000000   0.000000   0.000000
      1       0.000000   0.000000   0.000000   0.000000   0.000000   0.000000
      2       0.000000   0.000000   0.000000   0.000000   0.000000   0.000000
      3       0.000000   0.000000   0.000000   0.000000   0.000000   0.000000
      4       0.000000   0.000000   0.000000   0.000000   0.000000   0.000000
      5       0.000000   0.000000   0.000000   0.000000   0.000000   0.000000
      6       0.000000   0.000000   0.000000   0.000000   0.000000   0.000000
      7       0.000000   0.000000   0.000000   0.000000   0.000000   0.000000
      8       0.000000   0.000000   0.000000   0.000000   0.000000   0.000000
      9       0.000000   0.000000   0.000000   0.000000   0.000000   0.000000
     10       0.000000   0.000000   0.000000   0.000000   0.000000   0.000000
     11       0.000000   0.000000   0.000000   0.000000   0.000000   0.000000
     12       0.000000   0.000000   0.000000   0.000000   0.000000   0.000000
     13       0.000000   0.000000   0.000000   0.000000   0.000000   0.000000
     14       0.000000   0.000000   0.000000   0.000000   0.000000   0.000000
     15       0.000000   0.000000   0.000000   0.000000   0.000000   0.000000
     16       0.000000   0.000000   0.000000   0.000000   0.000000   0.000000
     17       0.000000   0.000000   0.000000   0.000000   0.000000   0.000000
     18       0.000000   0.000000   0.000000   0.000000   0.000000   0.000000
     19       0.000000   0.000000   0.000000   0.000000   0.000000   0.000000
     20       0.000000   0.000000   0.000000   0.000000   0.000000   0.000000
     21       0.000000   0.000000   0.000000   0.000000   0.000000   0.000000
     22       0.000000   0.000000   0.000000   0.000000   0.000000   0.000000
     23       0.000000   0.000000   0.000000   0.000000   0.000000   0.000000
     24       0.000000   0.000000   0.000000   0.000000   0.000000   0.000000
     25       0.000000   0.000000   0.000000   0.000000   0.000000   0.000000
     26       0.000000   0.000000   0.000000   0.000000   0.000000   0.000000
     27       0.000000   0.000000   0.000000   0.000000   0.000000   0.000000
     28       0.000000   0.000000   0.000000   0.000000   0.000000   0.000000
     29       0.000000   0.000000   0.000000   0.000000   0.000000   0.000000
                  6          7          8          9         10         11    
      0      -0.000010  -0.058954   0.213696   0.000063   0.000005  -0.121038
      1       0.000004  -0.131885   0.006963  -0.000003   0.000004  -0.051003
      2       0.180121  -0.000000  -0.000006   0.014518  -0.008687   0.000023
      3       0.000004   0.061609   0.119723   0.000037  -0.000005  -0.087385
      4      -0.000001   0.165676  -0.123220  -0.000039  -0.000002  -0.107668
      5      -0.206647  -0.000005   0.000036  -0.050662   0.171335  -0.000009
      6      -0.000001   0.061608  -0.119724  -0.000036   0.000000   0.087386
      7       0.000000   0.165677   0.123218   0.000039   0.000002   0.107667
      8      -0.206648   0.000005   0.000037  -0.050664  -0.171334   0.000002
      9       0.000006  -0.058955  -0.213695  -0.000065   0.000001   0.121039
     10      -0.000002  -0.131885  -0.006962  -0.000000  -0.000000   0.051004
     11       0.180121   0.000000  -0.000012   0.014518   0.008686   0.000005
     12       0.000001   0.134769   0.040399   0.000021  -0.000018  -0.433399
     13      -0.000004  -0.403427   0.256246   0.000103  -0.000018   0.381924
     14       0.282737   0.000001  -0.000377   0.493517  -0.601272  -0.000117
     15      -0.000003  -0.388944   0.531241   0.000178  -0.000016   0.344594
     16      -0.000007  -0.181483   0.053331   0.000035  -0.000016   0.025933
     17       0.431614   0.000007   0.000322  -0.386156   0.317070  -0.000101
     18       0.000011   0.222559   0.249117   0.000064   0.000013   0.015907
     19      -0.000005   0.182264  -0.101764  -0.000022  -0.000008  -0.100729
     20      -0.398272  -0.000016  -0.000255   0.323330  -0.092283  -0.000031
     21      -0.000004   0.222556  -0.249122  -0.000078   0.000001  -0.015914
     22       0.000003   0.182266   0.101761   0.000026  -0.000002   0.100726
     23      -0.398274   0.000019  -0.000254   0.323334   0.092281   0.000031
     24       0.000000   0.134772  -0.040398  -0.000007   0.000002   0.433402
     25       0.000003  -0.403429  -0.256242  -0.000089  -0.000009  -0.381923
     26       0.282739   0.000008  -0.000381   0.493522   0.601263  -0.000038
     27       0.000014  -0.388950  -0.531238  -0.000169   0.000002  -0.344598
     28      -0.000003  -0.181485  -0.053330  -0.000010   0.000004  -0.025934
     29       0.431615  -0.000015   0.000295  -0.386157  -0.317061   0.000002
                 12         13         14         15         16         17    
      0       0.000016  -0.000013   0.000011   0.043604  -0.000002  -0.045029
      1       0.000004  -0.000002   0.000022   0.071224  -0.000001  -0.043772
      2       0.121024  -0.114852   0.027920  -0.000009   0.004535   0.000002
      3       0.000009  -0.000008  -0.000001  -0.003760  -0.000001   0.072584
      4       0.000008  -0.000007  -0.000016  -0.039134  -0.000002   0.172776
      5      -0.040105   0.033646  -0.088805   0.000023  -0.062016  -0.000002
      6      -0.000008   0.000006   0.000001  -0.003760   0.000002  -0.072584
      7      -0.000009   0.000007  -0.000009  -0.039135   0.000007  -0.172777
      8      -0.040158  -0.033586   0.088808  -0.000032  -0.062011  -0.000002
      9      -0.000011   0.000010   0.000014   0.043603  -0.000004   0.045028
     10      -0.000006   0.000002   0.000021   0.071224  -0.000006   0.043774
     11       0.121202   0.114670  -0.027919   0.000009   0.004535   0.000000
     12       0.000011  -0.000002   0.000075   0.303444  -0.000018  -0.183126
     13      -0.000037   0.000024  -0.000094  -0.298577   0.000001   0.160844
     14      -0.489377   0.413383  -0.271262   0.000081  -0.219747  -0.000031
     15      -0.000062   0.000051  -0.000118  -0.407444   0.000024   0.229822
     16       0.000019  -0.000023  -0.000011  -0.001502  -0.000013   0.005012
     17      -0.493112   0.554960   0.241048  -0.000051   0.313292   0.000012
     18      -0.000010   0.000006  -0.000132  -0.370771   0.000003   0.544196
     19       0.000008  -0.000004  -0.000011  -0.082295   0.000018   0.229217
     20       0.018350   0.086862   0.599686  -0.000129   0.591367   0.000046
     21       0.000000   0.000002  -0.000094  -0.370771   0.000031  -0.544188
     22      -0.000009   0.000008  -0.000009  -0.082298   0.000001  -0.229221
     23       0.018220  -0.086892  -0.599713   0.000205   0.591340   0.000001
     24      -0.000041   0.000029   0.000093   0.303442  -0.000026   0.183126
     25       0.000043  -0.000019  -0.000094  -0.298571   0.000028  -0.160842
     26      -0.490017  -0.412647   0.271272  -0.000100  -0.219739  -0.000008
     27       0.000024  -0.000025  -0.000119  -0.407442   0.000031  -0.229828
     28       0.000007   0.000005   0.000002  -0.001504  -0.000004  -0.005013
     29      -0.493971  -0.554221  -0.241068   0.000100   0.313279   0.000006
                 18         19         20         21         22         23    
      0      -0.039121   0.022140   0.024534  -0.039720   0.242813  -0.212779
      1       0.088253  -0.078416   0.004070   0.036646  -0.084641   0.081904
      2      -0.000003   0.000001   0.000005   0.000003   0.000003  -0.000003
      3       0.019271   0.015201  -0.099773  -0.079966  -0.216127   0.313250
      4      -0.094221   0.076392   0.020424  -0.020047   0.058589  -0.056945
      5      -0.000000   0.000001  -0.000002  -0.000001  -0.000007   0.000009
      6      -0.019265   0.015205  -0.099772   0.079964  -0.216092  -0.313284
      7       0.094235   0.076374   0.020424   0.020048   0.058584   0.056954
      8       0.000004   0.000001   0.000000   0.000001   0.000003   0.000000
      9       0.039123   0.022132   0.024533   0.039721   0.242789   0.212816
     10      -0.088268  -0.078399   0.004070  -0.036646  -0.084631  -0.081917
     11      -0.000002  -0.000001   0.000000  -0.000000  -0.000004  -0.000004
     12      -0.025865  -0.068384   0.331842   0.294855  -0.065237   0.013839
     13       0.048326   0.058953  -0.397292  -0.416884   0.384273  -0.275633
     14       0.000016  -0.000009  -0.000015  -0.000014   0.000026  -0.000019
     15      -0.425078   0.262726   0.449732   0.400305  -0.393005   0.269833
     16       0.037334  -0.038950   0.050373   0.092453  -0.202819   0.175506
     17      -0.000007   0.000013  -0.000021  -0.000024   0.000023  -0.000020
     18       0.543107  -0.639269   0.114943   0.246193   0.140199  -0.377348
     19      -0.035834   0.004117   0.055058   0.012411   0.128961  -0.156274
     20       0.000020  -0.000020  -0.000000   0.000004  -0.000000  -0.000003
     21      -0.543238  -0.639177   0.114933  -0.246188   0.140145   0.377361
     22       0.035829   0.004104   0.055058  -0.012412   0.128946   0.156300
     23      -0.000000   0.000001   0.000001  -0.000007   0.000003   0.000011
     24       0.025846  -0.068389   0.331851  -0.294854  -0.065231  -0.013842
     25      -0.048311   0.058961  -0.397300   0.416879   0.384232   0.275679
     26      -0.000001   0.000003  -0.000008   0.000012   0.000005   0.000005
     27       0.425127   0.262648   0.449744  -0.400301  -0.392959  -0.269874
     28      -0.037340  -0.038942   0.050376  -0.092454  -0.202800  -0.175537
     29      -0.000008  -0.000008  -0.000002  -0.000001  -0.000004  -0.000004
                 24         25         26         27         28         29    
      0       0.015622   0.037485   0.035638   0.012775  -0.035553  -0.033585
      1      -0.004508  -0.023488  -0.028896  -0.017351  -0.061758  -0.058398
      2      -0.000001  -0.000003  -0.000003  -0.000001   0.000001   0.000001
      3       0.005215  -0.001657  -0.006562  -0.011537   0.001192   0.001900
      4      -0.053895  -0.018594   0.024057   0.056252  -0.007999  -0.008039
      5       0.000001   0.000000  -0.000001  -0.000002   0.000000   0.000000
      6      -0.005207  -0.001644   0.006538  -0.011557  -0.001088   0.001962
      7       0.053837  -0.018666  -0.023900   0.056351   0.007556  -0.008458
      8       0.000001   0.000000  -0.000000   0.000001   0.000000  -0.000000
      9      -0.015606   0.037444  -0.035664   0.012846   0.033697  -0.035446
     10       0.004504  -0.023449   0.028891  -0.017415   0.058532  -0.061631
     11      -0.000000  -0.000001   0.000000  -0.000000   0.000001  -0.000001
     12      -0.171352  -0.331269  -0.289068  -0.060261   0.477963   0.450334
     13      -0.130121  -0.248582  -0.215993  -0.048329   0.338220   0.319205
     14       0.000010   0.000018   0.000017   0.000003  -0.000031  -0.000029
     15      -0.021591  -0.071650  -0.075244  -0.032110  -0.066890  -0.064622
     16       0.183193   0.515541   0.539753   0.237342   0.411070   0.391099
     17       0.000009   0.000024   0.000026   0.000011   0.000022   0.000021
     18      -0.075232  -0.023982   0.031119   0.077593  -0.011000  -0.007914
     19       0.641371   0.234483  -0.263270  -0.652543   0.072769   0.081592
     20      -0.000019  -0.000007   0.000008   0.000020  -0.000003  -0.000003
     21       0.075157  -0.024081  -0.030908   0.077731   0.010560  -0.008495
     22      -0.640683   0.235311   0.261431  -0.653670  -0.068285   0.085388
     23      -0.000010   0.000003   0.000004  -0.000010  -0.000001   0.000002
     24       0.171170  -0.330964   0.289418  -0.060795  -0.453080   0.475349
     25       0.129988  -0.248358   0.216251  -0.048727  -0.320587   0.336910
     26       0.000001  -0.000003   0.000002  -0.000001  -0.000003   0.000004
     27       0.021566  -0.071556   0.075278  -0.032269   0.063323  -0.068122
     28      -0.183016   0.514874  -0.539972   0.238455  -0.389468   0.412611
     29      -0.000002   0.000005  -0.000007   0.000003  -0.000005   0.000005


-----------
IR SPECTRUM
-----------

 Mode   freq       eps      Int      T**2         TX        TY        TZ
       cm**-1   L/(mol*cm) km/mol    a.u.
----------------------------------------------------------------------------
  6:    179.50   0.000140    0.71  0.000243  (-0.000025  0.000005  0.015597)
  7:    304.73   0.000545    2.76  0.000558  ( 0.023069  0.005109  0.000001)
  8:    524.58   0.000000    0.00  0.000000  (-0.000000 -0.000000 -0.000018)
  9:    536.40   0.002505   12.66  0.001457  (-0.000003  0.000004  0.038174)
 10:    785.80   0.000000    0.00  0.000000  (-0.000004 -0.000002 -0.000000)
 11:    904.76   0.000000    0.00  0.000000  (-0.000000  0.000000 -0.000009)
 12:    921.56   0.017351   87.69  0.005876  ( 0.000003 -0.000001 -0.076653)
 13:    923.44   0.000000    0.00  0.000000  ( 0.000001  0.000001  0.000058)
 14:    991.61   0.000000    0.00  0.000000  ( 0.000004 -0.000004 -0.000001)
 15:   1003.14   0.000378    1.91  0.000118  (-0.010743 -0.001503  0.000004)
 16:   1052.77   0.007172   36.24  0.002126  (-0.000003  0.000000  0.046108)
 17:   1231.02   0.000000    0.00  0.000000  (-0.000000  0.000000  0.000000)
 18:   1312.53   0.000000    0.00  0.000000  ( 0.000000 -0.000001  0.000001)
 19:   1318.24   0.000519    2.62  0.000123  (-0.001144 -0.011021 -0.000000)
 20:   1410.50   0.000816    4.12  0.000180  ( 0.008058 -0.010748 -0.000001)
 21:   1470.59   0.000000    0.00  0.000000  (-0.000000 -0.000000 -0.000001)
 22:   1637.19   0.004644   23.47  0.000885  (-0.028953  0.006851 -0.000000)
 23:   1683.47   0.000000    0.00  0.000000  (-0.000002  0.000000  0.000000)
 24:   3114.88   0.000000    0.00  0.000000  ( 0.000001 -0.000013  0.000001)
 25:   3123.05   0.004014   20.29  0.000401  ( 0.009300 -0.017737  0.000000)
 26:   3125.02   0.000000    0.00  0.000000  (-0.000001  0.000031  0.000001)
 27:   3127.78   0.002554   12.91  0.000255  ( 0.004760  0.015238  0.000001)
 28:   3217.06   0.000003    0.01  0.000000  (-0.000189 -0.000500  0.000000)
 29:   3217.17   0.004078   20.61  0.000396  (-0.007040 -0.018601 -0.000000)

* The epsilon (eps) is given for a Dirac delta lineshape.
** The dipole moment derivative (T) already includes vibrational overlap.

The first frequency considered to be a vibration is 6
The total number of vibrations considered is 24


--------------------------
THERMOCHEMISTRY AT 298.15K
--------------------------

Temperature         ...   298.15 K
Pressure            ...     1.00 atm
Total Mass          ...    54.09 AMU
Quasi RRHO          ...     True
Cut-Off Frequency   ...     1.00 cm^-1

Throughout the following assumptions are being made:
  (1) The electronic state is orbitally nondegenerate
  (2) There are no thermally accessible electronically excited states
  (3) Hindered rotations indicated by low frequency modes are not
      treated as such but are treated as vibrations and this may
      cause some error
  (4) All equations used are the standard statistical mechanics
      equations for an ideal gas
  (5) All vibrations are strictly harmonic

freq.     179.50  E(vib)   ...       0.37 
freq.     304.73  E(vib)   ...       0.26 
freq.     524.58  E(vib)   ...       0.13 
freq.     536.40  E(vib)   ...       0.12 
freq.     785.80  E(vib)   ...       0.05 
freq.     904.76  E(vib)   ...       0.03 
freq.     921.56  E(vib)   ...       0.03 
freq.     923.44  E(vib)   ...       0.03 
freq.     991.61  E(vib)   ...       0.02 
freq.    1003.14  E(vib)   ...       0.02 
freq.    1052.77  E(vib)   ...       0.02 
freq.    1231.02  E(vib)   ...       0.01 
freq.    1312.53  E(vib)   ...       0.01 
freq.    1318.24  E(vib)   ...       0.01 
freq.    1410.50  E(vib)   ...       0.00 
freq.    1470.59  E(vib)   ...       0.00 
freq.    1637.19  E(vib)   ...       0.00 
freq.    1683.47  E(vib)   ...       0.00 
freq.    3114.88  E(vib)   ...       0.00 
freq.    3123.05  E(vib)   ...       0.00 
freq.    3125.02  E(vib)   ...       0.00 
freq.    3127.78  E(vib)   ...       0.00 
freq.    3217.06  E(vib)   ...       0.00 
freq.    3217.17  E(vib)   ...       0.00 

------------
INNER ENERGY
------------

The inner energy is: U= E(el) + E(ZPE) + E(vib) + E(rot) + E(trans)
    E(el)   - is the total energy from the electronic structure calculation
              = E(kin-el) + E(nuc-el) + E(el-el) + E(nuc-nuc)
    E(ZPE)  - the the zero temperature vibrational energy from the frequency calculation
    E(vib)  - the the finite temperature correction to E(ZPE) due to population
              of excited vibrational states
    E(rot)  - is the rotational thermal energy
    E(trans)- is the translational thermal energy

Summary of contributions to the inner energy U:
Electronic energy                ...   -155.94867907 Eh
Zero point energy                ...      0.08455826 Eh      53.06 kcal/mol
Thermal vibrational correction   ...      0.00180586 Eh       1.13 kcal/mol
Thermal rotational correction    ...      0.00141627 Eh       0.89 kcal/mol
Thermal translational correction ...      0.00141627 Eh       0.89 kcal/mol
-----------------------------------------------------------------------
Total thermal energy                   -155.85948240 Eh


Summary of corrections to the electronic energy:
(perhaps to be used in another calculation)
Total thermal correction                  0.00463840 Eh       2.91 kcal/mol
Non-thermal (ZPE) correction              0.08455826 Eh      53.06 kcal/mol
-----------------------------------------------------------------------
Total correction                          0.08919666 Eh      55.97 kcal/mol


--------
ENTHALPY
--------

The enthalpy is H = U + kB*T
                kB is Boltzmann's constant
Total thermal energy              ...   -155.85948240 Eh 
Thermal Enthalpy correction       ...      0.00094421 Eh       0.59 kcal/mol
-----------------------------------------------------------------------
Total Enthalpy                    ...   -155.85853820 Eh


Note: Rotational entropy computed according to Herzberg 
Infrared and Raman Spectra, Chapter V,1, Van Nostrand Reinhold, 1945 
Point Group:  C2h, Symmetry Number:   2  
Rotational constants in cm-1:     1.410580     0.148321     0.134209 

Vibrational entropy computed according to the QRRHO of S. Grimme
Chem.Eur.J. 2012 18 9955 using a reference frequency of 100.0 cm-1


-------
ENTROPY
-------

The entropy contributions are T*S = T*(S(el)+S(vib)+S(rot)+S(trans))
     S(el)   - electronic entropy
     S(vib)  - vibrational entropy
     S(rot)  - rotational entropy
     S(trans)- translational entropy
The entropies will be listed as multiplied by the temperature to get
units of energy

Electronic entropy                ...      0.00000000 Eh      0.00 kcal/mol
Vibrational entropy               ...      0.00280529 Eh      1.76 kcal/mol
Rotational entropy                ...      0.01054301 Eh      6.62 kcal/mol
Translational entropy             ...      0.01800097 Eh     11.30 kcal/mol
-----------------------------------------------------------------------
Final entropy term                ...      0.03134927 Eh     19.67 kcal/mol

In case the symmetry of your molecule has not been determined correctly
or in case you have a reason to use a different symmetry number we print 
out the resulting rotational entropy values for sn=1,12:

 non-linear molecules -----------------------------------
|  sn= 1 | S(rot)=       0.01119746 Eh      7.03 kcal/mol|
|  sn= 2 | S(rot)=       0.01054301 Eh      6.62 kcal/mol|
|  sn= 3 | S(rot)=       0.01016018 Eh      6.38 kcal/mol|
|  sn= 4 | S(rot)=       0.00988855 Eh      6.21 kcal/mol|
|  sn= 5 | S(rot)=       0.00967786 Eh      6.07 kcal/mol|
|  sn= 6 | S(rot)=       0.00950572 Eh      5.96 kcal/mol|
|  sn= 7 | S(rot)=       0.00936017 Eh      5.87 kcal/mol|
|  sn= 8 | S(rot)=       0.00923410 Eh      5.79 kcal/mol|
|  sn= 9 | S(rot)=       0.00912289 Eh      5.72 kcal/mol|
|  sn=10 | S(rot)=       0.00902341 Eh      5.66 kcal/mol|
|  sn=11 | S(rot)=       0.00893342 Eh      5.61 kcal/mol|
|  sn=12 | S(rot)=       0.00885126 Eh      5.55 kcal/mol|
 linear molecules ---------------------------------------
|  Dinfh | S(rot)=       0.00722206 Eh      4.53 kcal/mol|
|  Cinfv | S(rot)=       0.00787652 Eh      4.94 kcal/mol|
 --------------------------------------------------------


-------------------
GIBBS FREE ENERGY
-------------------

The Gibbs free energy is G = H - T*S

Total enthalpy                    ...   -155.85853820 Eh 
Total entropy correction          ...     -0.03134927 Eh    -19.67 kcal/mol
-----------------------------------------------------------------------
Final Gibbs free energy         ...   -155.88988746 Eh

For completeness - the Gibbs free energy minus the electronic energy
G-E(el)                           ...      0.05879160 Eh     36.89 kcal/mol


Maximum memory used throughout the entire PROP-calculation: 30.8 MB

--------------------------------
SUGGESTED CITATIONS FOR THIS RUN
--------------------------------

Below you find a list of papers that are relevant to this ORCA run
We neither can nor want to force you to cite these papers, but we appreciate if you do
You receive ORCA, which is the product of decades of hard work by many enthusiastic individuals, for free
The only thing we kindly ask in return is that you cite our papers,
We deeply appreciate it, if you show your appreciation for ORCA by not just citing the generic ORCA reference.

Please note that relegating all ORCA citations to the supporting information does *not* help us.
SI sections are not indexed - citations you put there will not count into any citation statistics
But we need these citations in order to attract the funding resources that allow us to do what we are doing

Therefore, if you are a happy ORCA user, please consider citing a few of the papers listed below in the main body of your paper

In addition to the list printed below, the program has created the file vacuum_censo.bibtex that contains the list in bibtex format
You can import this file easily into all common literature databanks and citation aid programs


List of essential papers. We consider these as the minimum necessary citations

  1. Neese,F.
     Software update: the ORCA program system, version 5.0
     WIRES Comput. Molec. Sci., 2022 12(1)e1606
     doi.org/10.1002/wcms.1606
  2. Grimme,S.; Hansen,A.; Ehlert,S.; Mewes,J.
     r2SCAN-3c: A 'Swiss army knife' composite electronic-structure method
     J. Chem. Phys., 2021 154 064103
     doi.org/10.1063/5.0040021

List of papers to cite with high priority. The work reported in these papers was absolutely
necessary for this run to complete.
Our perspective: the developers of density functionals and basis sets usually get cited in chemistry papers
Good! But without the algorithms to do something with them, the functionals or basis sets would not do anything.
Hence, in our opinion, the algorithm design and method developments papers are equally worthy of getting cited

  1. Neese,F.
     An improvement of the resolution of the identity approximation for the formation of the Coulomb matrix
     J. Comp. Chem., 2003 24(14)1740-1747
     doi.org/10.1002/jcc.10318
  2. Bykov,D.; Petrenko,T.; Izsak,R.; Kossmann,S.; Becker,U.; Valeev,E.; Neese,F.
     Efficient implementation of the analytic second derivatives of Hartree-Fock and hybrid DFT energies: a detailed analysis of different approximations
     Molec. Phys., 2015 113 1961-1977
     doi.org/10.1080/00268976.2015.1025114
  3. Neese,F.
     The SHARK Integral Generation and Digestion System
     J. Comp. Chem., 2022  1-16
     doi.org/10.1002/jcc.26942
  4. Lehtola,S.; Steigemann,C.; Oliveira,M.; Marques,M.
     Recent developments in Libxc - A comprehensive library of functionals for density functional theory
     Software X, 2018 7 
     doi.org/10.1016/j.softx.2017.11.002
  5. Caldeweyher,E.; Bannwarth,C.; Grimme,S.
     Extension of the D3 dispersion coefficient model
     J. Chem. Phys., 2017 147 034112-XXXX
     doi.org/10.1063/1.4993215
  6. Caldeweyher,E.; Ehlert,S.; Hansen,A.; Neugebauer,H.; Spicher,S.; Bannwarth,C.; Grimme,S.
     A generally applicable atomic-charge dependent London dispersion correction
     J. Chem. Phys., 2019 150 154122-XXXX
     doi.org/10.1063/1.5090222
  7. Caldeweyher,E.; Mewes,J.; Ehlert,S.; Grimme,S.
     Extension and evaluation of the D4 London-dispersion model for periodic systems
     Phys. Chem. Chem. Phys., 2020 22(16)8499-8512
     doi.org/10.1039/D0CP00502A

List of suggested additional citations. These are papers that are important in the 'surrounding' of 
of this run, or papers that preceded the highly important papers. If you like your results we are grateful for a citation.

  1. Neese,F.
     The ORCA program system
     WIRES Comput. Molec. Sci., 2012 2(1)73-78
     doi.org/10.1002/wcms.81
  2. Neese,F.
     Software update: the ORCA program system, version 4.0
     WIRES Comput. Molec. Sci., 2018 8(1)1-6
     doi.org/10.1002/wcms.1327
  3. Neese,F.; Wennmohs,F.; Becker,U.; Riplinger,C.
     The ORCA quantum chemistry program package
     J. Chem. Phys., 2020 152 Art. No. L224108
     doi.org/10.1063/5.0004608

List of optional additional citations

  1. Neese,F.
     Approximate second-order SCF convergence for spin unrestricted wavefunctions
     Chem. Phys. Lett., 2000 325(1-3)93-98
     doi.org/10.1016/s0009-2614(00)00662-x

Timings for individual modules:

Sum of individual times          ...      151.898 sec (=   2.532 min)
Startup calculation              ...        0.640 sec (=   0.011 min)   0.4 %
SCF iterations                   ...       13.752 sec (=   0.229 min)   9.1 %
Property integrals               ...       75.308 sec (=   1.255 min)  49.6 %
SCF Response                     ...       32.752 sec (=   0.546 min)  21.6 %
Property calculations            ...       29.447 sec (=   0.491 min)  19.4 %
                             ****ORCA TERMINATED NORMALLY****
TOTAL RUN TIME: 0 days 0 hours 2 minutes 32 seconds 546 msec
