
                                 *****************
                                 * O   R   C   A *
                                 *****************

                                            #,                                       
                                            ###                                      
                                            ####                                     
                                            #####                                    
                                            ######                                   
                                           ########,                                 
                                     ,,################,,,,,                         
                               ,,#################################,,                 
                          ,,##########################################,,             
                       ,#########################################, ''#####,          
                    ,#############################################,,   '####,        
                  ,##################################################,,,,####,       
                ,###########''''           ''''###############################       
              ,#####''   ,,,,##########,,,,          '''####'''          '####       
            ,##' ,,,,###########################,,,                        '##       
           ' ,,###''''                  '''############,,,                           
         ,,##''                                '''############,,,,        ,,,,,,###''
      ,#''                                            '''#######################'''  
     '                                                          ''''####''''         
             ,#######,   #######,   ,#######,      ##                                
            ,#'     '#,  ##    ##  ,#'     '#,    #''#        ,####,   ,####,        
            ##       ##  ##   ,#'  ##            #'  '#       #'       #'  '#        
            ##       ##  #######   ##           ,######,      #####,   #    #        
            '#,     ,#'  ##    ##  '#,     ,#' ,#      #,     #,   #   #,  ,#        
             '#######'   ##     ##  '#######'  #'      '#     '####' # '####'        



                #########################################################
                #                        -***-                          #
                #          Department of theory and spectroscopy        #
                #                                                       #
                #                      Frank Neese                      #
                #                                                       #
                #     Directorship, Architecture, Infrastructure        #
                #                    SHARK, DRIVERS                     #
                #        Core code/Algorithms in most modules           #
                #                                                       #
                #        Max Planck Institute fuer Kohlenforschung      #
                #                Kaiser Wilhelm Platz 1                 #
                #                 D-45470 Muelheim/Ruhr                 #
                #                      Germany                          #
                #                                                       #
                #                  All rights reserved                  #
                #                        -***-                          #
                #########################################################


                         Program Version 6.0.0  -   RELEASE  -


 With contributions from (in alphabetic order):
   Daniel Aravena         : Magnetic Suceptibility
   Michael Atanasov       : Ab Initio Ligand Field Theory (pilot matlab implementation)
   Alexander A. Auer      : GIAO ZORA, VPT2 properties, NMR spectrum
   Ute Becker             : All parallelization in ORCA, NUMFREQ, NUMCALC
   Giovanni Bistoni       : ED, misc. LED, open-shell LED, HFLD
   Martin Brehm           : Molecular dynamics
   Dmytro Bykov           : pre 5.0 version of the SCF Hessian
   Marcos Casanova-Páez   : Triplet and SCS-CIS(D). UHF-(DLPNO)-IP/EA/STEOM-CCSD. UHF-CVS-IP/STEOM-CCSD
   Vijay G. Chilkuri      : MRCI spin determinant printing, contributions to CSF-ICE
   Pauline Colinet        : FMM embedding
   Dipayan Datta          : RHF DLPNO-CCSD density
   Achintya Kumar Dutta   : EOM-CC, STEOM-CC
   Nicolas Foglia         : Exact transition moments, OPA infrastructure, MCD improvements
   Dmitry Ganyushin       : Spin-Orbit,Spin-Spin,Magnetic field MRCI
   Miquel Garcia          : C-PCM and meta-GGA Hessian, CCSD/C-PCM, Gaussian charge scheme
   Tiago L. C. Gouveia    : GS-ROHF, GS-ROCIS
   Yang Guo               : DLPNO-NEVPT2, F12-NEVPT2, CIM, IAO-localization
   Andreas Hansen         : Spin unrestricted coupled pair/coupled cluster methods
   Ingolf Harden          : AUTO-CI MPn and infrastructure 
   Benjamin Helmich-Paris : MC-RPA, TRAH-(SCF,CASSCF), AVAS, COSX integrals, SCF dyn. polar.
   Lee Huntington         : MR-EOM, pCC
   Robert Izsak           : Overlap fitted RIJCOSX, COSX-SCS-MP3, EOM
   Riya Kayal             : Wick's Theorem for AUTO-CI, AUTO-CI UHF-CCSDT
   Emily Kempfer          : AUTO-CI, RHF CISDT and CCSDT
   Christian Kollmar      : KDIIS, OOCD, Brueckner-CCSD(T), CCSD density, CASPT2, CASPT2-K, improved NEVPT2
   Axel Koslowski         : Symmetry handling
   Simone Kossmann        : Meta GGA functionals, TD-DFT gradient, OOMP2, (MP2 Hessian; deprecated post 5.0)
   Lucas Lang             : DCDCAS
   Marvin Lechner         : AUTO-CI (C++ implementation), FIC-MRCC
   Spencer Leger          : CASSCF response
   Dagmar Lenk            : GEPOL surface, SMD, ORCA-2-JSON
   Dimitrios Liakos       : Extrapolation schemes; Compound Job, initial MDCI parallelization
   Dimitrios Manganas     : Further ROCIS development; embedding schemes. LFT, Crystal Embedding
   Dimitrios Pantazis     : SARC Basis sets
   Anastasios Papadopoulos: AUTO-CI, single reference methods and gradients
   Taras Petrenko         : pre 6.0 DFT Hessian and TD-DFT gradient, (ASA, deprecated), ECA, 1-Electron XAS/XES, NRVS
   Peter Pinski           : DLPNO-MP2, DLPNO-MP2 Gradient
   Christoph Reimann      : Effective Core Potentials
   Marius Retegan         : Local ZFS, SOC
   Christoph Riplinger    : Optimizer, TS searches, QM/MM, DLPNO-CCSD(T), (RO)-DLPNO pert. Triples
   Michael Roemelt        : Original ROCIS implementation
   Masaaki Saitow         : Open-shell DLPNO-CCSD energy and density
   Barbara Sandhoefer     : DKH picture change effects
   Kantharuban Sivalingam : CASSCF convergence/infrastructure, NEVPT2 and variants, FIC-MRCI
   Bernardo de Souza      : ESD, SOC TD-DFT
   Georgi Stoychev        : AutoAux, RI-MP2 NMR, DLPNO-MP2 response, X2C
   Van Anh Tran           : RI-MP2 g-tensors
   Willem Van den Heuvel  : Paramagnetic NMR
   Zikuan Wang            : NOTCH, Electric field optimization 
   Frank Wennmohs         : Technical directorship and infrastructure
   Hang Xu                : AUTO-CI-Response properties 


 We gratefully acknowledge several colleagues who have allowed us to
 interface, adapt or use parts of their codes:
   Stefan Grimme, W. Hujo, H. Kruse, P. Pracht,  : VdW corrections, initial TS optimization,
                  C. Bannwarth, S. Ehlert,         DFT functionals, gCP, sTDA/sTD-DF
                  L. Wittmann, M. Mueller
   Ed Valeev, F. Pavosevic, A. Kumar             : LibInt (2-el integral package), F12 methods
   Garnet Chan, S. Sharma, J. Yang, R. Olivares  : DMRG
   Ulf Ekstrom                                   : XCFun DFT Library
   Mihaly Kallay                                 : mrcc  (arbitrary order and MRCC methods)
   Frank Weinhold                                : gennbo (NPA and NBO analysis)
   Simon Mueller                                 : openCOSMO-RS
   Christopher J. Cramer and Donald G. Truhlar   : smd solvation model
   Lars Goerigk                                  : TD-DFT with DH, B97 family of functionals
   V. Asgeirsson, H. Jonsson                     : NEB implementation
   FAccTs GmbH                                   : IRC, NEB, NEB-TS, DLPNO-Multilevel, CI-OPT
                                                   MM, QMMM, 2- and 3-layer-ONIOM, Crystal-QMMM,
                                                   LR-CPCM, SF, NACMEs, symmetry and pop. for TD-DFT,
                                                   nearIR, NL-DFT gradient (VV10), updates on ESD,
                                                   ML-optimized integration grids, MBIS, APM,
                                                   GOAT, DOCKER, SOLVATOR, interface openCOSMO-RS
   S Lehtola, MJT Oliveira, MAL Marques          : LibXC Library
   Liviu Ungur et al                             : ANISO software


 Your calculation uses the libint2 library for the computation of 2-el integrals
 For citations please refer to: http://libint.valeyev.net

 Your ORCA version has been built with support for libXC version: 6.2.2
 For citations please refer to: https://libxc.gitlab.io

 This ORCA versions uses:
   CBLAS   interface :  Fast vector & matrix operations
   LAPACKE interface :  Fast linear algebra routines
   SCALAPACK package :  Parallel linear algebra routines
   Shared memory     :  Shared parallel matrices
   BLAS/LAPACK       :  OpenBLAS 0.3.27  USE64BITINT DYNAMIC_ARCH NO_AFFINITY SkylakeX SINGLE_THREADED
        Core in use  :  SkylakeX
   Copyright (c) 2011-2014, The OpenBLAS Project




***************************************
The coordinates will be read from file: censo.xyz
***************************************


Your calculation utilizes the geometrical counterpoise correction gCP
Please cite in your paper:
H.Kruse, S. Grimme J.Chem.Phys., 136, (2012), 154101 
   

Your calculation utilizes the atom-pairwise dispersion correction
based on EEQ partial charges (D4)


================================================================================

----- Orbital basis set information -----
Your calculation utilizes the basis: def2-TZVP
   F. Weigend and R. Ahlrichs, Phys. Chem. Chem. Phys. 7, 3297 (2005).

----- AuxJ basis set information -----
Your calculation utilizes the basis: def2-mTZVPP/J
   Stefan Grimme, Andreas Hansen, Sebastian Ehlert, and Jan-Michael Mewes 
   J. Chem. Phys. 154, 000000 (2021). DOI: 10.1063/5.0040021

================================================================================
                                        WARNINGS
                       Please study these warnings very carefully!
================================================================================

Using LibXC functional ID 497 : Re-regularized SCAN exchange by Furness et al
[ 1]  J. W. Furness, A. D. Kaplan, J. Ning, J. P. Perdew, and J. Sun.,  J. Phys. Chem. Lett. 11, 8208-8215 (2020)
[ 2]  J. W. Furness, A. D. Kaplan, J. Ning, J. P. Perdew, and J. Sun.,  J. Phys. Chem. Lett. 11, 9248-9248 (2020)
Using LibXC functional ID 498 : Re-regularized SCAN correlation by Furness et al
[ 1]  J. W. Furness, A. D. Kaplan, J. Ning, J. P. Perdew, and J. Sun.,  J. Phys. Chem. Lett. 11, 8208-8215 (2020)
[ 2]  J. W. Furness, A. D. Kaplan, J. Ning, J. P. Perdew, and J. Sun.,  J. Phys. Chem. Lett. 11, 9248-9248 (2020)
Using LibXC functional ID 497 : Re-regularized SCAN exchange by Furness et al
[ 1]  J. W. Furness, A. D. Kaplan, J. Ning, J. P. Perdew, and J. Sun.,  J. Phys. Chem. Lett. 11, 8208-8215 (2020)
[ 2]  J. W. Furness, A. D. Kaplan, J. Ning, J. P. Perdew, and J. Sun.,  J. Phys. Chem. Lett. 11, 9248-9248 (2020)
Using LibXC functional ID 498 : Re-regularized SCAN correlation by Furness et al
[ 1]  J. W. Furness, A. D. Kaplan, J. Ning, J. P. Perdew, and J. Sun.,  J. Phys. Chem. Lett. 11, 8208-8215 (2020)
[ 2]  J. W. Furness, A. D. Kaplan, J. Ning, J. P. Perdew, and J. Sun.,  J. Phys. Chem. Lett. 11, 9248-9248 (2020)

================================================================================
                                       INPUT FILE
================================================================================
NAME = censo.inp
|  1> ! r2SCAN-3c DEF2-TZVP FREQ
|  2> * xyzfile 0 1 censo.xyz
|  3> 
|  4>                          ****END OF INPUT****
================================================================================

                       ****************************
                       * Single Point Calculation *
                       ****************************

---------------------------------
CARTESIAN COORDINATES (ANGSTROEM)
---------------------------------
  C     -0.469826   -0.730593    0.000003
  C     -0.397700    0.772204    0.000032
  C      0.867630   -0.041728   -0.000020
  H     -0.785192   -1.221130   -0.915481
  H     -0.785145   -1.221165    0.915483
  H     -0.664826    1.290629   -0.915418
  H     -0.664774    1.290595    0.915516
  H      1.449880   -0.069353   -0.915643
  H      1.449927   -0.069391    0.915570

----------------------------
CARTESIAN COORDINATES (A.U.)
----------------------------
  NO LB      ZA    FRAG     MASS         X           Y           Z
   0 C     6.0000    0    12.011   -0.887843   -1.380620    0.000007
   1 C     6.0000    0    12.011   -0.751544    1.459253    0.000060
   2 C     6.0000    0    12.011    1.639584   -0.078855   -0.000037
   3 H     1.0000    0     1.008   -1.483799   -2.307601   -1.730009
   4 H     1.0000    0     1.008   -1.483710   -2.307667    1.730012
   5 H     1.0000    0     1.008   -1.256340    2.438935   -1.729889
   6 H     1.0000    0     1.008   -1.256240    2.438870    1.730074
   7 H     1.0000    0     1.008    2.739877   -0.131058   -1.730314
   8 H     1.0000    0     1.008    2.739965   -0.131129    1.730177

--------------------------------
INTERNAL COORDINATES (ANGSTROEM)
--------------------------------
 C      0   0   0     0.000000000000     0.00000000     0.00000000
 C      1   0   0     1.504526273900     0.00000000     0.00000000
 C      1   2   0     1.504434793245    60.00124176     0.00000000
 H      1   2   3     1.085446944978   117.73262191   252.34014005
 H      1   2   3     1.085444712154   117.73260102   107.66012723
 H      2   1   3     1.085434804697   117.72685428   107.67061783
 H      2   1   3     1.085434893858   117.72701447   252.32947188
 H      3   1   2     1.085423141402   117.72627126   252.35764342
 H      3   1   2     1.085421406693   117.72606621   107.64228472

---------------------------
INTERNAL COORDINATES (A.U.)
---------------------------
 C      0   0   0     0.000000000000     0.00000000     0.00000000
 C      1   0   0     2.843142618959     0.00000000     0.00000000
 C      1   2   0     2.842969745575    60.00124176     0.00000000
 H      1   2   3     2.051197458910   117.73262191   252.34014005
 H      1   2   3     2.051193239484   117.73260102   107.66012723
 H      2   1   3     2.051174517103   117.72685428   107.67061783
 H      2   1   3     2.051174685594   117.72701447   252.32947188
 H      3   1   2     2.051152476671   117.72627126   252.35764342
 H      3   1   2     2.051149198546   117.72606621   107.64228472

---------------------
BASIS SET INFORMATION
---------------------
There are 2 groups of distinct atoms

 Group   1 Type C   : 11s6p2d1f contracted to 5s3p2d1f pattern {62111/411/11/1}
 Group   2 Type H   : 5s1p contracted to 3s1p pattern {311/1}

Atom   0C    basis set group =>   1
Atom   1C    basis set group =>   1
Atom   2C    basis set group =>   1
Atom   3H    basis set group =>   2
Atom   4H    basis set group =>   2
Atom   5H    basis set group =>   2
Atom   6H    basis set group =>   2
Atom   7H    basis set group =>   2
Atom   8H    basis set group =>   2
---------------------------------
AUXILIARY/J BASIS SET INFORMATION
---------------------------------
There are 2 groups of distinct atoms

 Group   1 Type C   : 8s3p3d contracted to 6s3p3d pattern {311111/111/111}
 Group   2 Type H   : 5s2p1d contracted to 3s1p1d pattern {311/2/1}

Atom   0C    basis set group =>   1
Atom   1C    basis set group =>   1
Atom   2C    basis set group =>   1
Atom   3H    basis set group =>   2
Atom   4H    basis set group =>   2
Atom   5H    basis set group =>   2
Atom   6H    basis set group =>   2
Atom   7H    basis set group =>   2
Atom   8H    basis set group =>   2
------------------------------------------------------------------------------
                             ORCA STARTUP CALCULATIONS
                           -- RI-GTO INTEGRALS CHOSEN --
------------------------------------------------------------------------------
------------------------------------------------------------------------------
                   ___                                                        
                  /   \      - P O W E R E D   B Y -                         
                 /     \                                                     
                 |  |  |   _    _      __       _____    __    __             
                 |  |  |  | |  | |    /  \     |  _  \  |  |  /  |          
                  \  \/   | |  | |   /    \    | | | |  |  | /  /          
                 / \  \   | |__| |  /  /\  \   | |_| |  |  |/  /          
                |  |  |   |  __  | /  /__\  \  |    /   |      \           
                |  |  |   | |  | | |   __   |  |    \   |  |\   \          
                \     /   | |  | | |  |  |  |  | |\  \  |  | \   \       
                 \___/    |_|  |_| |__|  |__|  |_| \__\ |__|  \__/        
                                                                              
                      - O R C A' S   B I G   F R I E N D -                    
                                      &                                       
                       - I N T E G R A L  F E E D E R -                       
                                                                              
 v1 FN, 2020, v2 2021, v3 2022-2024                                           
------------------------------------------------------------------------------


----------------------
SHARK INTEGRAL PACKAGE
----------------------

Number of atoms                             ...      9
Number of basis functions                   ...    129
Number of shells                            ...     57
Maximum angular momentum                    ...      3
Integral batch strategy                     ... SHARK/LIBINT Hybrid
RI-J (if used) integral strategy            ... SPLIT-RIJ (Revised 2003 algorithm where possible)
Printlevel                                  ...      1
Contraction scheme used                     ... SEGMENTED contraction
Prescreening option                         ... SCHWARTZ
   Thresh                                   ... 1.000e-10
   Tcut                                     ... 1.000e-11
   Tpresel                                  ... 1.000e-11 
Coulomb Range Separation                    ... NOT USED
Exchange Range Separation                   ... NOT USED
Multipole approximations                    ... NOT USED
Finite Nucleus Model                        ... NOT USED
CABS basis                                  ... NOT available
Auxiliary Coulomb fitting basis             ... AVAILABLE
   # of basis functions in Aux-J            ...    156
   # of shells in Aux-J                     ...     66
   Maximum angular momentum in Aux-J        ...      2
Auxiliary J/K fitting basis                 ... NOT available
Auxiliary Correlation fitting basis         ... NOT available
Auxiliary 'external' fitting basis          ... NOT available

Checking pre-screening integrals            ... done (  0.0 sec) Dimension = 57
Check shell pair data                       ... done (  0.0 sec)
Shell pair information
Shell pair cut-off parameter TPreSel        ...   1.0e-11
Total number of shell pairs                 ...      1653
Shell pairs after pre-screening             ...      1650
Total number of primitive shell pairs       ...      4740
Primitive shell pairs kept                  ...      4098
          la=0 lb=0:    558 shell pairs
          la=1 lb=0:    495 shell pairs
          la=1 lb=1:    120 shell pairs
          la=2 lb=0:    198 shell pairs
          la=2 lb=1:     90 shell pairs
          la=2 lb=2:     21 shell pairs
          la=3 lb=0:     99 shell pairs
          la=3 lb=1:     45 shell pairs
          la=3 lb=2:     18 shell pairs
          la=3 lb=3:      6 shell pairs

Calculating one electron integrals          ... done (  0.0 sec)
Calculating RI/J V-Matrix + Cholesky decomp.... done (  0.0 sec)
Calculating Nuclear repulsion               ... done (  0.0 sec) ENN=     75.794337040670 Eh

Diagonalization of the overlap matrix:
Smallest eigenvalue                        ... 4.069e-04
Time for diagonalization                   ...    0.002 sec
Threshold for overlap eigenvalues          ... 1.000e-07
Number of eigenvalues below threshold      ... 0
Time for construction of square roots      ...    0.015 sec
Total time needed                          ...    0.024 sec

-------------------
DFT GRID GENERATION
-------------------

General Integration Accuracy     IntAcc      ... 4.388
Radial Grid Type                 RadialGrid  ... OptM3 with GC (2021)
Angular Grid (max. ang.)         AngularGrid ... 4 (Lebedev-302)
Angular grid pruning method      GridPruning ... 4 (adaptive)
Weight generation scheme         WeightScheme... mBecke (2022)
Basis function cutoff            BFCut       ... 1.0000e-10
Integration weight cutoff        WCut        ... 1.0000e-14
Partially contracted basis set               ... off
Rotationally invariant grid construction     ... off
Angular grids for H and He will be reduced by one unit

Total number of grid points                  ...    37635
Total number of batches                      ...      593
Average number of points per batch           ...       63
Average number of grid points per atom       ...     4182
Initializing property integral containers    ... done (  0.0 sec)

SHARK setup successfully completed in   0.5 seconds

Maximum memory used throughout the entire STARTUP-calculation: 16.9 MB
-------------------------------------------------------------------------------
                                 ORCA GUESS
                   Start orbitals & Density for SCF / CASSCF
-------------------------------------------------------------------------------

------------
SCF SETTINGS
------------
Hamiltonian:
 Density Functional     Method          .... DFT(GTOs)
  Functional kind                       .... Exchange
  Functional name                       .... Re-regularized SCAN exchange by Furness et al
  Functional family                     .... MGGA
  Functional refs                              
    [ 0] J. W. Furness, A. D. Kaplan, J. Ning, J. P. Perdew, and J. Sun.,  J. Phys. Chem. Lett. 11, 8208-8215 (2020), doi: 10.1021/acs.jpclett.0c02405
    [ 1] J. W. Furness, A. D. Kaplan, J. Ning, J. P. Perdew, and J. Sun.,  J. Phys. Chem. Lett. 11, 9248-9248 (2020), doi: 10.1021/acs.jpclett.0c03077
  Functional external parameters        .... 6
    Parameter  0 _c1        =  6.670000e-01 : c1 parameter        
    Parameter  1 _c2        =  8.000000e-01 : c2 parameter        
    Parameter  2 _d         =  1.240000e+00 : d parameter         
    Parameter  3 _k1        =  6.500000e-02 : k1 parameter        
    Parameter  4 _eta       =  1.000000e-03 : eta parameter       
    Parameter  5 _dp2       =  3.610000e-01 : dp2 parameter       
  Functional kind                       .... Correlation
  Functional name                       .... Re-regularized SCAN correlation by Furness et al
  Functional family                     .... MGGA
  Functional refs                              
    [ 0] J. W. Furness, A. D. Kaplan, J. Ning, J. P. Perdew, and J. Sun.,  J. Phys. Chem. Lett. 11, 8208-8215 (2020), doi: 10.1021/acs.jpclett.0c02405
    [ 1] J. W. Furness, A. D. Kaplan, J. Ning, J. P. Perdew, and J. Sun.,  J. Phys. Chem. Lett. 11, 9248-9248 (2020), doi: 10.1021/acs.jpclett.0c03077
  Functional external parameters        .... 1
    Parameter  0 _eta       =  1.000000e-03 : Regularization parameter
 Gradients option       PostSCFGGA      .... off
 RI-approximation to the Coulomb term is turned on
   Number of AuxJ basis functions       .... 156


General Settings:
 Integral files         IntName         .... censo
 Hartree-Fock type      HFTyp           .... RHF
 Total Charge           Charge          ....    0
 Multiplicity           Mult            ....    1
 Number of Electrons    NEL             ....   24
 Basis Dimension        Dim             ....  129
 Nuclear Repulsion      ENuc            ....     75.7943370407 Eh

Convergence Acceleration:
 AO-DIIS                CNVDIIS         .... on
   Start iteration      DIISMaxIt       ....    12
   Startup error        DIISStart       ....  0.200000
   # of expansion vecs  DIISMaxEq       ....     5
   Bias factor          DIISBfac        ....   1.050
   Max. coefficient     DIISMaxC        ....  10.000
 MO-DIIS                CNVKDIIS        .... off
 Trust-Rad. Augm. Hess. CNVTRAH         .... auto
   Auto Start mean grad. ratio tolernc. ....  1.125000
   Auto Start start iteration           ....    50
   Auto Start num. interpolation iter.  ....    10
   Max. Number of Micro iterations      ....    24
   Max. Number of Macro iterations      .... Maxiter - #DIIS iter
   Number of Davidson start vectors     ....     2
   Converg. threshold    (grad. norm)   ....   5.000e-05
   Grad. Scal. Fac. for Micro threshold ....   0.100
   Minimum threshold for Micro iter.    ....   1.000e-02
   NR start threshold (gradient norm)   ....   1.000e-04
   Initial trust radius                 ....   0.400
   Minimum AH scaling param. (alpha)    ....   1.000
   Maximum AH scaling param. (alpha)    .... 1000.000
   Quad. conv. algorithm                .... NR
   White noise on init. David. guess    .... on
   Maximum white noise                  ....   0.010
   Pseudo random numbers                .... off
   Inactive MOs                         .... canonical
   Orbital update algorithm             .... Taylor
   Preconditioner                       .... Diag
   Full preconditioner red. dimension   ....   250
   COSX micro iterations for RIJONX calc.... off
 SOSCF                  CNVSOSCF        .... on
   Start iteration      SOSCFMaxIt      ....   150
   Startup grad/error   SOSCFStart      ....  0.003300
   Hessian update       SOSCFHessUp     .... L-BFGS
 Level Shifting         CNVShift        .... on
   Level shift para.    LevelShift      ....    0.2500
   Turn off err/grad.   ShiftErr        ....    0.0010
 Zerner damping         CNVZerner       .... off
 Static damping         CNVDamp         .... on
   Fraction old density DampFac         ....    0.7000
   Max. Damping (<1)    DampMax         ....    0.9800
   Min. Damping (>=0)   DampMin         ....    0.0000
   Turn off err/grad.   DampErr         ....    0.1000

SCF Procedure:
 Maximum # iterations   MaxIter         ....   125
 SCF integral mode      SCFMode         .... Direct
   Integral package                     .... SHARK and LIBINT hybrid scheme
 Reset frequency        DirectResetFreq ....    20
 Integral Threshold     Thresh          ....  1.000e-10 Eh
 Primitive CutOff       TCut            ....  1.000e-11 Eh

Convergence Tolerance:
 Convergence Check Mode ConvCheckMode   .... Total+1el-Energy
 Convergence forced     ConvForced      .... 0
 Energy Change          TolE            ....  1.000e-06 Eh
 1-El. energy change                    ....  1.000e-03 Eh
 Orbital Gradient       TolG            ....  5.000e-05
 Orbital Rotation angle TolX            ....  5.000e-05
 DIIS Error             TolErr          ....  1.000e-06

------------------------------
INITIAL GUESS: MODEL POTENTIAL
------------------------------
Loading Hartree-Fock densities                     ... done
Calculating cut-offs                               ... done
Initializing the effective Hamiltonian             ... done
Setting up the integral package (SHARK)            ... done
Starting the Coulomb interaction                   ... done (   0.1 sec)
Making the grid                                    ... done (   0.1 sec)
Mapping shells                                     ... done
Starting the XC term evaluation                    ... done (   0.1 sec)
  promolecular density results
     # of electrons  =     23.995664931
     EX              =    -17.108179468
     EC              =     -0.763603819
     EX+EC           =    -17.871783288
Transforming the Hamiltonian                       ... done (   0.0 sec)
Diagonalizing the Hamiltonian                      ... done (   0.0 sec)
Back transforming the eigenvectors                 ... done (   0.0 sec)
Now organizing SCF variables                       ... done
                      ------------------
                      INITIAL GUESS DONE (   0.2 sec)
                      ------------------
             **** ENERGY FILE WAS UPDATED (censo.en.tmp) ****
Finished Guess after   0.4 sec
Maximum memory used throughout the entire GUESS-calculation: 9.4 MB

-------------------------------------------------------------------------------------------
                                      ORCA LEAN-SCF
                              memory conserving SCF solver
-------------------------------------------------------------------------------------------

----------------------------------------D-I-I-S--------------------------------------------
Iteration    Energy (Eh)           Delta-E    RMSDP     MaxDP     DIISErr   Damp  Time(sec)
-------------------------------------------------------------------------------------------
               ***  Starting incremental Fock matrix formation  ***
    1    -117.7492836152324287     0.00e+00  1.78e-03  3.19e-02  1.67e-01  0.700   1.1
    2    -117.8038712582076926    -5.46e-02  1.25e-03  2.08e-02  8.47e-02  0.700   1.1
                               ***Turning on AO-DIIS***
    3    -117.8241162652619209    -2.02e-02  5.29e-04  7.24e-03  2.92e-02  0.700   1.1
    4    -117.8358421975947579    -1.17e-02  8.68e-04  9.91e-03  1.32e-02  0.000   1.0
    5    -117.8622438137959989    -2.64e-02  2.05e-04  2.30e-03  8.35e-03  0.000   1.0
                              *** Initializing SOSCF ***
---------------------------------------S-O-S-C-F--------------------------------------
Iteration    Energy (Eh)           Delta-E    RMSDP     MaxDP     MaxGrad    Time(sec)
--------------------------------------------------------------------------------------
    6    -117.8625555453140521    -3.12e-04  7.93e-05  1.16e-03  1.80e-03     1.0
               *** Restarting incremental Fock matrix formation ***
    7    -117.8625738871416502    -1.83e-05  5.26e-05  6.77e-04  2.39e-04     1.0
    8    -117.8625740072643282    -1.20e-07  1.31e-05  1.90e-04  2.83e-04     1.0
                 **** Energy Check signals convergence ****

               *****************************************************
               *                     SUCCESS                       *
               *           SCF CONVERGED AFTER   8 CYCLES          *
               *****************************************************

             **** ENERGY FILE WAS UPDATED (censo.en.tmp) ****

----------------
TOTAL SCF ENERGY
----------------

Total Energy       :       -117.86257400726433 Eh           -3207.20369 eV

Components:
Nuclear Repulsion  :         75.79433704067017 Eh            2062.46876 eV
Electronic Energy  :       -193.65691104793450 Eh           -5269.67245 eV
One Electron Energy:       -306.98866701135711 Eh           -8353.58632 eV
Two Electron Energy:        113.33175596342259 Eh            3083.91386 eV

Virial components:
Potential Energy   :       -235.07958277745578 Eh           -6396.84066 eV
Kinetic Energy     :        117.21700877019146 Eh            3189.63697 eV
Virial Ratio       :          2.00550743653883

DFT components:
N(Alpha)           :       12.000013824895 electrons
N(Beta)            :       12.000013824895 electrons
N(Total)           :       24.000027649790 electrons
E(X)               :      -17.726886561951 Eh       
E(C)               :       -0.737045368822 Eh       
E(XC)              :      -18.463931930773 Eh       

---------------
SCF CONVERGENCE
---------------

  Last Energy change         ...    1.2012e-07  Tolerance :   1.0000e-06
  Last MAX-Density change    ...    1.9024e-04  Tolerance :   1.0000e-05
  Last RMS-Density change    ...    1.3093e-05  Tolerance :   1.0000e-06
  Last DIIS Error            ...    1.7975e-03  Tolerance :   1.0000e-06
  Last Orbital Gradient      ...    2.8324e-04  Tolerance :   5.0000e-05
  Last Orbital Rotation      ...    2.2404e-04  Tolerance :   5.0000e-05


----------------
ORBITAL ENERGIES
----------------

  NO   OCC          E(Eh)            E(eV) 
   0   2.0000     -10.030395      -272.9409 
   1   2.0000     -10.030155      -272.9344 
   2   2.0000     -10.030149      -272.9342 
   3   2.0000      -0.815334       -22.1864 
   4   2.0000      -0.562707       -15.3120 
   5   2.0000      -0.562686       -15.3115 
   6   2.0000      -0.461317       -12.5531 
   7   2.0000      -0.432356       -11.7650 
   8   2.0000      -0.330339        -8.9890 
   9   2.0000      -0.330322        -8.9885 
  10   2.0000      -0.267465        -7.2781 
  11   2.0000      -0.267419        -7.2768 
  12   0.0000       0.061364         1.6698 
  13   0.0000       0.073836         2.0092 
  14   0.0000       0.095304         2.5933 
  15   0.0000       0.095321         2.5938 
  16   0.0000       0.115931         3.1546 
  17   0.0000       0.177903         4.8410 
  18   0.0000       0.187423         5.1000 
  19   0.0000       0.187427         5.1001 
  20   0.0000       0.198258         5.3949 
  21   0.0000       0.198274         5.3953 
  22   0.0000       0.257534         7.0079 
*Only the first 10 virtual orbitals were printed.

                    ********************************
                    * MULLIKEN POPULATION ANALYSIS *
                    ********************************

-----------------------
MULLIKEN ATOMIC CHARGES
-----------------------
   0 C :   -0.206536
   1 C :   -0.206582
   2 C :   -0.206308
   3 H :    0.103237
   4 H :    0.103237
   5 H :    0.103250
   6 H :    0.103250
   7 H :    0.103226
   8 H :    0.103226
Sum of atomic charges:   -0.0000000

--------------------------------
MULLIKEN REDUCED ORBITAL CHARGES
--------------------------------
  0 C s       :     3.249103  s :     3.249103
      pz      :     1.022995  p :     2.887683
      px      :     0.984518
      py      :     0.880170
      dz2     :     0.003379  d :     0.061732
      dxz     :     0.009407
      dyz     :     0.011427
      dx2y2   :     0.014684
      dxy     :     0.022836
      f0      :     0.000787  f :     0.008017
      f+1     :     0.000515
      f-1     :     0.001349
      f+2     :     0.000865
      f-2     :     0.000561
      f+3     :     0.002561
      f-3     :     0.001380

  1 C s       :     3.249098  s :     3.249098
      pz      :     1.022983  p :     2.887736
      px      :     1.005414
      py      :     0.859339
      dz2     :     0.003380  d :     0.061730
      dxz     :     0.009006
      dyz     :     0.011831
      dx2y2   :     0.016732
      dxy     :     0.020782
      f0      :     0.000787  f :     0.008018
      f+1     :     0.000348
      f-1     :     0.001515
      f+2     :     0.000789
      f-2     :     0.000638
      f+3     :     0.002560
      f-3     :     0.001380

  2 C s       :     3.249006  s :     3.249006
      pz      :     1.022893  p :     2.887546
      px      :     0.807219
      py      :     1.057434
      dz2     :     0.003380  d :     0.061740
      dxz     :     0.012856
      dyz     :     0.007988
      dx2y2   :     0.024863
      dxy     :     0.012654
      f0      :     0.000788  f :     0.008017
      f+1     :     0.001932
      f-1     :    -0.000069
      f+2     :     0.000486
      f-2     :     0.000940
      f+3     :     0.002560
      f-3     :     0.001379

  3 H s       :     0.872619  s :     0.872619
      pz      :     0.010314  p :     0.024144
      px      :     0.006722
      py      :     0.007108

  4 H s       :     0.872619  s :     0.872619
      pz      :     0.010314  p :     0.024144
      px      :     0.006721
      py      :     0.007108

  5 H s       :     0.872607  s :     0.872607
      pz      :     0.010313  p :     0.024143
      px      :     0.006645
      py      :     0.007185

  6 H s       :     0.872607  s :     0.872607
      pz      :     0.010314  p :     0.024143
      px      :     0.006645
      py      :     0.007185

  7 H s       :     0.872630  s :     0.872630
      pz      :     0.010316  p :     0.024144
      px      :     0.007375
      py      :     0.006453

  8 H s       :     0.872631  s :     0.872631
      pz      :     0.010316  p :     0.024144
      px      :     0.007375
      py      :     0.006453



                     *******************************
                     * LOEWDIN POPULATION ANALYSIS *
                     *******************************

----------------------
LOEWDIN ATOMIC CHARGES
----------------------
   0 C :   -0.249966
   1 C :   -0.249958
   2 C :   -0.249948
   3 H :    0.124980
   4 H :    0.124979
   5 H :    0.124970
   6 H :    0.124970
   7 H :    0.124986
   8 H :    0.124986

-------------------------------
LOEWDIN REDUCED ORBITAL CHARGES
-------------------------------
  0 C s       :     2.787317  s :     2.787317
      pz      :     1.027210  p :     3.060315
      px      :     1.033855
      py      :     0.999249
      dz2     :     0.042076  d :     0.359639
      dxz     :     0.055877
      dyz     :     0.095963
      dx2y2   :     0.071627
      dxy     :     0.094096
      f0      :     0.005256  f :     0.042696
      f+1     :     0.002683
      f-1     :     0.004620
      f+2     :     0.005162
      f-2     :     0.002992
      f+3     :     0.015076
      f-3     :     0.006906

  1 C s       :     2.787326  s :     2.787326
      pz      :     1.027225  p :     3.060347
      px      :     1.040756
      py      :     0.992367
      dz2     :     0.042073  d :     0.359595
      dxz     :     0.047876
      dyz     :     0.103955
      dx2y2   :     0.077263
      dxy     :     0.088427
      f0      :     0.005255  f :     0.042690
      f+1     :     0.002297
      f-1     :     0.005006
      f+2     :     0.004614
      f-2     :     0.003539
      f+3     :     0.015073
      f-3     :     0.006906

  2 C s       :     2.787321  s :     2.787321
      pz      :     1.027177  p :     3.060294
      px      :     0.975130
      py      :     1.057986
      dz2     :     0.042097  d :     0.359634
      dxz     :     0.123986
      dyz     :     0.027836
      dx2y2   :     0.099681
      dxy     :     0.066034
      f0      :     0.005261  f :     0.042699
      f+1     :     0.005974
      f-1     :     0.001329
      f+2     :     0.002453
      f-2     :     0.005699
      f+3     :     0.015076
      f-3     :     0.006907

  3 H s       :     0.811289  s :     0.811289
      pz      :     0.029831  p :     0.063732
      px      :     0.016768
      py      :     0.017133

  4 H s       :     0.811289  s :     0.811289
      pz      :     0.029831  p :     0.063732
      px      :     0.016767
      py      :     0.017133

  5 H s       :     0.811294  s :     0.811294
      pz      :     0.029831  p :     0.063736
      px      :     0.016699
      py      :     0.017206

  6 H s       :     0.811294  s :     0.811294
      pz      :     0.029832  p :     0.063736
      px      :     0.016698
      py      :     0.017205

  7 H s       :     0.811279  s :     0.811279
      pz      :     0.029837  p :     0.063735
      px      :     0.017382
      py      :     0.016516

  8 H s       :     0.811279  s :     0.811279
      pz      :     0.029836  p :     0.063735
      px      :     0.017383
      py      :     0.016516



                      *****************************
                      * MAYER POPULATION ANALYSIS *
                      *****************************

  NA   - Mulliken gross atomic population
  ZA   - Total nuclear charge
  QA   - Mulliken gross atomic charge
  VA   - Mayer's total valence
  BVA  - Mayer's bonded valence
  FA   - Mayer's free valence

  ATOM       NA         ZA         QA         VA         BVA        FA
  0 C      6.2065     6.0000    -0.2065     3.8862     3.8862    -0.0000
  1 C      6.2066     6.0000    -0.2066     3.8858     3.8858    -0.0000
  2 C      6.2063     6.0000    -0.2063     3.8861     3.8861     0.0000
  3 H      0.8968     1.0000     0.1032     0.9825     0.9825    -0.0000
  4 H      0.8968     1.0000     0.1032     0.9825     0.9825    -0.0000
  5 H      0.8968     1.0000     0.1032     0.9825     0.9825     0.0000
  6 H      0.8968     1.0000     0.1032     0.9825     0.9825     0.0000
  7 H      0.8968     1.0000     0.1032     0.9825     0.9825    -0.0000
  8 H      0.8968     1.0000     0.1032     0.9825     0.9825     0.0000

  Mayer bond orders larger than 0.100000
B(  0-C ,  1-C ) :   0.9700 B(  0-C ,  2-C ) :   0.9702 B(  0-C ,  3-H ) :   0.9662 
B(  0-C ,  4-H ) :   0.9662 B(  1-C ,  2-C ) :   0.9700 B(  1-C ,  5-H ) :   0.9662 
B(  1-C ,  6-H ) :   0.9662 B(  2-C ,  7-H ) :   0.9662 B(  2-C ,  8-H ) :   0.9662 


-------
TIMINGS
-------

Total SCF time: 0 days 0 hours 0 min 8 sec 

Total time                  ....       8.712 sec
Sum of individual times     ....       8.313 sec  ( 95.4%)

SCF preparation             ....       0.148 sec  (  1.7%)
Fock matrix formation       ....       7.479 sec  ( 85.9%)
  Startup                   ....       0.044 sec  (  0.6% of F)
  Split-RI-J                ....       0.460 sec  (  6.1% of F)
  XC integration            ....       6.544 sec  ( 87.5% of F)
    XC Preparation          ....       0.000 sec  (  0.0% of XC)
    Basis function eval.    ....       0.957 sec  ( 14.6% of XC)
    Density eval.           ....       1.688 sec  ( 25.8% of XC)
    XC-Functional eval.     ....       0.858 sec  ( 13.1% of XC)
    XC-Potential eval.      ....       2.436 sec  ( 37.2% of XC)
Diagonalization             ....       0.000 sec  (  0.0%)
Density matrix formation    ....       0.149 sec  (  1.7%)
Total Energy calculation    ....       0.023 sec  (  0.3%)
Population analysis         ....       0.025 sec  (  0.3%)
Orbital Transformation      ....       0.045 sec  (  0.5%)
Orbital Orthonormalization  ....       0.000 sec  (  0.0%)
DIIS solution               ....       0.378 sec  (  4.3%)
SOSCF solution              ....       0.067 sec  (  0.8%)
Finished LeanSCF after   8.8 sec

Maximum memory used throughout the entire LEANSCF-calculation: 11.3 MB

------------------------------------------------------------------------------
                         ORCA PROPERTY INTEGRAL CALCULATIONS
------------------------------------------------------------------------------

GBWName                                   ... censo.gbw
Number of atoms                           ...      9
Number of basis functions                 ...    129
Max core memory                           ...   1024 MB

Dipole integrals                          ... YES
Quadrupole integrals                      ...  NO
Linear momentum integrals                 ...  NO
Angular momentum integrals                ...  NO
Higher moments length integrals           ...  NO
Higher moments velocity integrals         ...  NO
Kinetic energy integrals                  ...  NO
GIAO right hand sides                     ...  NO
GIAO dipole derivative integrals          ...  NO
SOC integrals                             ...  NO
EPR diamagnetic integrals (GIAO)          ...  NO
EPR gauge integrals                       ...  NO
Field gradient integrals                  ...  NO (   0 nuclei)
Spin-dipole/Fermi contact integrals       ...  NO (   0 nuclei)
Contact density integrals                 ...  NO (   0 nuclei)
Nucleus-orbit integrals                   ...  NO (   0 nuclei)
Geometric perturbations                   ... YES (   9 nuclei)

Choice of electric origin   ... Center of mass
Position of electric origin ... (  0.0001, -0.0001,  0.0000) 
Choice of magnetic origin   ... GIAO
Position of magnetic origin ... (  0.0000,  0.0000,  0.0000) 

Calculating integrals                     ... Electric Dipole (Length)     done (  0.0 sec)
Calculating integrals                     ... Geometrical perturbation right hand sides

-----------------------
GEOMETRIC PERTURBATIONS (9 nuclei)
-----------------------

MaxCore                            ...   1024 MB
Number of batches                  ...      1

BATCH   0: Atoms    0 -    8 ( 27 perturbations)
   => H(core) and overlap derivative integrals     ... done (     0.1 sec)
   => Making and storing internal U-coefficients   ... done (     0.5 sec)
   => RI-J derivative integrals                    ... done (     0.6 sec)
   => RI-J response operators                      ... done (     0.1 sec)
   => XC derivative integrals                      ... done (    39.8 sec)
   => XC response operators                        ... done (    10.1 sec)
   => Completing and storing right hand sides      ... done (     0.2 sec)
   => Total time for right hand sides =  52.5 sec

  geometrical perturbations done ( 52.5 sec)

Property integrals calculated in  52.5 sec

Maximum memory used throughout the entire PROPINT-calculation: 35.5 MB


-------------------------------------------------------------------------------
                          DFT DISPERSION CORRECTION                            
                                                                               
                                DFTD4 V3.4.0                                   
-------------------------------------------------------------------------------
The R2SCAN3C composite method is recognized
Using three-body term ABC
Active option DFTDOPT                   ...         5   

-------------------------   ----------------
Dispersion correction           -0.001275916
-------------------------   ----------------

------------------   -----------------
gCP correction             0.003011221
------------------   -----------------

-------------------------   --------------------
FINAL SINGLE POINT ENERGY      -117.860838702819
-------------------------   --------------------

------------------------------------------------------------------------------
                            ORCA SCF RESPONSE CALCULATION
------------------------------------------------------------------------------

GBWName                                 ... censo.gbw
Number of atoms                         ...      9
Number of basis functions               ...    129
Max core memory                         ...   1024 MB

Electric field perturbation             ...  NO
Quadrupolar field perturbation          ...  NO
Magnetic field perturbation (no GIAO)   ...  NO
Magnetic field perturbation (with GIAO) ...  NO
Linear momentum (velocity) perturbation ...  NO
Spin-orbit coupling perturbation        ...  NO
Choice of electric origin               ... Center of mass
Position of electric origin             ...     0.000050    -0.000055     0.000009
Choice of magnetic origin               ... GIAO
Position of magnetic origin             ...     0.000000     0.000000     0.000000
Nuclear geometric perturbations         ... YES (  27 perturbations)
Nucleus-orbit perturbations             ...  NO (   0 perturbations)
Spin-dipole/Fermi contact perturbations ...  NO (   0 perturbations)

Total number of real perturbations      ...     27
Total number of imaginary perturbations ...      0
Total number of triplet perturbations   ...      0
Total number of SOC perturbations       ...      0


                                **********************
                                * REAL PERTURBATIONS *
                                **********************



-------------------
SHARK CP-SCF DRIVER
-------------------

Dimension of the orbital basis          ...    129
Dimension of the CPSCF-problem          ...   1404
Number of operators                     ...      1
Max. number of iterations               ...    128
Convergence Tolerance                   ... 1.0e-03
Number of perturbations                 ...     27
Perturbation type                       ... REAL

----------------------------
POPLE LINEAR EQUATION SOLVER
----------------------------

  ITERATION   0:   ||err||_max =   1.7032e-01 (   3.9 sec   0/ 27 done)
  ITERATION   1:   ||err||_max =   2.0696e-02 (   4.0 sec   0/ 27 done)
  ITERATION   2:   ||err||_max =   4.3267e-03 (   4.1 sec   2/ 27 done)
  ITERATION   3:   ||err||_max =   1.6297e-03 (   5.1 sec  22/ 27 done)
  ITERATION   4:   ||err||_max =   2.4971e-04 (   1.1 sec  27/ 27 done)

CP-SCF equations solved in  20.9 sec
Response densities calculated in   0.2 sec

Maximum memory used throughout the entire SCFRESP-calculation: 15.9 MB

------------------------------------------------------------------------------
                              ORCA PROPERTY CALCULATIONS
------------------------------------------------------------------------------

GBWName                                 ... censo.gbw
Number of atoms                         ...      9
Number of basis functions               ...    129
Max core memory                         ...   1024 MB

Electric properties:
Dipole moment                           ... YES
Quadrupole moment                       ...  NO
Static polarizability (Dipole/Dipole)   ...  NO
Static polarizability (Dipole/Quad.)    ...  NO
Static polarizability (Quad./Quad.)     ...  NO
Static polarizability (Velocity)        ...  NO

Atomic electric properties:
Dipole moment                           ...  NO
Quadrupole moment                       ...  NO
Static polarizability                   ...  NO

Choice of electric origin               ... Center of mass
Position of electric origin             ...     0.000050    -0.000055     0.000009

General magnetic properties:
Magnetizability                         ...  NO

EPR properties:
g-Tensor (aka g-matrix)                 ...  NO
Zero-Field splitting spin-orbit         ...  NO
Zero-field splitting spin-spin          ...  NO
Hyperfine couplings                     ...  NO (   0 nuclei)
Quadrupole couplings                    ...  NO (   0 nuclei)
Contact density                         ...  NO (   0 nuclei)

NMR properties:
Chemical shifts                         ...  NO (   0 nuclei)
Spin-rotation constants                 ...  NO (   0 nuclei)
Spin-spin couplings                     ...  NO (   0 nuclei,    0 pairs)

Choice of magnetic origin               ... GIAO
Position of magnetic origin             ...     0.000000     0.000000     0.000000

Properties with geometric perturbations:
SCF Hessian                             ... YES
IR spectrum                             ... YES
VCD spectrum                            ...  NO
X-ray spectroscopy properties:
SCF XES/XAS/RIXS spectra                ...  NO


-------------
DIPOLE MOMENT
-------------

Method             : SCF
Type of density    : Electron Density
Multiplicity       :   1
Irrep              :   0
Energy             :  -117.8625740072643282 Eh
Relativity type    : 
Basis              : AO
                                X                 Y                 Z
Electronic contribution:      0.000309722      -0.000281176       0.000003125
Nuclear contribution   :     -0.000271930       0.000337649      -0.000002602
                        -----------------------------------------
Total Dipole Moment    :      0.000037792       0.000056473       0.000000523
                        -----------------------------------------
Magnitude (a.u.)       :      0.000067954
Magnitude (Debye)      :      0.000172725



--------------------
Rotational spectrum 
--------------------
 
Rotational constants in cm-1:             0.673394             0.673299             0.422152 
Rotational constants in MHz :         20187.858995         20184.996796         12655.792997 

Dipole components along the rotational axes: 
x,y,z [a.u.] :     0.000054    -0.000042     0.000001 
x,y,z [Debye]:     0.000136    -0.000106     0.000001 

 

Dipole moment calculation done in   0.0 sec 

-----------
SCF HESSIAN
-----------

Occupied/Occupied contributions to the Hessian:
   => Occupied/Occupied contributions              ... done (  0.0 sec)
Perturbed density contributions to the Hessian:
   => Perturbed density contributions              ... done (  0.0 sec)
Explicit contributions to the Hessian:
   => Nuclear repulsion Hessian                    ... done (  0.0 sec)
   => HCore and overlap Hessian                    ... done (  1.1 sec)
   => RI-J Hessian                                 ... done (  1.2 sec)
   => XC-Hessian                                   ... done ( 15.4 sec)
   => Van der Waals-Hessian                        ... done (  1.6 sec)
   => GCP-Hessian                                  ... done (  0.0 sec)
   => Explicit contributions done
Dipole derivatives                                 ... done (  0.0 sec)
Mass weighting the Hessian           ... done
Calculating normal modes             ... done
Scaling frequencies                  ... done

-----------------------
VIBRATIONAL FREQUENCIES
-----------------------

Scaling factor for frequencies =  1.000000000  (already applied!)

     0:       0.00 cm**-1
     1:       0.00 cm**-1
     2:       0.00 cm**-1
     3:       0.00 cm**-1
     4:       0.00 cm**-1
     5:       0.00 cm**-1
     6:     754.26 cm**-1
     7:     756.36 cm**-1
     8:     878.62 cm**-1
     9:     900.75 cm**-1
    10:     902.51 cm**-1
    11:    1046.47 cm**-1
    12:    1046.63 cm**-1
    13:    1078.59 cm**-1
    14:    1160.51 cm**-1
    15:    1212.93 cm**-1
    16:    1219.90 cm**-1
    17:    1220.08 cm**-1
    18:    1474.46 cm**-1
    19:    1474.61 cm**-1
    20:    1514.21 cm**-1
    21:    3106.44 cm**-1
    22:    3106.59 cm**-1
    23:    3111.88 cm**-1
    24:    3188.29 cm**-1
    25:    3188.49 cm**-1
    26:    3210.79 cm**-1


------------
NORMAL MODES
------------

These modes are the Cartesian displacements weighted by the diagonal matrix
M(i,i)=1/sqrt(m[i]) where m[i] is the mass of the displaced atom
Thus, these vectors are normalized but *not* orthogonal

                  0          1          2          3          4          5    
      0       0.000000   0.000000   0.000000   0.000000   0.000000   0.000000
      1       0.000000   0.000000   0.000000   0.000000   0.000000   0.000000
      2       0.000000   0.000000   0.000000   0.000000   0.000000   0.000000
      3       0.000000   0.000000   0.000000   0.000000   0.000000   0.000000
      4       0.000000   0.000000   0.000000   0.000000   0.000000   0.000000
      5       0.000000   0.000000   0.000000   0.000000   0.000000   0.000000
      6       0.000000   0.000000   0.000000   0.000000   0.000000   0.000000
      7       0.000000   0.000000   0.000000   0.000000   0.000000   0.000000
      8       0.000000   0.000000   0.000000   0.000000   0.000000   0.000000
      9       0.000000   0.000000   0.000000   0.000000   0.000000   0.000000
     10       0.000000   0.000000   0.000000   0.000000   0.000000   0.000000
     11       0.000000   0.000000   0.000000   0.000000   0.000000   0.000000
     12       0.000000   0.000000   0.000000   0.000000   0.000000   0.000000
     13       0.000000   0.000000   0.000000   0.000000   0.000000   0.000000
     14       0.000000   0.000000   0.000000   0.000000   0.000000   0.000000
     15       0.000000   0.000000   0.000000   0.000000   0.000000   0.000000
     16       0.000000   0.000000   0.000000   0.000000   0.000000   0.000000
     17       0.000000   0.000000   0.000000   0.000000   0.000000   0.000000
     18       0.000000   0.000000   0.000000   0.000000   0.000000   0.000000
     19       0.000000   0.000000   0.000000   0.000000   0.000000   0.000000
     20       0.000000   0.000000   0.000000   0.000000   0.000000   0.000000
     21       0.000000   0.000000   0.000000   0.000000   0.000000   0.000000
     22       0.000000   0.000000   0.000000   0.000000   0.000000   0.000000
     23       0.000000   0.000000   0.000000   0.000000   0.000000   0.000000
     24       0.000000   0.000000   0.000000   0.000000   0.000000   0.000000
     25       0.000000   0.000000   0.000000   0.000000   0.000000   0.000000
     26       0.000000   0.000000   0.000000   0.000000   0.000000   0.000000
                  6          7          8          9         10         11    
      0      -0.000000   0.000001  -0.000002  -0.046688  -0.275323  -0.027216
      1       0.000000  -0.000001   0.000000   0.283440  -0.076821   0.047248
      2       0.014699   0.024027  -0.033045   0.000008   0.000007   0.000001
      3       0.000000  -0.000001  -0.000000  -0.196489   0.196275  -0.109988
      4       0.000000   0.000000   0.000000  -0.190591  -0.226133  -0.052849
      5       0.013562  -0.024594  -0.033072   0.000001  -0.000009   0.000002
      6      -0.000001   0.000000  -0.000001   0.288887   0.088946   0.018353
      7       0.000000  -0.000001   0.000001  -0.083138   0.256622  -0.073960
      8      -0.027802   0.000683  -0.033259  -0.000010   0.000002  -0.000002
      9      -0.229260   0.343061  -0.193560  -0.164659  -0.352192   0.189473
     10       0.347180   0.105333  -0.298269   0.313587   0.018306  -0.124148
     11      -0.093813  -0.152995   0.196776   0.024725  -0.024714   0.015598
     12       0.229263  -0.343078   0.193572  -0.164659  -0.352193   0.189484
     13      -0.347183  -0.105323   0.298263   0.313585   0.018296  -0.124150
     14      -0.093840  -0.152983   0.196781  -0.024703   0.024730  -0.015611
     15      -0.276397  -0.318616  -0.164876  -0.341841   0.210339   0.504197
     16      -0.316981   0.151642   0.315649  -0.249391  -0.160029   0.259704
     17      -0.086713   0.156690   0.197162   0.009165   0.033606  -0.001903
     18       0.276393   0.318624   0.164885  -0.341844   0.210334   0.504186
     19       0.316986  -0.151650  -0.315660  -0.249392  -0.160016   0.259695
     20      -0.086717   0.156666   0.197141  -0.009157  -0.033631   0.001885
     21       0.317587  -0.028990   0.357682   0.234172   0.082884   0.014423
     22      -0.025452  -0.444168  -0.017774  -0.122046   0.417761   0.338454
     23       0.177800  -0.004391   0.198134  -0.034119  -0.008860  -0.013686
     24      -0.317579   0.028991  -0.357673   0.234170   0.082885   0.014427
     25       0.025444   0.444178   0.017768  -0.122052   0.417755   0.338465
     26       0.177818  -0.004375   0.198154   0.034102   0.008871   0.013699
                 12         13         14         15         16         17    
      0       0.100902   0.094561  -0.000003  -0.129722  -0.000006   0.000002
      1      -0.051551  -0.061107   0.000001  -0.201246   0.000001   0.000005
      2      -0.000004  -0.000003  -0.000005   0.000003  -0.163455   0.015700
      3      -0.000136  -0.099587   0.000000  -0.109290   0.000001   0.000006
      4       0.031007  -0.051260   0.000001   0.212629  -0.000001  -0.000007
      5       0.000002   0.000002   0.000064   0.000011   0.095311   0.133728
      6      -0.021070   0.005367   0.000001   0.239112   0.000005  -0.000009
      7      -0.098327   0.112277  -0.000003  -0.011301  -0.000001   0.000003
      8      -0.000002   0.000001  -0.000069  -0.000015   0.068167  -0.149412
      9      -0.439861  -0.338192   0.343435  -0.198902  -0.185951   0.344317
     10       0.282008   0.217111  -0.220969  -0.309356  -0.357680  -0.175397
     11       0.006853   0.000019   0.000058   0.055013   0.086663  -0.008390
     12      -0.439858  -0.338212  -0.343414  -0.198934   0.185956  -0.344296
     13       0.282015   0.217121   0.220953  -0.309355   0.357677   0.175403
     14      -0.006815   0.000006   0.000084  -0.055018   0.086672  -0.008363
     15      -0.057922   0.355104  -0.362703  -0.168653  -0.172761   0.350013
     16      -0.031740   0.182937  -0.187050   0.326129  -0.352231  -0.189401
     17      -0.016985   0.000057  -0.000078   0.054951  -0.050539  -0.071029
     18      -0.057925   0.355123   0.362700  -0.168701   0.172755  -0.350011
     19      -0.031726   0.182948   0.187052   0.326130   0.352239   0.189389
     20       0.016982  -0.000070  -0.000092  -0.054933  -0.050538  -0.071000
     21       0.022974  -0.018936   0.019699   0.367020  -0.184188   0.359053
     22       0.457943  -0.399514   0.407817  -0.017267  -0.343574  -0.178205
     23       0.010207   0.000028   0.000078   0.054713  -0.036266   0.079280
     24       0.022964  -0.018947  -0.019696   0.366979   0.184195  -0.359069
     25       0.457934  -0.399535  -0.407799  -0.017253   0.343568   0.178199
     26      -0.010186  -0.000040   0.000062  -0.054725  -0.036263   0.079311
                 18         19         20         21         22         23    
      0      -0.038517  -0.000596   0.049258  -0.027322  -0.001875   0.021516
      1      -0.052693   0.023452   0.076555  -0.042510  -0.003126   0.033426
      2       0.000001   0.000000  -0.000000  -0.000010  -0.000001   0.000007
      3      -0.004752  -0.033012   0.041711   0.012764  -0.019249   0.018303
      4      -0.020011   0.057073  -0.081086  -0.024593   0.037549  -0.035527
      5      -0.000000   0.000002  -0.000003  -0.000000   0.000001  -0.000002
      6      -0.049449  -0.046196  -0.091037  -0.021954  -0.044810  -0.040648
      7      -0.007123   0.012194   0.004290   0.001133   0.002089   0.001940
      8       0.000001   0.000001   0.000002   0.000004   0.000007   0.000006
      9       0.248349  -0.062273  -0.170453   0.161855   0.012297  -0.111287
     10       0.379458  -0.120328  -0.265228   0.251860   0.017521  -0.173094
     11      -0.314377   0.093517   0.249497   0.494318   0.035394  -0.346361
     12       0.248362  -0.062277  -0.170464   0.161791   0.012291  -0.111242
     13       0.379440  -0.120322  -0.265214   0.251819   0.017515  -0.173066
     14       0.314377  -0.093518  -0.249498  -0.494203  -0.035381   0.346283
     15      -0.038779   0.213119  -0.145093  -0.074664   0.114861  -0.094799
     16       0.103364  -0.406972   0.281732   0.146603  -0.222030   0.184113
     17       0.075917  -0.318399   0.250586  -0.271516   0.412697  -0.348487
     18      -0.038784   0.213137  -0.145107  -0.074646   0.114836  -0.094783
     19       0.103366  -0.406983   0.281742   0.146590  -0.222011   0.184107
     20      -0.075911   0.318371  -0.250566   0.271520  -0.412707   0.348513
     21       0.342831   0.324619   0.315971   0.130378   0.265692   0.211007
     22      -0.007226  -0.025108  -0.015085  -0.005394  -0.013028  -0.010058
     23       0.237445   0.225561   0.250231  -0.215394  -0.439162  -0.355494
     24       0.342816   0.324606   0.315957   0.130361   0.265669   0.210990
     25      -0.007218  -0.025098  -0.015075  -0.005401  -0.013043  -0.010071
     26      -0.237463  -0.225578  -0.250248   0.215343   0.439075   0.355428
                 24         25         26    
      0       0.000002   0.000000   0.000001
      1       0.000007   0.000001   0.000004
      2      -0.080669  -0.016656  -0.057069
      3       0.000002  -0.000002  -0.000001
      4      -0.000001   0.000001   0.000001
      5       0.054417  -0.061802  -0.057106
      6       0.000002   0.000007  -0.000005
      7      -0.000001  -0.000002   0.000001
      8       0.025971   0.077761  -0.057619
      9       0.164056   0.030434   0.118878
     10       0.253684   0.054621   0.184828
     11       0.475580   0.098180   0.339958
     12      -0.164074  -0.030437  -0.118884
     13      -0.253768  -0.054638  -0.184878
     14       0.475706   0.098204   0.340028
     15      -0.095977   0.103668   0.100696
     16       0.179829  -0.207064  -0.195511
     17      -0.320803   0.364420   0.340189
     18       0.095958  -0.103647  -0.100677
     19      -0.179816   0.207049   0.195499
     20      -0.320813   0.364432   0.340204
     21       0.096966   0.290826  -0.221569
     22      -0.008396  -0.012576   0.010563
     23      -0.153151  -0.458428   0.343305
     24      -0.096991  -0.290906   0.221620
     25       0.008403   0.012597  -0.010578
     26      -0.153173  -0.458503   0.343348


-----------
IR SPECTRUM
-----------

 Mode   freq       eps      Int      T**2         TX        TY        TZ
       cm**-1   L/(mol*cm) km/mol    a.u.
----------------------------------------------------------------------------
  6:    754.26   0.000000    0.00  0.000000  ( 0.000000 -0.000000 -0.000237)
  7:    756.36   0.000000    0.00  0.000000  (-0.000000  0.000000  0.000147)
  8:    878.62   0.000089    0.45  0.000032  ( 0.000000 -0.000000  0.005635)
  9:    900.75   0.003755   18.98  0.001301  (-0.035268 -0.007567  0.000001)
 10:    902.51   0.003754   18.97  0.001298  (-0.007499  0.035239  0.000001)
 11:   1046.47   0.002100   10.61  0.000626  ( 0.020634  0.014155 -0.000000)
 12:   1046.63   0.002130   10.76  0.000635  (-0.013881  0.021034  0.000001)
 13:   1078.59   0.000000    0.00  0.000000  (-0.000067 -0.000355 -0.000000)
 14:   1160.51   0.000000    0.00  0.000000  ( 0.000000  0.000000 -0.000121)
 15:   1212.93   0.000000    0.00  0.000000  ( 0.000033 -0.000043 -0.000000)
 16:   1219.90   0.000000    0.00  0.000000  (-0.000000 -0.000000  0.000026)
 17:   1220.08   0.000000    0.00  0.000000  ( 0.000000 -0.000000  0.000211)
 18:   1474.46   0.000218    1.10  0.000046  ( 0.005134  0.004451 -0.000000)
 19:   1474.61   0.000219    1.11  0.000046  ( 0.004406 -0.005193 -0.000000)
 20:   1514.21   0.000000    0.00  0.000000  ( 0.000017  0.000018  0.000000)
 21:   3106.44   0.005902   29.83  0.000593  (-0.011789 -0.021305 -0.000001)
 22:   3106.59   0.005921   29.92  0.000595  (-0.021347  0.011793  0.000002)
 23:   3111.88   0.000001    0.01  0.000000  (-0.000327 -0.000023  0.000002)
 24:   3188.29   0.000000    0.00  0.000000  ( 0.000001  0.000002  0.000037)
 25:   3188.49   0.000000    0.00  0.000000  ( 0.000002  0.000000  0.000137)
 26:   3210.79   0.005831   29.47  0.000567  (-0.000001  0.000001 -0.023805)

* The epsilon (eps) is given for a Dirac delta lineshape.
** The dipole moment derivative (T) already includes vibrational overlap.

The first frequency considered to be a vibration is 6
The total number of vibrations considered is 21


--------------------------
THERMOCHEMISTRY AT 298.15K
--------------------------

Temperature         ...   298.15 K
Pressure            ...     1.00 atm
Total Mass          ...    42.08 AMU
Quasi RRHO          ...     True
Cut-Off Frequency   ...     1.00 cm^-1

Throughout the following assumptions are being made:
  (1) The electronic state is orbitally nondegenerate
  (2) There are no thermally accessible electronically excited states
  (3) Hindered rotations indicated by low frequency modes are not
      treated as such but are treated as vibrations and this may
      cause some error
  (4) All equations used are the standard statistical mechanics
      equations for an ideal gas
  (5) All vibrations are strictly harmonic

freq.     754.26  E(vib)   ...       0.06 
freq.     756.36  E(vib)   ...       0.06 
freq.     878.62  E(vib)   ...       0.04 
freq.     900.75  E(vib)   ...       0.03 
freq.     902.51  E(vib)   ...       0.03 
freq.    1046.47  E(vib)   ...       0.02 
freq.    1046.63  E(vib)   ...       0.02 
freq.    1078.59  E(vib)   ...       0.02 
freq.    1160.51  E(vib)   ...       0.01 
freq.    1212.93  E(vib)   ...       0.01 
freq.    1219.90  E(vib)   ...       0.01 
freq.    1220.08  E(vib)   ...       0.01 
freq.    1474.46  E(vib)   ...       0.00 
freq.    1474.61  E(vib)   ...       0.00 
freq.    1514.21  E(vib)   ...       0.00 
freq.    3106.44  E(vib)   ...       0.00 
freq.    3106.59  E(vib)   ...       0.00 
freq.    3111.88  E(vib)   ...       0.00 
freq.    3188.29  E(vib)   ...       0.00 
freq.    3188.49  E(vib)   ...       0.00 
freq.    3210.79  E(vib)   ...       0.00 

------------
INNER ENERGY
------------

The inner energy is: U= E(el) + E(ZPE) + E(vib) + E(rot) + E(trans)
    E(el)   - is the total energy from the electronic structure calculation
              = E(kin-el) + E(nuc-el) + E(el-el) + E(nuc-nuc)
    E(ZPE)  - the the zero temperature vibrational energy from the frequency calculation
    E(vib)  - the the finite temperature correction to E(ZPE) due to population
              of excited vibrational states
    E(rot)  - is the rotational thermal energy
    E(trans)- is the translational thermal energy

Summary of contributions to the inner energy U:
Electronic energy                ...   -117.86083870 Eh
Zero point energy                ...      0.08099653 Eh      50.83 kcal/mol
Thermal vibrational correction   ...      0.00052121 Eh       0.33 kcal/mol
Thermal rotational correction    ...      0.00141627 Eh       0.89 kcal/mol
Thermal translational correction ...      0.00141627 Eh       0.89 kcal/mol
-----------------------------------------------------------------------
Total thermal energy                   -117.77648841 Eh


Summary of corrections to the electronic energy:
(perhaps to be used in another calculation)
Total thermal correction                  0.00335375 Eh       2.10 kcal/mol
Non-thermal (ZPE) correction              0.08099653 Eh      50.83 kcal/mol
-----------------------------------------------------------------------
Total correction                          0.08435029 Eh      52.93 kcal/mol


--------
ENTHALPY
--------

The enthalpy is H = U + kB*T
                kB is Boltzmann's constant
Total thermal energy              ...   -117.77648841 Eh 
Thermal Enthalpy correction       ...      0.00094421 Eh       0.59 kcal/mol
-----------------------------------------------------------------------
Total Enthalpy                    ...   -117.77554421 Eh


Note: Rotational entropy computed according to Herzberg 
Infrared and Raman Spectra, Chapter V,1, Van Nostrand Reinhold, 1945 
Point Group:  Cs, Symmetry Number:   1  
Rotational constants in cm-1:     0.673394     0.673299     0.422152 

Vibrational entropy computed according to the QRRHO of S. Grimme
Chem.Eur.J. 2012 18 9955 using a reference frequency of 100.0 cm-1


-------
ENTROPY
-------

The entropy contributions are T*S = T*(S(el)+S(vib)+S(rot)+S(trans))
     S(el)   - electronic entropy
     S(vib)  - vibrational entropy
     S(rot)  - rotational entropy
     S(trans)- translational entropy
The entropies will be listed as multiplied by the temperature to get
units of energy

Electronic entropy                ...      0.00000000 Eh      0.00 kcal/mol
Vibrational entropy               ...      0.00064075 Eh      0.40 kcal/mol
Rotational entropy                ...      0.01029136 Eh      6.46 kcal/mol
Translational entropy             ...      0.01764535 Eh     11.07 kcal/mol
-----------------------------------------------------------------------
Final entropy term                ...      0.02857746 Eh     17.93 kcal/mol

In case the symmetry of your molecule has not been determined correctly
or in case you have a reason to use a different symmetry number we print 
out the resulting rotational entropy values for sn=1,12:

 non-linear molecules -----------------------------------
|  sn= 1 | S(rot)=       0.01029136 Eh      6.46 kcal/mol|
|  sn= 2 | S(rot)=       0.00963690 Eh      6.05 kcal/mol|
|  sn= 3 | S(rot)=       0.00925407 Eh      5.81 kcal/mol|
|  sn= 4 | S(rot)=       0.00898244 Eh      5.64 kcal/mol|
|  sn= 5 | S(rot)=       0.00877175 Eh      5.50 kcal/mol|
|  sn= 6 | S(rot)=       0.00859961 Eh      5.40 kcal/mol|
|  sn= 7 | S(rot)=       0.00845406 Eh      5.30 kcal/mol|
|  sn= 8 | S(rot)=       0.00832799 Eh      5.23 kcal/mol|
|  sn= 9 | S(rot)=       0.00821678 Eh      5.16 kcal/mol|
|  sn=10 | S(rot)=       0.00811730 Eh      5.09 kcal/mol|
|  sn=11 | S(rot)=       0.00802731 Eh      5.04 kcal/mol|
|  sn=12 | S(rot)=       0.00794515 Eh      4.99 kcal/mol|
 linear molecules ---------------------------------------
|  Dinfh | S(rot)=       0.00614006 Eh      3.85 kcal/mol|
|  Cinfv | S(rot)=       0.00679452 Eh      4.26 kcal/mol|
 --------------------------------------------------------


-------------------
GIBBS FREE ENERGY
-------------------

The Gibbs free energy is G = H - T*S

Total enthalpy                    ...   -117.77554421 Eh 
Total entropy correction          ...     -0.02857746 Eh    -17.93 kcal/mol
-----------------------------------------------------------------------
Final Gibbs free energy         ...   -117.80412166 Eh

For completeness - the Gibbs free energy minus the electronic energy
G-E(el)                           ...      0.05671704 Eh     35.59 kcal/mol


Maximum memory used throughout the entire PROP-calculation: 28.2 MB

--------------------------------
SUGGESTED CITATIONS FOR THIS RUN
--------------------------------

Below you find a list of papers that are relevant to this ORCA run
We neither can nor want to force you to cite these papers, but we appreciate if you do
You receive ORCA, which is the product of decades of hard work by many enthusiastic individuals, for free
The only thing we kindly ask in return is that you cite our papers,
We deeply appreciate it, if you show your appreciation for ORCA by not just citing the generic ORCA reference.

Please note that relegating all ORCA citations to the supporting information does *not* help us.
SI sections are not indexed - citations you put there will not count into any citation statistics
But we need these citations in order to attract the funding resources that allow us to do what we are doing

Therefore, if you are a happy ORCA user, please consider citing a few of the papers listed below in the main body of your paper

In addition to the list printed below, the program has created the file censo.bibtex that contains the list in bibtex format
You can import this file easily into all common literature databanks and citation aid programs


List of essential papers. We consider these as the minimum necessary citations

  1. Neese,F.
     Software update: the ORCA program system, version 5.0
     WIRES Comput. Molec. Sci., 2022 12(1)e1606
     doi.org/10.1002/wcms.1606
  2. Grimme,S.; Hansen,A.; Ehlert,S.; Mewes,J.
     r2SCAN-3c: A 'Swiss army knife' composite electronic-structure method
     J. Chem. Phys., 2021 154 064103
     doi.org/10.1063/5.0040021

List of papers to cite with high priority. The work reported in these papers was absolutely
necessary for this run to complete.
Our perspective: the developers of density functionals and basis sets usually get cited in chemistry papers
Good! But without the algorithms to do something with them, the functionals or basis sets would not do anything.
Hence, in our opinion, the algorithm design and method developments papers are equally worthy of getting cited

  1. Neese,F.
     An improvement of the resolution of the identity approximation for the formation of the Coulomb matrix
     J. Comp. Chem., 2003 24(14)1740-1747
     doi.org/10.1002/jcc.10318
  2. Bykov,D.; Petrenko,T.; Izsak,R.; Kossmann,S.; Becker,U.; Valeev,E.; Neese,F.
     Efficient implementation of the analytic second derivatives of Hartree-Fock and hybrid DFT energies: a detailed analysis of different approximations
     Molec. Phys., 2015 113 1961-1977
     doi.org/10.1080/00268976.2015.1025114
  3. Neese,F.
     The SHARK Integral Generation and Digestion System
     J. Comp. Chem., 2022  1-16
     doi.org/10.1002/jcc.26942
  4. Lehtola,S.; Steigemann,C.; Oliveira,M.; Marques,M.
     Recent developments in Libxc - A comprehensive library of functionals for density functional theory
     Software X, 2018 7 
     doi.org/10.1016/j.softx.2017.11.002
  5. Caldeweyher,E.; Bannwarth,C.; Grimme,S.
     Extension of the D3 dispersion coefficient model
     J. Chem. Phys., 2017 147 034112-XXXX
     doi.org/10.1063/1.4993215
  6. Caldeweyher,E.; Ehlert,S.; Hansen,A.; Neugebauer,H.; Spicher,S.; Bannwarth,C.; Grimme,S.
     A generally applicable atomic-charge dependent London dispersion correction
     J. Chem. Phys., 2019 150 154122-XXXX
     doi.org/10.1063/1.5090222
  7. Caldeweyher,E.; Mewes,J.; Ehlert,S.; Grimme,S.
     Extension and evaluation of the D4 London-dispersion model for periodic systems
     Phys. Chem. Chem. Phys., 2020 22(16)8499-8512
     doi.org/10.1039/D0CP00502A

List of suggested additional citations. These are papers that are important in the 'surrounding' of 
of this run, or papers that preceded the highly important papers. If you like your results we are grateful for a citation.

  1. Neese,F.
     The ORCA program system
     WIRES Comput. Molec. Sci., 2012 2(1)73-78
     doi.org/10.1002/wcms.81
  2. Neese,F.
     Software update: the ORCA program system, version 4.0
     WIRES Comput. Molec. Sci., 2018 8(1)1-6
     doi.org/10.1002/wcms.1327
  3. Neese,F.; Wennmohs,F.; Becker,U.; Riplinger,C.
     The ORCA quantum chemistry program package
     J. Chem. Phys., 2020 152 Art. No. L224108
     doi.org/10.1063/5.0004608

List of optional additional citations

  1. Neese,F.
     Approximate second-order SCF convergence for spin unrestricted wavefunctions
     Chem. Phys. Lett., 2000 325(1-3)93-98
     doi.org/10.1016/s0009-2614(00)00662-x

Timings for individual modules:

Sum of individual times          ...      103.939 sec (=   1.732 min)
Startup calculation              ...        0.531 sec (=   0.009 min)   0.5 %
SCF iterations                   ...        9.252 sec (=   0.154 min)   8.9 %
Property integrals               ...       52.603 sec (=   0.877 min)  50.6 %
SCF Response                     ...       22.078 sec (=   0.368 min)  21.2 %
Property calculations            ...       19.474 sec (=   0.325 min)  18.7 %
                             ****ORCA TERMINATED NORMALLY****
TOTAL RUN TIME: 0 days 0 hours 1 minutes 44 seconds 599 msec
