      -----------------------------------------------------------      
     |                   =====================                   |     
     |                           x T B                           |     
     |                   =====================                   |     
     |                         S. Grimme                         |     
     |          Mulliken Center for Theoretical Chemistry        |     
     |                    University of Bonn                     |     
      -----------------------------------------------------------      

   * xtb version 6.7.1 (edcfbbe) compiled by 'albert@albert-system' on 2024-07-22

   xtb is free software: you can redistribute it and/or modify it under
   the terms of the GNU Lesser General Public License as published by
   the Free Software Foundation, either version 3 of the License, or
   (at your option) any later version.
   
   xtb is distributed in the hope that it will be useful,
   but WITHOUT ANY WARRANTY; without even the implied warranty of
   MERCHANTABILITY or FITNESS FOR A PARTICULAR PURPOSE.  See the
   GNU Lesser General Public License for more details.
   
   Cite this work as:
   * C. Bannwarth, E. Caldeweyher, S. Ehlert, A. Hansen, P. Pracht,
     J. Seibert, S. Spicher, S. Grimme, WIREs Comput. Mol. Sci., 2020, 11,
     e01493. DOI: 10.1002/wcms.1493
   
   for GFN2-xTB:
   * C. Bannwarth, S. Ehlert and S. Grimme., J. Chem. Theory Comput., 2019,
     15, 1652-1671. DOI: 10.1021/acs.jctc.8b01176
   for GFN1-xTB:
   * S. Grimme, C. Bannwarth, P. Shushkov, J. Chem. Theory Comput., 2017,
     13, 1989-2009. DOI: 10.1021/acs.jctc.7b00118
   for GFN0-xTB:
   * P. Pracht, E. Caldeweyher, S. Ehlert, S. Grimme, ChemRxiv, 2019, preprint.
     DOI: 10.26434/chemrxiv.8326202.v1
   for GFN-FF:
   * S. Spicher and S. Grimme, Angew. Chem. Int. Ed., 2020, 59, 15665-15673.
     DOI: 10.1002/anie.202004239
   
   for ALPB and GBSA implicit solvation:
   * S. Ehlert, M. Stahn, S. Spicher, S. Grimme, J. Chem. Theory Comput.,
     2021, 17, 4250-4261. DOI: 10.1021/acs.jctc.1c00471
   
   for ddCOSMO and CPCM-X implicit solvation:
   * M. Stahn, S. Ehlert, S. Grimme, J. Phys. Chem. A,
     2023, XX, XXXX-XXXX. DOI: 10.1021/acs.jpca.3c04382
   
   for DFT-D4:
   * E. Caldeweyher, C. Bannwarth and S. Grimme, J. Chem. Phys., 2017,
     147, 034112. DOI: 10.1063/1.4993215
   * E. Caldeweyher, S. Ehlert, A. Hansen, H. Neugebauer, S. Spicher,
     C. Bannwarth and S. Grimme, J. Chem. Phys., 2019, 150, 154122.
     DOI: 10.1063/1.5090222
   * E. Caldeweyher, J.-M. Mewes, S. Ehlert and S. Grimme, Phys. Chem. Chem. Phys.
     2020, 22, 8499-8512. DOI: 10.1039/D0CP00502A
   
   for sTDA-xTB:
   * S. Grimme and C. Bannwarth, J. Chem. Phys., 2016, 145, 054103.
     DOI: 10.1063/1.4959605
   
   in the mass-spec context:
   * V. Asgeirsson, C. Bauer and S. Grimme, Chem. Sci., 2017, 8, 4879.
     DOI: 10.1039/c7sc00601b
   * J. Koopman and S. Grimme, ACS Omega 2019, 4, 12, 15120-15133.
     DOI: 10.1021/acsomega.9b02011
   
   for metadynamics refer to:
   * S. Grimme, J. Chem. Theory Comput., 2019, 155, 2847-2862
     DOI: 10.1021/acs.jctc.9b00143
   
   for SPH calculations refer to:
   * S. Spicher and S. Grimme, J. Chem. Theory Comput., 2021, 17, 1701-1714
     DOI: 10.1021/acs.jctc.0c01306
   
   for ONIOM refer to:
   * C. Plett, A. Katbashev, S. Ehlert, S. Grimme, M. Bursch,
     Phys. Chem. Chem. Phys., 2023, 25, 17860-17868. DOI: 10.1039/D3CP02178E
   
   for DIPRO refer to:
   * J. Kohn, N. Gildemeister, S. Grimme, D. Fazzi, A. Hansen,
     J. Chem. Phys., 2023, just accepted.
   
   for PTB refer to:
   * S. Grimme, M. Mueller, A. Hansen, J. Chem. Phys., 2023, 158, 124111.
     DOI: 10.1063/5.0137838
   
   with help from (in alphabetical order)
   P. Atkinson, C. Bannwarth, F. Bohle, G. Brandenburg, E. Caldeweyher
   M. Checinski, S. Dohm, S. Ehlert, S. Ehrlich, I. Gerasimov, C. Hölzer
   A. Katbashev, J. Kohn, J. Koopman, C. Lavigne, S. Lehtola, F. März, M. Müller,
   F. Musil, H. Neugebauer, J. Pisarek, C. Plett, P. Pracht, F. Pultar,
   J. Seibert, P. Shushkov, S. Spicher, M. Stahn, M. Steiner, T. Strunk,
   J. Stückrath, T. Rose, and J. Unsleber
   
 * started run on 2025/04/15 at 19:39:21.205     
   ID    Z sym.   atoms
    1    6 C      1-8
    2    8 O      9
    3    1 H      10-19

           -------------------------------------------------
          |                Calculation Setup                |
           -------------------------------------------------

          program call               : /software/projects/pawsey0265/mwang1/xtb/bin/xtb xtb_rrho.coord --gfn2 --ohess vtight --chrg 0 --enso --norestart -I rrho-xcontrol-inp --parallel 1
          hostname                   : nid002793
          coordinate file            : xtb_rrho.coord
          omp threads                :                     1


           -------------------------------------------------
          |                 G F N 2 - x T B                 |
           -------------------------------------------------

        Reference                      10.1021/acs.jctc.8b01176
      * Hamiltonian:
        H0-scaling (s, p, d)           1.850000    2.230000    2.230000
        zeta-weighting                 0.500000
      * Dispersion:
        s8                             2.700000
        a1                             0.520000
        a2                             5.000000
        s9                             5.000000
      * Repulsion:
        kExp                           1.500000    1.000000
        rExp                           1.000000
      * Coulomb:
        alpha                          2.000000
        third order                    shell-resolved
        anisotropic                    true
        a3                             3.000000
        a5                             4.000000
        cn-shift                       1.200000
        cn-exp                         4.000000
        max-rad                        5.000000


          ...................................................
          :                      SETUP                      :
          :.................................................:
          :  # basis functions                  46          :
          :  # atomic orbitals                  46          :
          :  # shells                           28          :
          :  # electrons                        48          :
          :  max. iterations                   250          :
          :  Hamiltonian                  GFN2-xTB          :
          :  restarted?                      false          :
          :  GBSA solvation                  false          :
          :  PC potential                    false          :
          :  electronic temp.          300.0000000     K    :
          :  accuracy                    1.0000000          :
          :  -> integral cutoff          0.2500000E+02      :
          :  -> integral neglect         0.1000000E-07      :
          :  -> SCF convergence          0.1000000E-05 Eh   :
          :  -> wf. convergence          0.1000000E-03 e    :
          :  Broyden damping             0.4000000          :
          :  net charge                          0          :
          :  unpaired electrons                  0          :
          ...................................................

 iter      E             dE          RMSdq      gap      omega  full diag
   1    -26.6611955 -0.266612E+02  0.403E+00    4.23       0.0  T
   2    -26.6848372 -0.236417E-01  0.244E+00    4.27       1.0  T
   3    -26.6805240  0.431324E-02  0.114E+00    4.27       1.0  T
   4    -26.6889956 -0.847167E-02  0.275E-01    4.31       1.0  T
   5    -26.6893983 -0.402661E-03  0.770E-02    4.33       1.0  T
   6    -26.6894112 -0.128898E-04  0.400E-02    4.30       1.0  T
   7    -26.6894204 -0.917017E-05  0.126E-02    4.31       1.8  T
   8    -26.6894207 -0.367619E-06  0.454E-03    4.31       5.1  T
   9    -26.6894209 -0.160558E-06  0.203E-03    4.31      11.3  T
  10    -26.6894209 -0.329739E-07  0.811E-04    4.31      28.3  T
  11    -26.6894209 -0.200535E-08  0.216E-04    4.31     106.1  T

   *** convergence criteria satisfied after 11 iterations ***

         #    Occupation            Energy/Eh            Energy/eV
      -------------------------------------------------------------
         1        2.0000           -0.7044620             -19.1694
       ...           ...                  ...                  ...
        18        2.0000           -0.4539163             -12.3517
        19        2.0000           -0.4478080             -12.1855
        20        2.0000           -0.4358157             -11.8591
        21        2.0000           -0.4272000             -11.6247
        22        2.0000           -0.4167147             -11.3394
        23        2.0000           -0.3918133             -10.6618
        24        2.0000           -0.3769947             -10.2585 (HOMO)
        25                         -0.2185522              -5.9471 (LUMO)
        26                         -0.2098889              -5.7114
        27                         -0.0884987              -2.4082
        28                          0.0617437               1.6801
        29                          0.0914860               2.4895
       ...                                ...                  ...
        46                          0.6500282              17.6882
      -------------------------------------------------------------
                  HL-Gap            0.1584426 Eh            4.3114 eV
             Fermi-level           -0.2977734 Eh           -8.1028 eV

 SCC (total)                   0 d,  0 h,  0 min,  0.049 sec
 SCC setup                      ...        0 min,  0.000 sec (  0.412%)
 Dispersion                     ...        0 min,  0.000 sec (  0.248%)
 classical contributions        ...        0 min,  0.000 sec (  0.071%)
 integral evaluation            ...        0 min,  0.002 sec (  3.562%)
 iterations                     ...        0 min,  0.037 sec ( 76.813%)
 molecular gradient             ...        0 min,  0.009 sec ( 18.613%)
 printout                       ...        0 min,  0.000 sec (  0.234%)

         :::::::::::::::::::::::::::::::::::::::::::::::::::::
         ::                     SUMMARY                     ::
         :::::::::::::::::::::::::::::::::::::::::::::::::::::
         :: total energy             -26.286644976151 Eh    ::
         :: gradient norm              0.017312555098 Eh/a0 ::
         :: HOMO-LUMO gap              4.311441900950 eV    ::
         ::.................................................::
         :: SCC energy               -26.689384575934 Eh    ::
         :: -> isotropic ES            0.022876357337 Eh    ::
         :: -> anisotropic ES          0.005414139771 Eh    ::
         :: -> anisotropic XC          0.012156742191 Eh    ::
         :: -> dispersion             -0.014252377017 Eh    ::
         :: repulsion energy           0.402739599783 Eh    ::
         :: add. restraining           0.000000000000 Eh    ::
         :: total charge              -0.000000000000 e     ::
         :::::::::::::::::::::::::::::::::::::::::::::::::::::

      ----------------------------------------------------------- 
     |                   =====================                   |
     |                        A N C O P T                        |
     |                   =====================                   |
     |               Approximate Normal Coordinate               |
     |                Rational Function Optimizer                |
      ----------------------------------------------------------- 
      ----------------------------------------------------------- 
     |                   =====================                   |
     |                        A N C O P T                        |
     |                   =====================                   |
     |               Approximate Normal Coordinate               |
     |                Rational Function Optimizer                |
      ----------------------------------------------------------- 

          ...................................................
          :                      SETUP                      :
          :.................................................:
          :   optimization level         verytight          :
          :   max. optcycles                   380          :
          :   ANC micro-cycles                  20          :
          :   degrees of freedom                51          :
          :.................................................:
          :   RF solver                   davidson          :
          :   write xtbopt.log                true          :
          :   linear?                        false          :
          :   energy convergence         0.1000000E-06 Eh   :
          :   grad. convergence          0.2000000E-03 Eh/α :
          :   maxmium RF displ.          1.0000000          :
          :   Hlow (freq-cutoff)         0.1000000E-01      :
          :   Hmax (freq-cutoff)         5.0000000          :
          :   S6 in model hess.         20.0000000          :
          ...................................................

generating ANC from exact Hessian ...
Using Lindh-Hessian (1995)
 Shifting diagonal of input Hessian by   7.467403676442606E-003
 Lowest  eigenvalues of input Hessian
    0.000000    0.000000    0.000000    0.000000    0.000000    0.000000
    0.010000    0.010974    0.013034    0.016392    0.018512    0.025275
    0.029517    0.033323    0.044030    0.045798    0.049683    0.053479
 Highest eigenvalues
    1.453452    1.602231    1.689370    1.865021    1.994019    2.048260
 

........................................................................
.............................. CYCLE    1 ..............................
........................................................................

 iter      E             dE          RMSdq      gap      omega  full diag
   1    -26.6894209 -0.266894E+02  0.992E-05    4.31       0.0  T
   2    -26.6894209 -0.212239E-10  0.608E-05    4.31     377.4  T
   3    -26.6894209 -0.262190E-11  0.365E-05    4.31     627.9  T
     SCC iter.                  ...        0 min,  0.001 sec
     gradient                   ...        0 min,  0.004 sec
 * total energy  :   -26.2866450 Eh     change       -0.1826734E-09 Eh
   gradient norm :     0.0173129 Eh/α   predicted     0.0000000E+00 (-100.00%)
   displ. norm   :     0.1015402 α      lambda       -0.1110530E-02
   maximum displ.:     0.0479653 α      in ANC's #7, #30, #8, ...

........................................................................
.............................. CYCLE    2 ..............................
........................................................................

 iter      E             dE          RMSdq      gap      omega  full diag
   1    -26.7032712 -0.267033E+02  0.992E-02    4.36       0.0  T
   2    -26.7032749 -0.364863E-05  0.576E-02    4.36       1.0  T
   3    -26.7032705  0.438694E-05  0.245E-02    4.36       1.0  T
   4    -26.7032763 -0.579306E-05  0.220E-03    4.36      10.4  T
   5    -26.7032763 -0.200209E-07  0.119E-03    4.36      19.3  T
   6    -26.7032763 -0.190856E-08  0.632E-04    4.36      36.3  T
   7    -26.7032763 -0.165393E-08  0.101E-04    4.36     226.9  T
     SCC iter.                  ...        0 min,  0.002 sec
     gradient                   ...        0 min,  0.004 sec
 * total energy  :   -26.2873134 Eh     change       -0.6683790E-03 Eh
   gradient norm :     0.0060973 Eh/α   predicted    -0.5609904E-03 ( -16.07%)
   displ. norm   :     0.0371889 α      lambda       -0.8292554E-04
   maximum displ.:     0.0170467 α      in ANC's #7, #2, #5, ...

........................................................................
.............................. CYCLE    3 ..............................
........................................................................

 iter      E             dE          RMSdq      gap      omega  full diag
   1    -26.7067609 -0.267068E+02  0.291E-02    4.37       0.0  T
   2    -26.7067619 -0.952373E-06  0.167E-02    4.37       1.4  T
   3    -26.7067616  0.219688E-06  0.967E-03    4.37       2.4  T
   4    -26.7067622 -0.607954E-06  0.942E-04    4.37      24.3  T
   5    -26.7067623 -0.555066E-08  0.379E-04    4.37      60.6  T
     SCC iter.                  ...        0 min,  0.002 sec
     gradient                   ...        0 min,  0.004 sec
 * total energy  :   -26.2873620 Eh     change       -0.4862860E-04 Eh
   gradient norm :     0.0022141 Eh/α   predicted    -0.4246530E-04 ( -12.67%)
   displ. norm   :     0.0217755 α      lambda       -0.9938219E-05
   maximum displ.:     0.0125690 α      in ANC's #2, #5, #3, ...

........................................................................
.............................. CYCLE    4 ..............................
........................................................................

 iter      E             dE          RMSdq      gap      omega  full diag
   1    -26.7068688 -0.267069E+02  0.984E-03    4.37       0.0  T
   2    -26.7068690 -0.175084E-06  0.590E-03    4.37       3.9  T
   3    -26.7068690 -0.281739E-08  0.338E-03    4.37       6.8  T
   4    -26.7068690 -0.665564E-07  0.414E-04    4.37      55.4  T
   5    -26.7068690 -0.128364E-08  0.159E-04    4.37     144.4  T
     SCC iter.                  ...        0 min,  0.002 sec
     gradient                   ...        0 min,  0.004 sec
 * total energy  :   -26.2873695 Eh     change       -0.7476768E-05 Eh
   gradient norm :     0.0007761 Eh/α   predicted    -0.5090648E-05 ( -31.91%)
   displ. norm   :     0.0491091 α      lambda       -0.7642253E-05
   maximum displ.:     0.0285263 α      in ANC's #2, #5, #1, ...

........................................................................
.............................. CYCLE    5 ..............................
........................................................................

 iter      E             dE          RMSdq      gap      omega  full diag
   1    -26.7063425 -0.267063E+02  0.173E-02    4.37       0.0  T
   2    -26.7063428 -0.297282E-06  0.105E-02    4.37       2.2  T
   3    -26.7063427  0.153905E-06  0.519E-03    4.37       4.4  T
   4    -26.7063429 -0.272011E-06  0.601E-04    4.37      38.2  T
   5    -26.7063429 -0.275675E-08  0.251E-04    4.37      91.3  T
     SCC iter.                  ...        0 min,  0.002 sec
     gradient                   ...        0 min,  0.004 sec
 * total energy  :   -26.2873749 Eh     change       -0.5458364E-05 Eh
   gradient norm :     0.0014522 Eh/α   predicted    -0.3828116E-05 ( -29.87%)
   displ. norm   :     0.0157507 α      lambda       -0.2131194E-05
   maximum displ.:     0.0085055 α      in ANC's #5, #1, #2, ...

........................................................................
.............................. CYCLE    6 ..............................
........................................................................

 iter      E             dE          RMSdq      gap      omega  full diag
   1    -26.7063079 -0.267063E+02  0.580E-03    4.37       0.0  T
   2    -26.7063079 -0.227610E-07  0.344E-03    4.37       6.7  T
   3    -26.7063079  0.178253E-07  0.167E-03    4.37      13.7  T
   4    -26.7063079 -0.273050E-07  0.156E-04    4.37     147.5  T
   5    -26.7063079 -0.150617E-09  0.708E-05    4.37     324.1  T
     SCC iter.                  ...        0 min,  0.002 sec
     gradient                   ...        0 min,  0.004 sec
 * total energy  :   -26.2873775 Eh     change       -0.2595957E-05 Eh
   gradient norm :     0.0008447 Eh/α   predicted    -0.1066468E-05 ( -58.92%)
   displ. norm   :     0.0384875 α      lambda       -0.2929079E-05
   maximum displ.:     0.0222309 α      in ANC's #5, #1, #2, ...

........................................................................
.............................. CYCLE    7 ..............................
........................................................................

 iter      E             dE          RMSdq      gap      omega  full diag
   1    -26.7064319 -0.267064E+02  0.123E-02    4.37       0.0  T
   2    -26.7064319 -0.625677E-07  0.734E-03    4.37       3.1  T
   3    -26.7064318  0.828811E-07  0.292E-03    4.37       7.8  T
   4    -26.7064319 -0.108356E-06  0.287E-04    4.37      79.9  T
   5    -26.7064319 -0.447979E-09  0.139E-04    4.37     164.6  T
     SCC iter.                  ...        0 min,  0.002 sec
     gradient                   ...        0 min,  0.004 sec
 * total energy  :   -26.2873800 Eh     change       -0.2523018E-05 Eh
   gradient norm :     0.0002514 Eh/α   predicted    -0.1466117E-05 ( -41.89%)
   displ. norm   :     0.0131685 α      lambda       -0.3981768E-06
   maximum displ.:     0.0105793 α      in ANC's #1, #5, #6, ...

........................................................................
.............................. CYCLE    8 ..............................
........................................................................

 iter      E             dE          RMSdq      gap      omega  full diag
   1    -26.7064434 -0.267064E+02  0.440E-03    4.37       0.0  T
   2    -26.7064434 -0.233872E-08  0.260E-03    4.37       8.8  T
   3    -26.7064434  0.369711E-08  0.563E-04    4.37      40.7  T
   4    -26.7064434 -0.462880E-08  0.806E-05    4.37     284.6  T
     SCC iter.                  ...        0 min,  0.001 sec
     gradient                   ...        0 min,  0.004 sec
 * total energy  :   -26.2873805 Eh     change       -0.4706322E-06 Eh
   gradient norm :     0.0001994 Eh/α   predicted    -0.2000546E-06 ( -57.49%)
   displ. norm   :     0.0116114 α      lambda       -0.3907958E-06
   maximum displ.:     0.0099016 α      in ANC's #1, #5, #2, ...

........................................................................
.............................. CYCLE    9 ..............................
........................................................................

 iter      E             dE          RMSdq      gap      omega  full diag
   1    -26.7064622 -0.267065E+02  0.359E-03    4.37       0.0  T
   2    -26.7064622 -0.999488E-09  0.212E-03    4.37      10.8  T
   3    -26.7064622  0.736254E-09  0.274E-04    4.37      83.6  T
   4    -26.7064622 -0.105192E-08  0.621E-05    4.37     369.7  T
     SCC iter.                  ...        0 min,  0.001 sec
     gradient                   ...        0 min,  0.004 sec
 * total energy  :   -26.2873810 Eh     change       -0.5409600E-06 Eh
   gradient norm :     0.0002025 Eh/α   predicted    -0.1964798E-06 ( -63.68%)
   displ. norm   :     0.0188554 α      lambda       -0.6308816E-06
   maximum displ.:     0.0154773 α      in ANC's #1, #2, #3, ...

........................................................................
.............................. CYCLE   10 ..............................
........................................................................

 iter      E             dE          RMSdq      gap      omega  full diag
   1    -26.7064669 -0.267065E+02  0.567E-03    4.37       0.0  T
   2    -26.7064669 -0.186671E-08  0.336E-03    4.37       6.8  T
   3    -26.7064669  0.912042E-09  0.303E-04    4.37      75.7  T
   4    -26.7064669 -0.154525E-08  0.890E-05    4.37     257.9  T
     SCC iter.                  ...        0 min,  0.001 sec
     gradient                   ...        0 min,  0.004 sec
 * total energy  :   -26.2873820 Eh     change       -0.9030752E-06 Eh
   gradient norm :     0.0002721 Eh/α   predicted    -0.3179664E-06 ( -64.79%)
   displ. norm   :     0.0321715 α      lambda       -0.1071042E-05
   maximum displ.:     0.0262023 α      in ANC's #1, #2, #3, ...

........................................................................
.............................. CYCLE   11 ..............................
........................................................................

 iter      E             dE          RMSdq      gap      omega  full diag
   1    -26.7064579 -0.267065E+02  0.941E-03    4.37       0.0  T
   2    -26.7064580 -0.397792E-08  0.557E-03    4.37       4.1  T
   3    -26.7064580  0.539469E-09  0.371E-04    4.37      61.8  T
   4    -26.7064580 -0.205083E-08  0.147E-04    4.37     156.2  T
     SCC iter.                  ...        0 min,  0.001 sec
     gradient                   ...        0 min,  0.004 sec
 * total energy  :   -26.2873835 Eh     change       -0.1554167E-05 Eh
   gradient norm :     0.0003870 Eh/α   predicted    -0.5361371E-06 ( -65.50%)
   displ. norm   :     0.0937251 α      lambda       -0.3107017E-05
   maximum displ.:     0.0772896 α      in ANC's #1, #2, #3, ...

........................................................................
.............................. CYCLE   12 ..............................
........................................................................

 iter      E             dE          RMSdq      gap      omega  full diag
   1    -26.7063581 -0.267064E+02  0.273E-02    4.37       0.0  T
   2    -26.7063581 -0.326072E-07  0.161E-02    4.37       1.4  T
   3    -26.7063581 -0.180407E-10  0.928E-04    4.37      24.7  T
   4    -26.7063582 -0.117648E-07  0.436E-04    4.37      52.6  T
     SCC iter.                  ...        0 min,  0.001 sec
     gradient                   ...        0 min,  0.004 sec
 * total energy  :   -26.2873881 Eh     change       -0.4548086E-05 Eh
   gradient norm :     0.0006589 Eh/α   predicted    -0.1565105E-05 ( -65.59%)
   displ. norm   :     1.1326445 α      lambda       -0.3715585E-04
   maximum displ.:     0.9469863 α      in ANC's #1, #2, #4, ...

........................................................................
.............................. CYCLE   13 ..............................
........................................................................

 iter      E             dE          RMSdq      gap      omega  full diag
   1    -26.6925157 -0.266925E+02  0.352E-01    4.35       0.0  T
   2    -26.6925403 -0.246103E-04  0.206E-01    4.35       1.0  T
   3    -26.6925416 -0.132464E-05  0.187E-02    4.35       1.2  T
   4    -26.6925432 -0.161219E-05  0.857E-03    4.35       2.7  T
   5    -26.6925437 -0.487339E-06  0.418E-03    4.35       5.5  T
   6    -26.6925438 -0.500734E-07  0.984E-04    4.35      23.3  T
   7    -26.6925438 -0.233280E-08  0.360E-04    4.35      63.8  T
     SCC iter.                  ...        0 min,  0.002 sec
     gradient                   ...        0 min,  0.004 sec
 * total energy  :   -26.2864557 Eh     change        0.9323242E-03 Eh
   gradient norm :     0.0244391 Eh/α   predicted    -0.2915517E-04 (-103.13%)
   displ. norm   :     0.4564246 α      lambda       -0.1776035E-02
   maximum displ.:     0.3797429 α      in ANC's #1, #2, #3, ...

........................................................................
.............................. CYCLE   14 ..............................
........................................................................

 iter      E             dE          RMSdq      gap      omega  full diag
   1    -26.7032196 -0.267032E+02  0.165E-01    4.36       0.0  T
   2    -26.7032310 -0.114044E-04  0.948E-02    4.36       1.0  T
   3    -26.7032310  0.332036E-07  0.155E-02    4.36       1.5  T
   4    -26.7032319 -0.927430E-06  0.549E-03    4.36       4.2  T
   5    -26.7032321 -0.204731E-06  0.235E-03    4.36       9.7  T
   6    -26.7032321 -0.499985E-08  0.741E-04    4.36      31.0  T
   7    -26.7032321 -0.218345E-08  0.229E-04    4.36     100.4  T
     SCC iter.                  ...        0 min,  0.002 sec
     gradient                   ...        0 min,  0.004 sec
 * total energy  :   -26.2873709 Eh     change       -0.9152044E-03 Eh
   gradient norm :     0.0071551 Eh/α   predicted    -0.1073650E-02 (  17.31%)
   displ. norm   :     0.0487585 α      lambda       -0.7000010E-04
   maximum displ.:     0.0396323 α      in ANC's #1, #2, #5, ...

........................................................................
.............................. CYCLE   15 ..............................
........................................................................

 iter      E             dE          RMSdq      gap      omega  full diag
   1    -26.7051220 -0.267051E+02  0.193E-02    4.36       0.0  T
   2    -26.7051223 -0.290262E-06  0.108E-02    4.36       2.1  T
   3    -26.7051223 -0.605372E-08  0.248E-03    4.36       9.2  T
   4    -26.7051223 -0.180027E-07  0.841E-04    4.36      27.3  T
   5    -26.7051223 -0.619793E-08  0.395E-04    4.36      58.0  T
     SCC iter.                  ...        0 min,  0.002 sec
     gradient                   ...        0 min,  0.004 sec
 * total energy  :   -26.2874192 Eh     change       -0.4829494E-04 Eh
   gradient norm :     0.0040065 Eh/α   predicted    -0.3506315E-04 ( -27.40%)
   displ. norm   :     0.0195847 α      lambda       -0.2615541E-04
   maximum displ.:     0.0129423 α      in ANC's #2, #1, #4, ...

........................................................................
.............................. CYCLE   16 ..............................
........................................................................

 iter      E             dE          RMSdq      gap      omega  full diag
   1    -26.7063661 -0.267064E+02  0.124E-02    4.37       0.0  T
   2    -26.7063663 -0.189949E-06  0.683E-03    4.37       3.4  T
   3    -26.7063663  0.100332E-07  0.233E-03    4.37       9.9  T
   4    -26.7063663 -0.245891E-07  0.721E-04    4.37      31.8  T
   5    -26.7063663 -0.487454E-08  0.288E-04    4.37      79.8  T
     SCC iter.                  ...        0 min,  0.002 sec
     gradient                   ...        0 min,  0.004 sec
 * total energy  :   -26.2874355 Eh     change       -0.1630028E-04 Eh
   gradient norm :     0.0024077 Eh/α   predicted    -0.1308497E-04 ( -19.73%)
   displ. norm   :     0.0193360 α      lambda        0.6926700E-05
   maximum displ.:     0.0127265 α      in ANC's #2, #1, #4, ...

........................................................................
.............................. CYCLE   17 ..............................
........................................................................

 iter      E             dE          RMSdq      gap      omega  full diag
   1    -26.7075852 -0.267076E+02  0.122E-02    4.37       0.0  T
   2    -26.7075854 -0.183769E-06  0.672E-03    4.37       3.4  T
   3    -26.7075854  0.930091E-08  0.226E-03    4.37      10.2  T
   4    -26.7075854 -0.231711E-07  0.703E-04    4.37      32.6  T
   5    -26.7075854 -0.482995E-08  0.283E-04    4.37      81.1  T
     SCC iter.                  ...        0 min,  0.002 sec
     gradient                   ...        0 min,  0.004 sec
 * total energy  :   -26.2874321 Eh     change        0.3426143E-05 Eh
   gradient norm :     0.0030822 Eh/α   predicted     0.3461699E-05 (   1.04%)
   displ. norm   :     0.0298562 α      lambda       -0.1622529E-04
   maximum displ.:     0.0271335 α      in ANC's #1, #2, #5, ...

........................................................................
.............................. CYCLE   18 ..............................
........................................................................

 iter      E             dE          RMSdq      gap      omega  full diag
   1    -26.7066891 -0.267067E+02  0.122E-02    4.37       0.0  T
   2    -26.7066891 -0.866600E-07  0.695E-03    4.37       3.3  T
   3    -26.7066891 -0.171142E-08  0.125E-03    4.37      18.3  T
   4    -26.7066891 -0.409359E-08  0.433E-04    4.37      52.9  T
   5    -26.7066891 -0.152532E-08  0.202E-04    4.37     113.5  T
     SCC iter.                  ...        0 min,  0.002 sec
     gradient                   ...        0 min,  0.004 sec
 * total energy  :   -26.2874437 Eh     change       -0.1157226E-04 Eh
   gradient norm :     0.0020919 Eh/α   predicted    -0.8125064E-05 ( -29.79%)
   displ. norm   :     0.0321173 α      lambda       -0.1050175E-04
   maximum displ.:     0.0316019 α      in ANC's #1, #5, #6, ...

........................................................................
.............................. CYCLE   19 ..............................
........................................................................

 iter      E             dE          RMSdq      gap      omega  full diag
   1    -26.7062622 -0.267063E+02  0.127E-02    4.37       0.0  T
   2    -26.7062623 -0.437694E-07  0.739E-03    4.37       3.1  T
   3    -26.7062622  0.349563E-07  0.196E-03    4.37      11.7  T
   4    -26.7062623 -0.448564E-07  0.332E-04    4.37      69.2  T
   5    -26.7062623 -0.609639E-09  0.140E-04    4.37     163.9  T
     SCC iter.                  ...        0 min,  0.002 sec
     gradient                   ...        0 min,  0.004 sec
 * total energy  :   -26.2874528 Eh     change       -0.9115801E-05 Eh
   gradient norm :     0.0017126 Eh/α   predicted    -0.5260817E-05 ( -42.29%)
   displ. norm   :     0.0436931 α      lambda       -0.1058890E-04
   maximum displ.:     0.0407323 α      in ANC's #1, #2, #4, ...

........................................................................
.............................. CYCLE   20 ..............................
........................................................................

 iter      E             dE          RMSdq      gap      omega  full diag
   1    -26.7061909 -0.267062E+02  0.198E-02    4.37       0.0  T
   2    -26.7061910 -0.112118E-06  0.117E-02    4.37       2.0  T
   3    -26.7061908  0.156147E-06  0.398E-03    4.37       5.8  T
   4    -26.7061910 -0.198524E-06  0.417E-04    4.37      55.0  T
   5    -26.7061910 -0.832749E-09  0.201E-04    4.37     114.1  T
     SCC iter.                  ...        0 min,  0.002 sec
     gradient                   ...        0 min,  0.004 sec
 * total energy  :   -26.2874660 Eh     change       -0.1324140E-04 Eh
   gradient norm :     0.0010650 Eh/α   predicted    -0.5303929E-05 ( -59.94%)
   displ. norm   :     0.0534561 α      lambda       -0.9934729E-05
   maximum displ.:     0.0494155 α      in ANC's #1, #2, #3, ...
 * RMSD in coord.:     0.2176333 α      energy gain  -0.8210575E-03 Eh

generating ANC from exact Hessian ...
Using Lindh-Hessian (1995)
 Shifting diagonal of input Hessian by   7.292809925174078E-003
 Lowest  eigenvalues of input Hessian
    0.000000    0.000000    0.000000    0.000000    0.000000    0.000000
    0.010000    0.010696    0.013517    0.016735    0.018752    0.026212
    0.029567    0.034853    0.044984    0.048069    0.051303    0.054796
 Highest eigenvalues
    1.489064    1.639954    1.727858    1.905330    2.037838    2.098902
 

........................................................................
.............................. CYCLE   21 ..............................
........................................................................

 iter      E             dE          RMSdq      gap      omega  full diag
   1    -26.7063439 -0.267063E+02  0.226E-02    4.37       0.0  T
   2    -26.7063439 -0.423465E-07  0.133E-02    4.37       1.7  T
   3    -26.7063439  0.530104E-07  0.210E-03    4.37      10.9  T
   4    -26.7063440 -0.699503E-07  0.372E-04    4.37      61.7  T
   5    -26.7063440 -0.386162E-09  0.186E-04    4.37     123.2  T
     SCC iter.                  ...        0 min,  0.002 sec
     gradient                   ...        0 min,  0.004 sec
 * total energy  :   -26.2874781 Eh     change       -0.1211311E-04 Eh
   gradient norm :     0.0007128 Eh/α   predicted     0.0000000E+00 (-100.00%)
   displ. norm   :     0.0296412 α      lambda       -0.4606096E-05
   maximum displ.:     0.0292706 α      in ANC's #1, #4, #2, ...

........................................................................
.............................. CYCLE   22 ..............................
........................................................................

 iter      E             dE          RMSdq      gap      omega  full diag
   1    -26.7066252 -0.267066E+02  0.114E-02    4.37       0.0  T
   2    -26.7066252 -0.153202E-07  0.671E-03    4.37       3.4  T
   3    -26.7066252  0.164360E-07  0.121E-03    4.37      19.0  T
   4    -26.7066252 -0.213737E-07  0.208E-04    4.37     110.5  T
   5    -26.7066252 -0.192319E-09  0.101E-04    4.37     226.2  T
     SCC iter.                  ...        0 min,  0.002 sec
     gradient                   ...        0 min,  0.004 sec
 * total energy  :   -26.2874844 Eh     change       -0.6207819E-05 Eh
   gradient norm :     0.0003144 Eh/α   predicted    -0.2323951E-05 ( -62.56%)
   displ. norm   :     0.0336606 α      lambda       -0.4612133E-05
   maximum displ.:     0.0319901 α      in ANC's #1, #2, #4, ...

........................................................................
.............................. CYCLE   23 ..............................
........................................................................

 iter      E             dE          RMSdq      gap      omega  full diag
   1    -26.7067488 -0.267067E+02  0.120E-02    4.37       0.0  T
   2    -26.7067488 -0.166347E-07  0.708E-03    4.37       3.2  T
   3    -26.7067488  0.254401E-07  0.134E-03    4.37      17.1  T
   4    -26.7067488 -0.317016E-07  0.204E-04    4.37     112.6  T
   5    -26.7067488 -0.178250E-09  0.100E-04    4.37     228.8  T
     SCC iter.                  ...        0 min,  0.002 sec
     gradient                   ...        0 min,  0.004 sec
 * total energy  :   -26.2874910 Eh     change       -0.6664490E-05 Eh
   gradient norm :     0.0004521 Eh/α   predicted    -0.2311713E-05 ( -65.31%)
   displ. norm   :     0.0468303 α      lambda       -0.6203425E-05
   maximum displ.:     0.0424286 α      in ANC's #1, #2, #4, ...

........................................................................
.............................. CYCLE   24 ..............................
........................................................................

 iter      E             dE          RMSdq      gap      omega  full diag
   1    -26.7067534 -0.267068E+02  0.156E-02    4.36       0.0  T
   2    -26.7067535 -0.190024E-07  0.919E-03    4.37       2.5  T
   3    -26.7067534  0.243159E-07  0.127E-03    4.37      18.0  T
   4    -26.7067535 -0.318750E-07  0.263E-04    4.37      87.1  T
   5    -26.7067535 -0.214392E-09  0.122E-04    4.37     187.6  T
     SCC iter.                  ...        0 min,  0.002 sec
     gradient                   ...        0 min,  0.004 sec
 * total energy  :   -26.2875003 Eh     change       -0.9311012E-05 Eh
   gradient norm :     0.0007650 Eh/α   predicted    -0.3105489E-05 ( -66.65%)
   displ. norm   :     0.0467784 α      lambda       -0.6400836E-05
   maximum displ.:     0.0428642 α      in ANC's #1, #2, #4, ...

........................................................................
.............................. CYCLE   25 ..............................
........................................................................

 iter      E             dE          RMSdq      gap      omega  full diag
   1    -26.7067633 -0.267068E+02  0.152E-02    4.36       0.0  T
   2    -26.7067633 -0.114919E-07  0.896E-03    4.37       2.6  T
   3    -26.7067633  0.431146E-08  0.689E-04    4.36      33.3  T
   4    -26.7067633 -0.858367E-08  0.239E-04    4.37      96.0  T
     SCC iter.                  ...        0 min,  0.001 sec
     gradient                   ...        0 min,  0.004 sec
 * total energy  :   -26.2875101 Eh     change       -0.9782173E-05 Eh
   gradient norm :     0.0009564 Eh/α   predicted    -0.3204303E-05 ( -67.24%)
   displ. norm   :     0.0483458 α      lambda       -0.6954293E-05
   maximum displ.:     0.0444311 α      in ANC's #1, #2, #4, ...

........................................................................
.............................. CYCLE   26 ..............................
........................................................................

 iter      E             dE          RMSdq      gap      omega  full diag
   1    -26.7067577 -0.267068E+02  0.156E-02    4.36       0.0  T
   2    -26.7067577 -0.107061E-07  0.920E-03    4.36       2.5  T
   3    -26.7067577  0.215642E-08  0.601E-04    4.36      38.2  T
   4    -26.7067577 -0.624306E-08  0.247E-04    4.36      92.8  T
     SCC iter.                  ...        0 min,  0.001 sec
     gradient                   ...        0 min,  0.004 sec
 * total energy  :   -26.2875208 Eh     change       -0.1070759E-04 Eh
   gradient norm :     0.0010740 Eh/α   predicted    -0.3484422E-05 ( -67.46%)
   displ. norm   :     0.0504311 α      lambda       -0.7653795E-05
   maximum displ.:     0.0463200 α      in ANC's #1, #2, #4, ...

........................................................................
.............................. CYCLE   27 ..............................
........................................................................

 iter      E             dE          RMSdq      gap      omega  full diag
   1    -26.7067387 -0.267067E+02  0.162E-02    4.36       0.0  T
   2    -26.7067387 -0.110861E-07  0.955E-03    4.36       2.4  T
   3    -26.7067387  0.543793E-09  0.589E-04    4.36      39.0  T
   4    -26.7067387 -0.471739E-08  0.259E-04    4.36      88.5  T
     SCC iter.                  ...        0 min,  0.001 sec
     gradient                   ...        0 min,  0.004 sec
 * total energy  :   -26.2875326 Eh     change       -0.1181116E-04 Eh
   gradient norm :     0.0011383 Eh/α   predicted    -0.3834425E-05 ( -67.54%)
   displ. norm   :     0.0525886 α      lambda       -0.8435561E-05
   maximum displ.:     0.0482334 α      in ANC's #1, #2, #4, ...

........................................................................
.............................. CYCLE   28 ..............................
........................................................................

 iter      E             dE          RMSdq      gap      omega  full diag
   1    -26.7067063 -0.267067E+02  0.168E-02    4.36       0.0  T
   2    -26.7067064 -0.120759E-07  0.993E-03    4.36       2.3  T
   3    -26.7067064  0.284640E-09  0.631E-04    4.36      36.3  T
   4    -26.7067064 -0.478535E-08  0.272E-04    4.36      84.5  T
     SCC iter.                  ...        0 min,  0.001 sec
     gradient                   ...        0 min,  0.004 sec
 * total energy  :   -26.2875456 Eh     change       -0.1296937E-04 Eh
   gradient norm :     0.0011762 Eh/α   predicted    -0.4224935E-05 ( -67.42%)
   displ. norm   :     0.0549800 α      lambda       -0.9269511E-05
   maximum displ.:     0.0503248 α      in ANC's #1, #2, #4, ...

........................................................................
.............................. CYCLE   29 ..............................
........................................................................

 iter      E             dE          RMSdq      gap      omega  full diag
   1    -26.7066634 -0.267067E+02  0.176E-02    4.36       0.0  T
   2    -26.7066634 -0.132652E-07  0.104E-02    4.36       2.2  T
   3    -26.7066634  0.435033E-09  0.686E-04    4.36      33.4  T
   4    -26.7066634 -0.536706E-08  0.285E-04    4.36      80.6  T
     SCC iter.                  ...        0 min,  0.001 sec
     gradient                   ...        0 min,  0.004 sec
 * total energy  :   -26.2875598 Eh     change       -0.1422756E-04 Eh
   gradient norm :     0.0012002 Eh/α   predicted    -0.4642751E-05 ( -67.37%)
   displ. norm   :     0.0572862 α      lambda       -0.1013853E-04
   maximum displ.:     0.0523309 α      in ANC's #1, #2, #4, ...

........................................................................
.............................. CYCLE   30 ..............................
........................................................................

 iter      E             dE          RMSdq      gap      omega  full diag
   1    -26.7066096 -0.267066E+02  0.183E-02    4.36       0.0  T
   2    -26.7066097 -0.145466E-07  0.108E-02    4.36       2.1  T
   3    -26.7066097  0.733340E-09  0.740E-04    4.36      31.0  T
   4    -26.7066097 -0.611159E-08  0.297E-04    4.36      77.2  T
     SCC iter.                  ...        0 min,  0.001 sec
     gradient                   ...        0 min,  0.004 sec
 * total energy  :   -26.2875754 Eh     change       -0.1552445E-04 Eh
   gradient norm :     0.0012195 Eh/α   predicted    -0.5078189E-05 ( -67.29%)
   displ. norm   :     0.0594751 α      lambda       -0.1101835E-04
   maximum displ.:     0.0542404 α      in ANC's #1, #2, #4, ...

........................................................................
.............................. CYCLE   31 ..............................
........................................................................

 iter      E             dE          RMSdq      gap      omega  full diag
   1    -26.7065450 -0.267065E+02  0.190E-02    4.36       0.0  T
   2    -26.7065450 -0.159023E-07  0.112E-02    4.36       2.1  T
   3    -26.7065450  0.127981E-08  0.801E-04    4.36      28.6  T
   4    -26.7065450 -0.713367E-08  0.309E-04    4.36      74.2  T
     SCC iter.                  ...        0 min,  0.001 sec
     gradient                   ...        0 min,  0.004 sec
 * total energy  :   -26.2875922 Eh     change       -0.1685666E-04 Eh
   gradient norm :     0.0012395 Eh/α   predicted    -0.5519375E-05 ( -67.26%)
   displ. norm   :     0.0614556 α      lambda       -0.1188163E-04
   maximum displ.:     0.0560329 α      in ANC's #1, #2, #4, ...

........................................................................
.............................. CYCLE   32 ..............................
........................................................................

 iter      E             dE          RMSdq      gap      omega  full diag
   1    -26.7064699 -0.267065E+02  0.196E-02    4.36       0.0  T
   2    -26.7064699 -0.172867E-07  0.116E-02    4.36       2.0  T
   3    -26.7064699  0.187240E-08  0.858E-04    4.36      26.7  T
   4    -26.7064699 -0.819036E-08  0.320E-04    4.36      71.7  T
     SCC iter.                  ...        0 min,  0.001 sec
     gradient                   ...        0 min,  0.004 sec
 * total energy  :   -26.2876104 Eh     change       -0.1819125E-04 Eh
   gradient norm :     0.0012698 Eh/α   predicted    -0.5952341E-05 ( -67.28%)
   displ. norm   :     0.0629705 α      lambda       -0.1269839E-04
   maximum displ.:     0.0574226 α      in ANC's #1, #2, #4, ...

........................................................................
.............................. CYCLE   33 ..............................
........................................................................

 iter      E             dE          RMSdq      gap      omega  full diag
   1    -26.7063913 -0.267064E+02  0.201E-02    4.36       0.0  T
   2    -26.7063913 -0.183501E-07  0.119E-02    4.36       1.9  T
   3    -26.7063913  0.246953E-08  0.904E-04    4.36      25.4  T
   4    -26.7063913 -0.916848E-08  0.328E-04    4.36      70.0  T
     SCC iter.                  ...        0 min,  0.001 sec
     gradient                   ...        0 min,  0.004 sec
 * total energy  :   -26.2876298 Eh     change       -0.1943261E-04 Eh
   gradient norm :     0.0013171 Eh/α   predicted    -0.6362733E-05 ( -67.26%)
   displ. norm   :     0.0639269 α      lambda       -0.1344580E-04
   maximum displ.:     0.0582816 α      in ANC's #1, #2, #3, ...

........................................................................
.............................. CYCLE   34 ..............................
........................................................................

 iter      E             dE          RMSdq      gap      omega  full diag
   1    -26.7063125 -0.267063E+02  0.204E-02    4.36       0.0  T
   2    -26.7063125 -0.190955E-07  0.121E-02    4.36       1.9  T
   3    -26.7063125  0.332366E-08  0.952E-04    4.36      24.1  T
   4    -26.7063125 -0.103261E-07  0.332E-04    4.36      69.1  T
     SCC iter.                  ...        0 min,  0.001 sec
     gradient                   ...        0 min,  0.004 sec
 * total energy  :   -26.2876504 Eh     change       -0.2054782E-04 Eh
   gradient norm :     0.0013783 Eh/α   predicted    -0.6738126E-05 ( -67.21%)
   displ. norm   :     0.0643269 α      lambda       -0.1409975E-04
   maximum displ.:     0.0586499 α      in ANC's #1, #2, #3, ...

........................................................................
.............................. CYCLE   35 ..............................
........................................................................

 iter      E             dE          RMSdq      gap      omega  full diag
   1    -26.7062343 -0.267062E+02  0.206E-02    4.36       0.0  T
   2    -26.7062343 -0.195490E-07  0.121E-02    4.36       1.9  T
   3    -26.7062343  0.406604E-08  0.985E-04    4.36      23.3  T
   4    -26.7062343 -0.112417E-07  0.334E-04    4.36      68.8  T
     SCC iter.                  ...        0 min,  0.001 sec
     gradient                   ...        0 min,  0.004 sec
 * total energy  :   -26.2876719 Eh     change       -0.2149865E-04 Eh
   gradient norm :     0.0014553 Eh/α   predicted    -0.7065874E-05 ( -67.13%)
   displ. norm   :     0.0641616 α      lambda       -0.1464171E-04
   maximum displ.:     0.0585147 α      in ANC's #1, #2, #3, ...

........................................................................
.............................. CYCLE   36 ..............................
........................................................................

 iter      E             dE          RMSdq      gap      omega  full diag
   1    -26.7061607 -0.267062E+02  0.206E-02    4.36       0.0  T
   2    -26.7061607 -0.196177E-07  0.121E-02    4.36       1.9  T
   3    -26.7061607  0.482889E-08  0.101E-03    4.36      22.7  T
   4    -26.7061607 -0.120637E-07  0.332E-04    4.36      69.1  T
   5    -26.7061607 -0.283766E-09  0.138E-04    4.36     166.8  T
     SCC iter.                  ...        0 min,  0.002 sec
     gradient                   ...        0 min,  0.004 sec
 * total energy  :   -26.2876942 Eh     change       -0.2227726E-04 Eh
   gradient norm :     0.0015433 Eh/α   predicted    -0.7337619E-05 ( -67.06%)
   displ. norm   :     0.0634879 α      lambda       -0.1507051E-04
   maximum displ.:     0.0579239 α      in ANC's #1, #2, #3, ...

........................................................................
.............................. CYCLE   37 ..............................
........................................................................

 iter      E             dE          RMSdq      gap      omega  full diag
   1    -26.7060935 -0.267061E+02  0.204E-02    4.36       0.0  T
   2    -26.7060935 -0.197677E-07  0.120E-02    4.36       1.9  T
   3    -26.7060935  0.465072E-08  0.987E-04    4.36      23.3  T
   4    -26.7060935 -0.117363E-07  0.329E-04    4.36      69.8  T
     SCC iter.                  ...        0 min,  0.001 sec
     gradient                   ...        0 min,  0.004 sec
 * total energy  :   -26.2877170 Eh     change       -0.2286062E-04 Eh
   gradient norm :     0.0016368 Eh/α   predicted    -0.7552097E-05 ( -66.96%)
   displ. norm   :     0.0623606 α      lambda       -0.1537652E-04
   maximum displ.:     0.0569139 α      in ANC's #1, #2, #3, ...

........................................................................
.............................. CYCLE   38 ..............................
........................................................................

 iter      E             dE          RMSdq      gap      omega  full diag
   1    -26.7060348 -0.267060E+02  0.201E-02    4.36       0.0  T
   2    -26.7060348 -0.185746E-07  0.118E-02    4.36       1.9  T
   3    -26.7060348  0.549058E-08  0.101E-03    4.36      22.7  T
   4    -26.7060348 -0.124227E-07  0.320E-04    4.36      71.8  T
   5    -26.7060348 -0.253134E-09  0.134E-04    4.36     170.9  T
     SCC iter.                  ...        0 min,  0.002 sec
     gradient                   ...        0 min,  0.004 sec
 * total energy  :   -26.2877403 Eh     change       -0.2325140E-04 Eh
   gradient norm :     0.0017356 Eh/α   predicted    -0.7704804E-05 ( -66.86%)
   displ. norm   :     0.0609513 α      lambda       -0.1558258E-04
   maximum displ.:     0.0556436 α      in ANC's #1, #2, #3, ...

........................................................................
.............................. CYCLE   39 ..............................
........................................................................

 iter      E             dE          RMSdq      gap      omega  full diag
   1    -26.7059851 -0.267060E+02  0.196E-02    4.36       0.0  T
   2    -26.7059851 -0.182137E-07  0.116E-02    4.36       2.0  T
   3    -26.7059851  0.497473E-08  0.964E-04    4.36      23.8  T
   4    -26.7059851 -0.115734E-07  0.313E-04    4.36      73.3  T
     SCC iter.                  ...        0 min,  0.001 sec
     gradient                   ...        0 min,  0.004 sec
 * total energy  :   -26.2877638 Eh     change       -0.2348366E-04 Eh
   gradient norm :     0.0018322 Eh/α   predicted    -0.7807222E-05 ( -66.75%)
   displ. norm   :     0.0593248 α      lambda       -0.1568810E-04
   maximum displ.:     0.0541616 α      in ANC's #1, #2, #3, ...

........................................................................
.............................. CYCLE   40 ..............................
........................................................................

 iter      E             dE          RMSdq      gap      omega  full diag
   1    -26.7059439 -0.267059E+02  0.192E-02    4.36       0.0  T
   2    -26.7059439 -0.165640E-07  0.113E-02    4.36       2.0  T
   3    -26.7059439  0.481565E-08  0.948E-04    4.36      24.2  T
   4    -26.7059439 -0.110446E-07  0.301E-04    4.36      76.1  T
     SCC iter.                  ...        0 min,  0.001 sec
     gradient                   ...        0 min,  0.004 sec
 * total energy  :   -26.2877873 Eh     change       -0.2357169E-04 Eh
   gradient norm :     0.0019282 Eh/α   predicted    -0.7859101E-05 ( -66.66%)
   displ. norm   :     1.4926826 α      lambda       -0.3996555E-03
   maximum displ.:     1.3646732 α      in ANC's #1, #2, #3, ...

........................................................................
.............................. CYCLE   41 ..............................
........................................................................

 iter      E             dE          RMSdq      gap      omega  full diag
   1    -26.6837344 -0.266837E+02  0.514E-01    4.33       0.0  T
   2    -26.6837897 -0.553103E-04  0.300E-01    4.33       1.0  T
   3    -26.6837838  0.586864E-05  0.359E-02    4.33       1.0  T
   4    -26.6837961 -0.122292E-04  0.138E-02    4.33       1.7  T
   5    -26.6837976 -0.156322E-05  0.605E-03    4.33       3.8  T
   6    -26.6837976 -0.112932E-07  0.174E-03    4.33      13.2  T
   7    -26.6837977 -0.191840E-07  0.593E-04    4.33      38.7  T
   8    -26.6837977 -0.178714E-08  0.196E-04    4.33     116.8  T
     SCC iter.                  ...        0 min,  0.003 sec
     gradient                   ...        0 min,  0.004 sec
 * total energy  :   -26.2859609 Eh     change        0.1826380E-02 Eh
   gradient norm :     0.0370007 Eh/α   predicted    -0.3977186E-03 (-121.78%)
   displ. norm   :     0.3965250 α      lambda       -0.4699064E-02
   maximum displ.:     0.2095147 α      in ANC's #4, #2, #1, ...

........................................................................
.............................. CYCLE   42 ..............................
........................................................................

 iter      E             dE          RMSdq      gap      omega  full diag
   1    -26.7019211 -0.267019E+02  0.373E-01    4.38       0.0  T
   2    -26.7020785 -0.157430E-03  0.215E-01    4.34       1.0  T
   3    -26.7020335  0.450139E-04  0.986E-02    4.35       1.0  T
   4    -26.7021126 -0.791103E-04  0.178E-02    4.34       1.3  T
   5    -26.7021149 -0.230590E-05  0.638E-03    4.34       3.6  T
   6    -26.7021150 -0.108782E-06  0.284E-03    4.34       8.1  T
   7    -26.7021150 -0.440483E-07  0.108E-03    4.34      21.3  T
   8    -26.7021151 -0.226520E-08  0.310E-04    4.34      74.0  T
   9    -26.7021151 -0.874635E-09  0.124E-04    4.34     185.1  T
     SCC iter.                  ...        0 min,  0.003 sec
     gradient                   ...        0 min,  0.004 sec
 * total energy  :   -26.2858365 Eh     change        0.1244201E-03 Eh
   gradient norm :     0.0459765 Eh/α   predicted    -0.2718965E-02 (*******%)
   displ. norm   :     0.6013841 α      lambda       -0.4855931E-02
   maximum displ.:     0.4983893 α      in ANC's #1, #3, #6, ...
 * RMSD in coord.:     0.4191033 α      energy gain   0.1629510E-02 Eh

generating ANC from exact Hessian ...
Using Lindh-Hessian (1995)
 Shifting diagonal of input Hessian by   7.306699218057917E-003
 Lowest  eigenvalues of input Hessian
    0.000000    0.000000    0.000000    0.000000    0.000000    0.000000
    0.010000    0.010204    0.013967    0.016707    0.018432    0.026067
    0.027918    0.035186    0.044500    0.048245    0.049902    0.053843
 Highest eigenvalues
    1.485825    1.633845    1.725812    1.904967    2.038243    2.094487
 

........................................................................
.............................. CYCLE   43 ..............................
........................................................................

 iter      E             dE          RMSdq      gap      omega  full diag
   1    -26.7030277 -0.267030E+02  0.359E-01    4.31       0.0  T
   2    -26.7031446 -0.116849E-03  0.212E-01    4.35       1.0  T
   3    -26.7030899  0.546664E-04  0.103E-01    4.34       1.0  T
   4    -26.7031843 -0.943610E-04  0.129E-02    4.35       1.8  T
   5    -26.7031855 -0.121701E-05  0.501E-03    4.35       4.6  T
   6    -26.7031856 -0.150225E-06  0.214E-03    4.35      10.7  T
   7    -26.7031856 -0.133202E-07  0.832E-04    4.35      27.6  T
   8    -26.7031856 -0.162217E-08  0.280E-04    4.35      82.0  T
     SCC iter.                  ...        0 min,  0.003 sec
     gradient                   ...        0 min,  0.004 sec
 * total energy  :   -26.2878106 Eh     change       -0.1974112E-02 Eh
   gradient norm :     0.0154158 Eh/α   predicted     0.0000000E+00 (-100.00%)
   displ. norm   :     0.0742557 α      lambda       -0.5721297E-03
   maximum displ.:     0.0459692 α      in ANC's #1, #15, #10, ...

........................................................................
.............................. CYCLE   44 ..............................
........................................................................

 iter      E             dE          RMSdq      gap      omega  full diag
   1    -26.7065047 -0.267065E+02  0.687E-02    4.35       0.0  T
   2    -26.7065078 -0.301377E-05  0.391E-02    4.36       1.0  T
   3    -26.7065073  0.473661E-06  0.116E-02    4.35       2.0  T
   4    -26.7065082 -0.905252E-06  0.304E-03    4.36       7.5  T
   5    -26.7065083 -0.676285E-07  0.129E-03    4.36      17.7  T
   6    -26.7065083 -0.226921E-08  0.324E-04    4.36      70.8  T
   7    -26.7065083 -0.302013E-09  0.125E-04    4.36     183.3  T
     SCC iter.                  ...        0 min,  0.002 sec
     gradient                   ...        0 min,  0.004 sec
 * total energy  :   -26.2881575 Eh     change       -0.3468954E-03 Eh
   gradient norm :     0.0047457 Eh/α   predicted    -0.2876427E-03 ( -17.08%)
   displ. norm   :     0.0709898 α      lambda       -0.8717711E-04
   maximum displ.:     0.0606431 α      in ANC's #1, #3, #2, ...

........................................................................
.............................. CYCLE   45 ..............................
........................................................................

 iter      E             dE          RMSdq      gap      omega  full diag
   1    -26.7076312 -0.267076E+02  0.260E-02    4.35       0.0  T
   2    -26.7076316 -0.366587E-06  0.150E-02    4.36       1.5  T
   3    -26.7076314  0.206435E-06  0.540E-03    4.36       4.2  T
   4    -26.7076317 -0.290481E-06  0.982E-04    4.36      23.4  T
   5    -26.7076317 -0.660849E-08  0.409E-04    4.36      56.2  T
     SCC iter.                  ...        0 min,  0.002 sec
     gradient                   ...        0 min,  0.004 sec
 * total energy  :   -26.2882172 Eh     change       -0.5962485E-04 Eh
   gradient norm :     0.0014715 Eh/α   predicted    -0.4403139E-04 ( -26.15%)
   displ. norm   :     0.1260745 α      lambda       -0.4828131E-04
   maximum displ.:     0.1044482 α      in ANC's #1, #3, #2, ...

........................................................................
.............................. CYCLE   46 ..............................
........................................................................

 iter      E             dE          RMSdq      gap      omega  full diag
   1    -26.7079012 -0.267079E+02  0.388E-02    4.35       0.0  T
   2    -26.7079015 -0.292128E-06  0.229E-02    4.36       1.0  T
   3    -26.7079011  0.423286E-06  0.572E-03    4.36       4.0  T
   4    -26.7079016 -0.521416E-06  0.779E-04    4.36      29.5  T
   5    -26.7079016 -0.353205E-08  0.392E-04    4.36      58.5  T
     SCC iter.                  ...        0 min,  0.002 sec
     gradient                   ...        0 min,  0.004 sec
 * total energy  :   -26.2882775 Eh     change       -0.6031472E-04 Eh
   gradient norm :     0.0035967 Eh/α   predicted    -0.2431134E-04 ( -59.69%)
   displ. norm   :     0.1122389 α      lambda       -0.6364437E-04
   maximum displ.:     0.0868620 α      in ANC's #1, #3, #2, ...

........................................................................
.............................. CYCLE   47 ..............................
........................................................................

 iter      E             dE          RMSdq      gap      omega  full diag
   1    -26.7075756 -0.267076E+02  0.322E-02    4.36       0.0  T
   2    -26.7075757 -0.997595E-07  0.191E-02    4.36       1.2  T
   3    -26.7075756  0.995444E-07  0.275E-03    4.36       8.4  T
   4    -26.7075757 -0.132979E-06  0.610E-04    4.36      37.6  T
   5    -26.7075757 -0.128650E-08  0.293E-04    4.36      78.2  T
     SCC iter.                  ...        0 min,  0.002 sec
     gradient                   ...        0 min,  0.004 sec
 * total energy  :   -26.2883374 Eh     change       -0.5988956E-04 Eh
   gradient norm :     0.0039310 Eh/α   predicted    -0.3227548E-04 ( -46.11%)
   displ. norm   :     0.1967670 α      lambda       -0.1106247E-03
   maximum displ.:     0.1500225 α      in ANC's #1, #3, #2, ...

........................................................................
.............................. CYCLE   48 ..............................
........................................................................

 iter      E             dE          RMSdq      gap      omega  full diag
   1    -26.7067754 -0.267068E+02  0.567E-02    4.35       0.0  T
   2    -26.7067757 -0.215241E-06  0.336E-02    4.36       1.0  T
   3    -26.7067756  0.154206E-07  0.236E-03    4.36       9.7  T
   4    -26.7067757 -0.706417E-07  0.981E-04    4.36      23.4  T
   5    -26.7067757 -0.477203E-08  0.445E-04    4.36      51.6  T
     SCC iter.                  ...        0 min,  0.002 sec
     gradient                   ...        0 min,  0.004 sec
 * total energy  :   -26.2884335 Eh     change       -0.9610555E-04 Eh
   gradient norm :     0.0041951 Eh/α   predicted    -0.5746019E-04 ( -40.21%)
   displ. norm   :     0.2174646 α      lambda       -0.1119782E-03
   maximum displ.:     0.1737705 α      in ANC's #1, #3, #2, ...

........................................................................
.............................. CYCLE   49 ..............................
........................................................................

 iter      E             dE          RMSdq      gap      omega  full diag
   1    -26.7059495 -0.267059E+02  0.642E-02    4.35       0.0  T
   2    -26.7059498 -0.216700E-06  0.380E-02    4.35       1.0  T
   3    -26.7059498  0.497804E-08  0.226E-03    4.35      10.2  T
   4    -26.7059498 -0.641076E-07  0.107E-03    4.35      21.4  T
   5    -26.7059498 -0.726544E-08  0.466E-04    4.35      49.2  T
   6    -26.7059498 -0.286057E-09  0.109E-04    4.35     210.8  T
     SCC iter.                  ...        0 min,  0.002 sec
     gradient                   ...        0 min,  0.004 sec
 * total energy  :   -26.2885246 Eh     change       -0.9113602E-04 Eh
   gradient norm :     0.0047362 Eh/α   predicted    -0.5864312E-04 ( -35.65%)
   displ. norm   :     0.1841206 α      lambda       -0.1043789E-03
   maximum displ.:     0.1595068 α      in ANC's #1, #3, #2, ...

........................................................................
.............................. CYCLE   50 ..............................
........................................................................

 iter      E             dE          RMSdq      gap      omega  full diag
   1    -26.7060236 -0.267060E+02  0.576E-02    4.35       0.0  T
   2    -26.7060237 -0.166362E-06  0.341E-02    4.35       1.0  T
   3    -26.7060236  0.139230E-06  0.331E-03    4.35       6.9  T
   4    -26.7060238 -0.204979E-06  0.909E-04    4.35      25.2  T
   5    -26.7060238 -0.263135E-08  0.403E-04    4.35      56.9  T
     SCC iter.                  ...        0 min,  0.002 sec
     gradient                   ...        0 min,  0.004 sec
 * total energy  :   -26.2886124 Eh     change       -0.8781079E-04 Eh
   gradient norm :     0.0042413 Eh/α   predicted    -0.5396289E-04 ( -38.55%)
   displ. norm   :     0.2290949 α      lambda       -0.1275159E-03
   maximum displ.:     0.2065543 α      in ANC's #1, #3, #2, ...

........................................................................
.............................. CYCLE   51 ..............................
........................................................................

 iter      E             dE          RMSdq      gap      omega  full diag
   1    -26.7063862 -0.267064E+02  0.754E-02    4.35       0.0  T
   2    -26.7063865 -0.300615E-06  0.447E-02    4.35       1.0  T
   3    -26.7063861  0.486482E-06  0.546E-03    4.35       4.2  T
   4    -26.7063867 -0.623612E-06  0.106E-03    4.35      21.7  T
   5    -26.7063867 -0.253945E-08  0.514E-04    4.35      44.7  T
   6    -26.7063867 -0.379529E-09  0.164E-04    4.35     139.6  T
     SCC iter.                  ...        0 min,  0.002 sec
     gradient                   ...        0 min,  0.004 sec
 * total energy  :   -26.2887201 Eh     change       -0.1076894E-03 Eh
   gradient norm :     0.0040558 Eh/α   predicted    -0.6710517E-04 ( -37.69%)
   displ. norm   :     0.2935110 α      lambda       -0.1499561E-03
   maximum displ.:     0.2722346 α      in ANC's #1, #3, #2, ...

........................................................................
.............................. CYCLE   52 ..............................
........................................................................

 iter      E             dE          RMSdq      gap      omega  full diag
   1    -26.7067777 -0.267068E+02  0.987E-02    4.35       0.0  T
   2    -26.7067782 -0.506720E-06  0.584E-02    4.35       1.0  T
   3    -26.7067774  0.895003E-06  0.720E-03    4.35       3.2  T
   4    -26.7067785 -0.113771E-05  0.137E-03    4.35      16.7  T
   5    -26.7067785 -0.420922E-08  0.676E-04    4.35      34.0  T
   6    -26.7067785 -0.950777E-09  0.212E-04    4.35     108.4  T
     SCC iter.                  ...        0 min,  0.002 sec
     gradient                   ...        0 min,  0.004 sec
 * total energy  :   -26.2888427 Eh     change       -0.1225707E-03 Eh
   gradient norm :     0.0044198 Eh/α   predicted    -0.8143831E-04 ( -33.56%)
   displ. norm   :     0.3807734 α      lambda       -0.1638626E-03
   maximum displ.:     0.3585223 α      in ANC's #1, #3, #2, ...

........................................................................
.............................. CYCLE   53 ..............................
........................................................................

 iter      E             dE          RMSdq      gap      omega  full diag
   1    -26.7066458 -0.267066E+02  0.131E-01    4.35       0.0  T
   2    -26.7066465 -0.682600E-06  0.771E-02    4.35       1.0  T
   3    -26.7066455  0.100315E-05  0.762E-03    4.35       3.0  T
   4    -26.7066469 -0.134426E-05  0.174E-03    4.35      13.2  T
   5    -26.7066469 -0.542115E-08  0.791E-04    4.35      29.0  T
   6    -26.7066469 -0.102659E-08  0.241E-04    4.35      95.0  T
     SCC iter.                  ...        0 min,  0.002 sec
     gradient                   ...        0 min,  0.004 sec
 * total energy  :   -26.2889656 Eh     change       -0.1228907E-03 Eh
   gradient norm :     0.0054940 Eh/α   predicted    -0.9381241E-04 ( -23.66%)
   displ. norm   :     0.3315327 α      lambda       -0.1618018E-03
   maximum displ.:     0.3153404 α      in ANC's #1, #29, #32, ...

........................................................................
.............................. CYCLE   54 ..............................
........................................................................

 iter      E             dE          RMSdq      gap      omega  full diag
   1    -26.7090785 -0.267091E+02  0.121E-01    4.35       0.0  T
   2    -26.7090796 -0.115701E-05  0.709E-02    4.35       1.0  T
   3    -26.7090794  0.198525E-06  0.518E-03    4.35       4.4  T
   4    -26.7090799 -0.428362E-06  0.221E-03    4.35      10.4  T
   5    -26.7090799 -0.481467E-07  0.106E-03    4.35      21.6  T
   6    -26.7090799 -0.128044E-08  0.211E-04    4.35     108.6  T
   7    -26.7090799 -0.396955E-09  0.902E-05    4.35     254.4  T
     SCC iter.                  ...        0 min,  0.002 sec
     gradient                   ...        0 min,  0.004 sec
 * total energy  :   -26.2890461 Eh     change       -0.8054334E-04 Eh
   gradient norm :     0.0073559 Eh/α   predicted    -0.8979661E-04 (  11.49%)
   displ. norm   :     0.5817979 α      lambda       -0.2246021E-03
   maximum displ.:     0.5414373 α      in ANC's #1, #3, #2, ...

........................................................................
.............................. CYCLE   55 ..............................
........................................................................

 iter      E             dE          RMSdq      gap      omega  full diag
   1    -26.7027799 -0.267028E+02  0.205E-01    4.35       0.0  T
   2    -26.7027880 -0.809907E-05  0.120E-01    4.35       1.0  T
   3    -26.7027871  0.922259E-06  0.117E-02    4.35       2.0  T
   4    -26.7027886 -0.153010E-05  0.475E-03    4.35       4.8  T
   5    -26.7027889 -0.336684E-06  0.215E-03    4.35      10.7  T
   6    -26.7027890 -0.588738E-08  0.423E-04    4.35      54.2  T
   7    -26.7027890 -0.849653E-09  0.172E-04    4.35     133.6  T
     SCC iter.                  ...        0 min,  0.002 sec
     gradient                   ...        0 min,  0.004 sec
 * total energy  :   -26.2889780 Eh     change        0.6812198E-04 Eh
   gradient norm :     0.0110659 Eh/α   predicted    -0.1503152E-03 (-320.66%)
   displ. norm   :     0.2953432 α      lambda       -0.4399395E-03
   maximum displ.:     0.2777721 α      in ANC's #1, #3, #2, ...

........................................................................
.............................. CYCLE   56 ..............................
........................................................................

 iter      E             dE          RMSdq      gap      omega  full diag
   1    -26.7092443 -0.267092E+02  0.115E-01    4.35       0.0  T
   2    -26.7092479 -0.357574E-05  0.671E-02    4.36       1.0  T
   3    -26.7092465  0.141778E-05  0.107E-02    4.35       2.1  T
   4    -26.7092483 -0.183495E-05  0.321E-03    4.36       7.1  T
   5    -26.7092484 -0.137265E-06  0.136E-03    4.36      16.8  T
   6    -26.7092484  0.758192E-09  0.521E-04    4.36      44.0  T
   7    -26.7092484 -0.274175E-08  0.106E-04    4.36     216.6  T
     SCC iter.                  ...        0 min,  0.002 sec
     gradient                   ...        0 min,  0.004 sec
 * total energy  :   -26.2891482 Eh     change       -0.1701906E-03 Eh
   gradient norm :     0.0023814 Eh/α   predicted    -0.2391600E-03 (  40.52%)
   displ. norm   :     0.1071532 α      lambda       -0.4933273E-04
   maximum displ.:     0.0970769 α      in ANC's #1, #2, #5, ...

........................................................................
.............................. CYCLE   57 ..............................
........................................................................

 iter      E             dE          RMSdq      gap      omega  full diag
   1    -26.7088063 -0.267088E+02  0.407E-02    4.35       0.0  T
   2    -26.7088065 -0.256198E-06  0.238E-02    4.35       1.0  T
   3    -26.7088065 -0.721934E-08  0.233E-03    4.35       9.9  T
   4    -26.7088066 -0.409911E-07  0.847E-04    4.35      27.1  T
   5    -26.7088066 -0.162978E-08  0.488E-04    4.35      47.0  T
     SCC iter.                  ...        0 min,  0.002 sec
     gradient                   ...        0 min,  0.004 sec
 * total energy  :   -26.2891767 Eh     change       -0.2855880E-04 Eh
   gradient norm :     0.0034267 Eh/α   predicted    -0.2495580E-04 ( -12.62%)
   displ. norm   :     0.1914288 α      lambda       -0.4828574E-04
   maximum displ.:     0.1739261 α      in ANC's #1, #2, #32, ...

........................................................................
.............................. CYCLE   58 ..............................
........................................................................

 iter      E             dE          RMSdq      gap      omega  full diag
   1    -26.7080531 -0.267081E+02  0.648E-02    4.35       0.0  T
   2    -26.7080533 -0.259641E-06  0.382E-02    4.35       1.0  T
   3    -26.7080532  0.119659E-06  0.385E-03    4.35       6.0  T
   4    -26.7080534 -0.195103E-06  0.968E-04    4.35      23.7  T
   5    -26.7080534 -0.287074E-08  0.510E-04    4.35      44.9  T
     SCC iter.                  ...        0 min,  0.002 sec
     gradient                   ...        0 min,  0.004 sec
 * total energy  :   -26.2892150 Eh     change       -0.3823597E-04 Eh
   gradient norm :     0.0027206 Eh/α   predicted    -0.2503152E-04 ( -34.53%)
   displ. norm   :     0.2821872 α      lambda       -0.6437935E-04
   maximum displ.:     0.2496118 α      in ANC's #1, #2, #32, ...

........................................................................
.............................. CYCLE   59 ..............................
........................................................................

 iter      E             dE          RMSdq      gap      omega  full diag
   1    -26.7071419 -0.267071E+02  0.934E-02    4.35       0.0  T
   2    -26.7071425 -0.589372E-06  0.551E-02    4.35       1.0  T
   3    -26.7071422  0.267433E-06  0.573E-03    4.35       4.0  T
   4    -26.7071426 -0.431222E-06  0.146E-03    4.35      15.7  T
   5    -26.7071426 -0.718281E-08  0.780E-04    4.35      29.4  T
   6    -26.7071426 -0.490868E-09  0.294E-04    4.35      77.9  T
     SCC iter.                  ...        0 min,  0.002 sec
     gradient                   ...        0 min,  0.004 sec
 * total energy  :   -26.2892546 Eh     change       -0.3966422E-04 Eh
   gradient norm :     0.0030167 Eh/α   predicted    -0.3475399E-04 ( -12.38%)
   displ. norm   :     0.1066258 α      lambda       -0.4314582E-04
   maximum displ.:     0.0777898 α      in ANC's #1, #2, #3, ...

........................................................................
.............................. CYCLE   60 ..............................
........................................................................

 iter      E             dE          RMSdq      gap      omega  full diag
   1    -26.7081449 -0.267081E+02  0.333E-02    4.35       0.0  T
   2    -26.7081451 -0.143306E-06  0.196E-02    4.36       1.2  T
   3    -26.7081450  0.819035E-07  0.288E-03    4.35       8.0  T
   4    -26.7081451 -0.117659E-06  0.672E-04    4.36      34.1  T
   5    -26.7081451 -0.195051E-08  0.364E-04    4.36      63.1  T
     SCC iter.                  ...        0 min,  0.002 sec
     gradient                   ...        0 min,  0.004 sec
 * total energy  :   -26.2892860 Eh     change       -0.3140802E-04 Eh
   gradient norm :     0.0025206 Eh/α   predicted    -0.2182198E-04 ( -30.52%)
   displ. norm   :     0.2606041 α      lambda       -0.4664178E-04
   maximum displ.:     0.2103995 α      in ANC's #1, #2, #3, ...

........................................................................
.............................. CYCLE   61 ..............................
........................................................................

 iter      E             dE          RMSdq      gap      omega  full diag
   1    -26.7080903 -0.267081E+02  0.825E-02    4.36       0.0  T
   2    -26.7080905 -0.209733E-06  0.487E-02    4.36       1.0  T
   3    -26.7080904  0.115073E-06  0.335E-03    4.36       6.8  T
   4    -26.7080906 -0.226710E-06  0.120E-03    4.36      19.2  T
   5    -26.7080906 -0.170876E-08  0.400E-04    4.36      57.3  T
   6    -26.7080906 -0.108018E-08  0.131E-04    4.36     175.1  T
     SCC iter.                  ...        0 min,  0.002 sec
     gradient                   ...        0 min,  0.004 sec
 * total energy  :   -26.2893186 Eh     change       -0.3257597E-04 Eh
   gradient norm :     0.0023508 Eh/α   predicted    -0.2490891E-04 ( -23.54%)
   displ. norm   :     0.1708375 α      lambda       -0.3515854E-04
   maximum displ.:     0.1208070 α      in ANC's #1, #3, #2, ...

........................................................................
.............................. CYCLE   62 ..............................
........................................................................

 iter      E             dE          RMSdq      gap      omega  full diag
   1    -26.7089643 -0.267090E+02  0.533E-02    4.36       0.0  T
   2    -26.7089645 -0.201321E-06  0.314E-02    4.36       1.0  T
   3    -26.7089644  0.169377E-06  0.362E-03    4.36       6.3  T
   4    -26.7089646 -0.240137E-06  0.957E-04    4.36      24.0  T
   5    -26.7089646 -0.394316E-08  0.460E-04    4.36      49.9  T
     SCC iter.                  ...        0 min,  0.002 sec
     gradient                   ...        0 min,  0.004 sec
 * total energy  :   -26.2893408 Eh     change       -0.2220159E-04 Eh
   gradient norm :     0.0011433 Eh/α   predicted    -0.1810622E-04 ( -18.45%)
   displ. norm   :     0.2625050 α      lambda       -0.1175956E-04
   maximum displ.:     0.2100025 α      in ANC's #1, #2, #3, ...

........................................................................
.............................. CYCLE   63 ..............................
........................................................................

 iter      E             dE          RMSdq      gap      omega  full diag
   1    -26.7076951 -0.267077E+02  0.842E-02    4.36       0.0  T
   2    -26.7076956 -0.474083E-06  0.496E-02    4.35       1.0  T
   3    -26.7076950  0.577989E-06  0.576E-03    4.36       4.0  T
   4    -26.7076957 -0.751136E-06  0.137E-03    4.35      16.8  T
   5    -26.7076957 -0.941904E-08  0.689E-04    4.35      33.3  T
[...]

   *** convergence criteria satisfied after 3 iterations ***

         #    Occupation            Energy/Eh            Energy/eV
      -------------------------------------------------------------
         1        2.0000           -0.7063176             -19.2199
       ...           ...                  ...                  ...
        18        2.0000           -0.4529304             -12.3249
        19        2.0000           -0.4465487             -12.1512
        20        2.0000           -0.4359775             -11.8636
        21        2.0000           -0.4267276             -11.6118
        22        2.0000           -0.4161755             -11.3247
        23        2.0000           -0.3943976             -10.7321
        24        2.0000           -0.3784219             -10.2974 (HOMO)
        25                         -0.2183196              -5.9408 (LUMO)
        26                         -0.2084864              -5.6732
        27                         -0.0857369              -2.3330
        28                          0.0669556               1.8220
        29                          0.1136093               3.0915
       ...                                ...                  ...
        46                          0.6676677              18.1682
      -------------------------------------------------------------
                  HL-Gap            0.1601023 Eh            4.3566 eV
             Fermi-level           -0.2983707 Eh           -8.1191 eV

 SCC (total)                   0 d,  0 h,  0 min,  0.007 sec
 SCC setup                      ...        0 min,  0.000 sec (  1.912%)
 Dispersion                     ...        0 min,  0.000 sec (  0.735%)
 classical contributions        ...        0 min,  0.000 sec (  0.276%)
 integral evaluation            ...        0 min,  0.002 sec ( 23.038%)
 iterations                     ...        0 min,  0.001 sec ( 15.106%)
 molecular gradient             ...        0 min,  0.004 sec ( 57.570%)
 printout                       ...        0 min,  0.000 sec (  1.083%)

         :::::::::::::::::::::::::::::::::::::::::::::::::::::
         ::                     SUMMARY                     ::
         :::::::::::::::::::::::::::::::::::::::::::::::::::::
         :: total energy             -26.289349573923 Eh    ::
         :: gradient norm              0.000054881875 Eh/a0 ::
         :: HOMO-LUMO gap              4.356605410470 eV    ::
         ::.................................................::
         :: SCC energy               -26.708817483669 Eh    ::
         :: -> isotropic ES            0.022703104477 Eh    ::
         :: -> anisotropic ES          0.005198479478 Eh    ::
         :: -> anisotropic XC          0.011630943678 Eh    ::
         :: -> dispersion             -0.014421086943 Eh    ::
         :: repulsion energy           0.419467909746 Eh    ::
         :: add. restraining           0.000000000000 Eh    ::
         :: total charge              -0.000000000000 e     ::
         :::::::::::::::::::::::::::::::::::::::::::::::::::::

           ------------------------------------------------- 
          |                Numerical Hessian                |
           ------------------------------------------------- 
step length          :   0.00500
SCC accuracy         :   0.30000
Hessian scale factor :   1.00000
frozen atoms in %    :   0.00000    0
RMS gradient         :   0.00005
estimated CPU  time      0.01 min
estimated wall time      0.01 min

writing file <hessian>.

 projected vibrational frequencies (cm⁻¹)
eigval :       -0.00    -0.00    -0.00     0.00     0.00     0.00
eigval :       38.15   124.20   198.78   218.88   289.62   303.83
eigval :      424.20   428.11   430.85   496.87   518.93   600.42
eigval :      665.65   732.60   788.18   823.36   876.93   879.66
eigval :      921.60   940.80   989.85  1032.37  1070.01  1080.43
eigval :     1132.43  1149.87  1168.62  1191.96  1234.16  1276.72
eigval :     1294.29  1324.17  1343.69  1407.90  1460.15  1483.11
eigval :     1487.07  1497.84  1506.01  1596.56  1610.70  2977.02
eigval :     2986.47  3032.48  3035.78  3040.98  3054.46  3076.60
eigval :     3088.75  3100.31  3521.30
           -------------------------------------------------
          |                Property Printout                |
           -------------------------------------------------

    * Orbital Energies and Occupations

         #    Occupation            Energy/Eh            Energy/eV
      -------------------------------------------------------------
         1        2.0000           -0.7063176             -19.2199
       ...           ...                  ...                  ...
        12        2.0000           -0.5117105             -13.9244
        13        2.0000           -0.4999778             -13.6051
        14        2.0000           -0.4938040             -13.4371
        15        2.0000           -0.4772566             -12.9868
        16        2.0000           -0.4740936             -12.9007
        17        2.0000           -0.4704065             -12.8004
        18        2.0000           -0.4529304             -12.3249
        19        2.0000           -0.4465487             -12.1512
        20        2.0000           -0.4359775             -11.8636
        21        2.0000           -0.4267276             -11.6118
        22        2.0000           -0.4161754             -11.3247
        23        2.0000           -0.3943976             -10.7321
        24        2.0000           -0.3784219             -10.2974 (HOMO)
        25                         -0.2183196              -5.9408 (LUMO)
        26                         -0.2084864              -5.6732
        27                         -0.0857369              -2.3330
        28                          0.0669556               1.8220
        29                          0.1136093               3.0915
        30                          0.1273086               3.4642
        31                          0.1388434               3.7781
        32                          0.1486278               4.0444
        33                          0.1599540               4.3526
        34                          0.1804000               4.9089
        35                          0.1937767               5.2729
       ...                                ...                  ...
        46                          0.6676677              18.1682
      -------------------------------------------------------------
                  HL-Gap            0.1601023 Eh            4.3566 eV
             Fermi-level           -0.2983707 Eh           -8.1191 eV

     #   Z          covCN         q      C6AA      α(0)
     1   6 C        3.754    -0.098    22.437     6.754
     2   6 C        3.807    -0.058    21.617     6.619
     3   6 C        2.972     0.015    27.676     8.629
     4   6 C        2.924    -0.051    29.257     8.870
     5   6 C        2.919    -0.032    28.803     8.801
     6   6 C        2.919    -0.075    29.860     8.961
     7   6 C        2.846     0.144    24.871     8.173
     8   6 C        2.925    -0.062    29.550     8.915
     9   8 O        1.660    -0.396    20.766     6.152
    10   1 H        0.925     0.036     2.500     2.473
    11   1 H        0.925     0.038     2.480     2.463
    12   1 H        0.925     0.036     2.501     2.473
    13   1 H        0.924     0.038     2.472     2.459
    14   1 H        0.924     0.037     2.490     2.468
    15   1 H        0.926     0.031     2.576     2.510
    16   1 H        0.926     0.031     2.573     2.508
    17   1 H        0.925     0.022     2.696     2.568
    18   1 H        0.926     0.047     2.351     2.398
    19   1 H        0.805     0.297     0.731     1.343

 Mol. C6AA /au·bohr⁶  :       3707.031509
 Mol. C8AA /au·bohr⁸  :      86861.929742
 Mol. α(0) /au        :         95.534777


Wiberg/Mayer (AO) data.
largest (>0.10) Wiberg bond orders for each atom

 ---------------------------------------------------------------------------
     #   Z sym  total        # sym  WBO       # sym  WBO       # sym  WBO
 ---------------------------------------------------------------------------
     1   6 C    3.996 --     2 C    1.001    12 H    0.988    11 H    0.988
                            10 H    0.986
     2   6 C    3.997 --     3 C    1.012     1 C    1.001    14 H    0.974
                            13 H    0.974
     3   6 C    3.988 --     8 C    1.430     4 C    1.400     2 C    1.012
                             6 C    0.103
     4   6 C    3.991 --     5 C    1.446     3 C    1.400    15 H    0.970
     5   6 C    3.992 --     4 C    1.446     6 C    1.440    16 H    0.971
                             8 C    0.107
     6   6 C    3.986 --     5 C    1.440     7 C    1.375    17 H    0.967
                             3 C    0.103
     7   6 C    3.937 --     6 C    1.375     8 C    1.370     9 O    1.066
     8   6 C    3.987 --     3 C    1.430     7 C    1.370    18 H    0.967
                             5 C    0.107
     9   8 O    2.115 --     7 C    1.066    19 H    0.891
    10   1 H    0.998 --     1 C    0.986
    11   1 H    0.999 --     1 C    0.988
    12   1 H    0.999 --     1 C    0.988
    13   1 H    0.998 --     2 C    0.974
    14   1 H    0.998 --     2 C    0.974
    15   1 H    0.999 --     4 C    0.970
    16   1 H    0.999 --     5 C    0.971
    17   1 H    0.999 --     6 C    0.967
    18   1 H    0.998 --     8 C    0.967
    19   1 H    0.911 --     9 O    0.891
 ---------------------------------------------------------------------------

Topologies differ in total number of bonds
Writing topology from bond orders to xtbtopo.mol

molecular dipole:
                 x           y           z       tot (Debye)
 q only:        0.027      -0.189       0.129
   full:        0.213      -0.319       0.218       1.122
molecular quadrupole (traceless):
                xx          xy          yy          xz          yz          zz
 q only:        5.670      -1.382      -3.204       1.207       0.506      -2.466
  q+dip:        8.738      -2.071      -3.344       2.605      -1.320      -5.394
   full:        7.968      -2.146      -4.150       2.071       0.161      -3.817

           -------------------------------------------------
          |                Geometry Summary                 |
           -------------------------------------------------

      molecular mass/u    :      122.1646996
   center of mass at/Å    :        0.0172702       0.0180909      -0.0714445
  moments of inertia/u·Å² :        0.1693486E+03   0.4313077E+03   0.5586739E+03
rotational constants/cm⁻¹ :        0.9954396E-01   0.3908493E-01   0.3017437E-01

 * 18 selected distances

     #   Z          #   Z                                           value/Å
     1   6 C        2   6 C                                       1.5299553 (max)
     3   6 C        4   6 C                                       1.3902044
     4   6 C        5   6 C                                       1.3821945
     5   6 C        6   6 C                                       1.3834329
     6   6 C        7   6 C                                       1.3889904
     3   6 C        8   6 C                                       1.3852874
     7   6 C        8   6 C                                       1.3899004
     7   6 C        9   8 O                                       1.3626731
     1   6 C       10   1 H                                       1.0876325
     1   6 C       11   1 H                                       1.0875046
     1   6 C       12   1 H                                       1.0876828
     2   6 C       13   1 H                                       1.0915549
     2   6 C       14   1 H                                       1.0918290
     4   6 C       15   1 H                                       1.0800769
     5   6 C       16   1 H                                       1.0801749
     6   6 C       17   1 H                                       1.0823629
     8   6 C       18   1 H                                       1.0791099
     9   8 O       19   1 H                                       0.9646645 (min)

 * 4 distinct bonds (by element types)

   Z      Z             #   av. dist./Å        max./Å        min./Å
   1 H    6 C           9     1.0853254     1.0918290     1.0791099
   6 C    6 C           7     1.4071379     1.5299553     1.3821945
   1 H    8 O           1     0.9646645     0.9646645     0.9646645
   6 C    8 O           1     1.3626731     1.3626731     1.3626731

           -------------------------------------------------
          |               Frequency Printout                |
           -------------------------------------------------
 projected vibrational frequencies (cm⁻¹)
eigval :       -0.00    -0.00    -0.00     0.00     0.00     0.00
eigval :       38.15   124.20   198.78   218.88   289.62   303.83
eigval :      424.20   428.11   430.85   496.87   518.93   600.42
eigval :      665.65   732.60   788.18   823.36   876.93   879.66
eigval :      921.60   940.80   989.85  1032.37  1070.01  1080.43
eigval :     1132.43  1149.87  1168.62  1191.96  1234.16  1276.72
eigval :     1294.29  1324.17  1343.69  1407.90  1460.15  1483.11
eigval :     1487.07  1497.84  1506.01  1596.56  1610.70  2977.02
eigval :     2986.47  3032.48  3035.78  3040.98  3054.46  3076.60
eigval :     3088.75  3100.31  3521.30
 reduced masses (amu)
   1: 12.63   2: 12.16   3: 10.45   4: 11.38   5: 10.65   6: 10.56   7:  8.66   8:  9.38
   9:  2.29  10: 11.17  11:  9.35  12:  9.03  13:  9.83  14:  4.24  15:  7.69  16: 11.54
  17: 11.50  18: 10.88  19:  9.77  20: 11.08  21:  4.04  22:  2.49  23:  3.86  24:  3.39
  25:  3.36  26:  9.07  27: 11.04  28:  6.10  29:  4.30  30:  8.11  31:  4.46  32:  2.99
  33:  4.45  34:  2.29  35:  3.58  36:  4.44  37:  8.17  38:  6.76  39: 10.90  40:  3.03
  41:  9.63  42:  9.26  43:  2.19  44:  1.54  45:  1.96  46: 11.52  47: 11.53  48:  1.97
  49:  1.49  50:  1.85  51:  1.92  52:  1.38  53:  1.80  54:  1.79  55:  1.89  56:  1.83
  57:  1.86
 IR intensities (km·mol⁻¹)
   1:  0.04   2:  0.00   3:  0.23   4:  0.04   5:  0.05   6:  0.10   7:  0.15   8:  1.97
   9:  0.40  10:  0.06  11:  2.91  12:  3.14  13:  6.27  14:123.43  15: 33.33  16:  0.67
  17:  1.44  18:  4.33  19:  0.15  20:  3.46  21: 36.78  22:  2.97  23:  0.12  24:  3.42
  25:  0.05  26: 54.79  27:  3.53  28:  6.47  29:  3.84  30:  6.76  31: 26.36  32:125.85
  33: 12.86  34:  0.17  35:  2.23  36:  0.42  37:132.90  38: 26.89  39: 31.22  40:  0.71
  41: 17.74  42: 64.86  43:  0.74  44:  3.63  45:  3.73  46: 55.22  47: 66.65  48: 28.48
  49: 29.47  50: 54.32  51: 41.48  52: 25.87  53: 37.38  54: 26.82  55: 60.07  56: 16.64
  57: 18.56
 Raman intensities (Ä⁴*amu⁻¹)
   1:  0.00   2:  0.00   3:  0.00   4:  0.00   5:  0.00   6:  0.00   7:  0.00   8:  0.00
   9:  0.00  10:  0.00  11:  0.00  12:  0.00  13:  0.00  14:  0.00  15:  0.00  16:  0.00
  17:  0.00  18:  0.00  19:  0.00  20:  0.00  21:  0.00  22:  0.00  23:  0.00  24:  0.00
  25:  0.00  26:  0.00  27:  0.00  28:  0.00  29:  0.00  30:  0.00  31:  0.00  32:  0.00
  33:  0.00  34:  0.00  35:  0.00  36:  0.00  37:  0.00  38:  0.00  39:  0.00  40:  0.00
  41:  0.00  42:  0.00  43:  0.00  44:  0.00  45:  0.00  46:  0.00  47:  0.00  48:  0.00
  49:  0.00  50:  0.00  51:  0.00  52:  0.00  53:  0.00  54:  0.00  55:  0.00  56:  0.00
  57:  0.00
 output can be read by thermo (or use thermo option).
 writing <g98.out> molden fake output.
 recommended (thermochemical) frequency scaling factor: 1.0
           -------------------------------------------------
          |             Thermodynamic Functions             |
           -------------------------------------------------

Molecule has no symmetry elements
It seems to be the C1 point group
c1  symmetry found (for desy threshold:  0.10E+00) used in thermo

          ...................................................
          :                      SETUP                      :
          :.................................................:
          :  # frequencies                          51      :
          :  # imaginary freq.                       0      :
          :  linear?                             false      :
          :  only rotor calc.                    false      :
          :  symmetry                               c1      :
          :  rotational number                       1      :
          :  scaling factor                  1.0000000      :
          :  rotor cutoff                    0.0000000 cm⁻¹ :
          :  imag. cutoff                 -100.0000000 cm⁻¹ :
          :.................................................:

    mode    ω/cm⁻¹     T·S(HO)/kcal·mol⁻¹    T·S(FR)/kcal·mol⁻¹   T·S(vib)
   ------------------------------------------------------------------------
       1     38.15    -1.59595 (100.00%)    -1.13634 (  0.00%)    -1.59595
       2    124.20    -0.90457 (100.00%)    -0.78690 (  0.00%)    -0.90457
       3    198.78    -0.63935 (100.00%)    -0.64762 (  0.00%)    -0.63935
       4    218.88    -0.58685 (100.00%)    -0.61909 (  0.00%)    -0.58685
       5    289.62    -0.44012 (100.00%)    -0.53614 (  0.00%)    -0.44012
   ------------------------------------------------------------------------

   temp. (K)  partition function   enthalpy   heat capacity  entropy
                                   cal/mol     cal/K/mol   cal/K/mol   J/K/mol
 298.15  VIB   135.                 3661.939     27.202     22.024
         ROT  0.488E+06              888.752      2.981     29.010
         INT  0.657E+08             4550.692     30.183     51.034
         TR   0.131E+28             1481.254      4.968     40.296
         TOT                        6031.9458    35.1509    91.3303   382.1258

       T/K    H(0)-H(T)+PV         H(T)/Eh          T*S/Eh         G(T)/Eh
   ------------------------------------------------------------------------
    298.15    0.961252E-02    0.166701E+00    0.433939E-01    0.123307E+00
   ------------------------------------------------------------------------

         :::::::::::::::::::::::::::::::::::::::::::::::::::::
         ::                  THERMODYNAMIC                  ::
         :::::::::::::::::::::::::::::::::::::::::::::::::::::
         :: total free energy         -26.166043016037 Eh   ::
         ::.................................................::
         :: total energy              -26.289349573924 Eh   ::
         :: zero point energy           0.157087989602 Eh   ::
         :: G(RRHO) w/o ZPVE           -0.033781431715 Eh   ::
         :: G(RRHO) contrib.            0.123306557887 Eh   ::
         :::::::::::::::::::::::::::::::::::::::::::::::::::::

optimized geometry written to: xtbopt.coord


           -------------------------------------------------
          | TOTAL ENERGY              -26.289349573924 Eh   |
          | TOTAL ENTHALPY            -26.122649066873 Eh   |
          | TOTAL FREE ENERGY         -26.166043016037 Eh   |
          | GRADIENT NORM               0.000054898519 Eh/α |
          | HOMO-LUMO GAP               4.356605915434 eV   |
           -------------------------------------------------

------------------------------------------------------------------------
 * finished run on 2025/04/15 at 19:39:22.685     
------------------------------------------------------------------------
 total:
 * wall-time:     0 d,  0 h,  0 min,  1.480 sec
 *  cpu-time:     0 d,  0 h,  0 min,  1.443 sec
 * ratio c/w:     0.975 speedup
 SCF:
 * wall-time:     0 d,  0 h,  0 min,  0.049 sec
 *  cpu-time:     0 d,  0 h,  0 min,  0.023 sec
 * ratio c/w:     0.472 speedup
 ANC optimizer:
 * wall-time:     0 d,  0 h,  0 min,  0.548 sec
 *  cpu-time:     0 d,  0 h,  0 min,  0.546 sec
 * ratio c/w:     0.997 speedup
 analytical hessian:
 * wall-time:     0 d,  0 h,  0 min,  0.861 sec
 *  cpu-time:     0 d,  0 h,  0 min,  0.861 sec
 * ratio c/w:     0.999 speedup

