14
 energy: -307.638083510137 gnorm: 0.031329165595 xtb: 6.7.1 (edcfbbe)
C           -2.18276609546724        0.13421640015947       -0.66023700259257
C           -1.40113906132088       -0.27790535382315        0.57887059635651
O           -0.10485628634646       -0.77280606844245        0.23845232330566
C            0.86431455158300        0.12891954295713        0.04590367652034
O            0.71559431611710        1.31513075798277        0.17185583077615
C            2.15144540075336       -0.54615858584202       -0.35052769265533
H           -2.25569891799956       -0.69971097401006       -1.35431316190013
H           -3.18260760521030        0.44661588869791       -0.37306966776532
H           -1.68316854304586        0.96391591082714       -1.15425756021148
H           -1.89230871253853       -1.10301411708877        1.09873366198688
H           -1.28687854907025        0.57574461045513        1.25504832105615
H            2.20978290237921       -0.56710541045130       -1.43724683583688
H            2.17223096446257       -1.56485003219343        0.02311943771024
H            2.99430082522685        0.02404310381065        0.02854864141265
14
 energy: -307.638839724240 gnorm: 0.012502627527 xtb: 6.7.1 (edcfbbe)
C           -2.18072025155491        0.13469530998872       -0.66126390400987
C           -1.40913049503822       -0.27290247869395        0.58304337087116
O           -0.10698472034250       -0.78332666946621        0.24190047560500
C            0.86966606690597        0.12601362687795        0.05280228612232
O            0.71741744211642        1.31988351183929        0.17031202204265
C            2.15495738547492       -0.54850312824457       -0.34974392164556
H           -2.25918533127058       -0.70309416149857       -1.35797398593717
H           -3.18759347243190        0.44948612117370       -0.37838922314046
H           -1.68369536586770        0.96907131582065       -1.15971464012400
H           -1.90111503520287       -1.09877125396835        1.10216393972585
H           -1.29558813949016        0.57391789696565        1.26725849427084
H            2.20929228613942       -0.56826504889924       -1.44153260932104
H            2.19360388016666       -1.57364721967864        0.01785096340669
H            2.99732079020083        0.03247799529171        0.02416687666370
14
 energy: -307.639002621514 gnorm: 0.004421728308 xtb: 6.7.1 (edcfbbe)
C           -2.18051834852711        0.13639916960118       -0.66041859612700
C           -1.41612260306681       -0.27025315930029        0.58492452608917
O           -0.10829412535996       -0.79472125027200        0.24525474421422
C            0.87104346869315        0.12071135530909        0.05113722292603
O            0.71726978121833        1.31519472953800        0.17208531788329
C            2.15855434892670       -0.54829594774381       -0.34852273833697
H           -2.26244841321380       -0.70443561748111       -1.35603290448632
H           -3.19127134735288        0.45481621990252       -0.38379404033279
H           -1.68364586728687        0.97060306783416       -1.16298220379135
H           -1.91006732444690       -1.09474018839951        1.10548209584166
H           -1.29663692090821        0.57395146972280        1.27056326483523
H            2.21066383481554       -0.56588691390453       -1.44270096202033
H            2.21024569538231       -1.57643736333903        0.01435666081067
H            2.99947280339531        0.04013032316767        0.02152746315659
14
 energy: -307.639022280150 gnorm: 0.001901042264 xtb: 6.7.1 (edcfbbe)
C           -2.17923176682567        0.13712142498711       -0.66073887520537
C           -1.41887337833598       -0.26978527315813        0.58530832924007
O           -0.10845749433242       -0.79961870638580        0.24898711800412
C            0.87155577933045        0.11763085299475        0.05604326974592
O            0.71510137061950        1.31132654086664        0.17287437538115
C            2.15860271706950       -0.54746435355486       -0.34917095559728
H           -2.26227550964322       -0.70400595259196       -1.35544022394467
H           -3.18998867735895        0.45766047832088       -0.38657487649144
H           -1.68084693892041        0.96978880684644       -1.16368991741324
H           -1.91445573815553       -1.09339850139795        1.10563611278782
H           -1.29498806495000        0.57388080367356        1.27047523973088
H            2.20766244757055       -0.56550274802478       -1.44350242947470
H            2.21578152836259       -1.57488471491339        0.01369369368944
H            2.99865850783999        0.04428742155094        0.01697848498565
14
 energy: -307.639026800264 gnorm: 0.001476296018 xtb: 6.7.1 (edcfbbe)
C           -2.17722031325346        0.13729583310583       -0.66081080048526
C           -1.42038634826699       -0.26998377404351        0.58643709276788
O           -0.10891401431811       -0.80221441040274        0.25008589685300
C            0.86951196782534        0.11609706767702        0.05400243691135
O            0.71272909618201        1.30850310010243        0.17487226528547
C            2.15762440534035       -0.54671475410341       -0.34972516919617
H           -2.26095523400211       -0.70364613344652       -1.35476759008148
H           -3.18698865812782        0.45997959715873       -0.38810290744958
H           -1.67647287113637        0.96804711473836       -1.16341196701426
H           -1.91677727290217       -1.09300284208477        1.10650274074754
H           -1.29290389781716        0.57387134836306        1.27038682702361
H            2.20539775795803       -0.56528692498112       -1.44353369124351
H            2.21734901600040       -1.57294630340113        0.01391540197511
H            2.99625095736614        0.04703734029839        0.01502844262956
14
 energy: -307.639029368226 gnorm: 0.000346161464 xtb: 6.7.1 (edcfbbe)
C           -2.17640253863292        0.13742691672395       -0.66097971719698
C           -1.42006103070264       -0.27064727337366        0.58660965484020
O           -0.10856223312480       -0.80208472745510        0.25131414613585
C            0.86919937119187        0.11611378357909        0.05573488931672
O            0.71178371474923        1.30888135322631        0.17508183092387
C            2.15694431061101       -0.54657971345218       -0.35023041395212
H           -2.25987708527860       -0.70353650751192       -1.35492289486523
H           -3.18600964787870        0.46107528768297       -0.38911436200923
H           -1.67407392810283        0.96768565711491       -1.16284766336782
H           -1.91692979140700       -1.09369228677964        1.10602463209097
H           -1.29379136593501        0.57320319932487        1.27073676842643
H            2.20287223816711       -0.56646354099334       -1.44406719813903
H            2.21738794540450       -1.57236571763268        0.01478286471730
H            2.99576450534604        0.04801994662422        0.01275621154399
14
 energy: -307.639029368226 gnorm: 0.000346161464 xtb: 6.7.1 (edcfbbe)
C           -2.17640253863292        0.13742691672395       -0.66097971719698
C           -1.42006103070264       -0.27064727337366        0.58660965484020
O           -0.10856223312480       -0.80208472745510        0.25131414613585
C            0.86919937119187        0.11611378357909        0.05573488931672
O            0.71178371474923        1.30888135322631        0.17508183092387
C            2.15694431061101       -0.54657971345218       -0.35023041395212
H           -2.25987708527860       -0.70353650751192       -1.35492289486523
H           -3.18600964787870        0.46107528768297       -0.38911436200923
H           -1.67407392810283        0.96768565711491       -1.16284766336782
H           -1.91692979140700       -1.09369228677964        1.10602463209097
H           -1.29379136593501        0.57320319932487        1.27073676842643
H            2.20287223816711       -0.56646354099334       -1.44406719813903
H            2.21738794540450       -1.57236571763268        0.01478286471730
H            2.99576450534604        0.04801994662422        0.01275621154399
