15
 energy: -196.455373319681 gnorm: 0.001447954033 xtb: 6.7.1 (edcfbbe)
C           -1.59429600242431        0.89350968843112        0.29721834051608
C           -1.33335037633223       -0.51229303206799       -0.23627516755924
C            0.07841430071026       -1.00301122920636       -0.40082417639384
C            1.27416089759630       -0.45756551929145       -0.15740723711730
C            1.66233643861264        0.88185657741917        0.39089446899333
H           -1.14624447278737        1.65784445760545       -0.34406630914181
H           -1.20741509600582        1.02045037863606        1.31223616862331
H           -2.67227603568604        1.08042810339274        0.33060335234001
H           -1.85549103719177       -1.23760819126940        0.40518514951615
H           -1.82319227346809       -0.61366405252064       -1.21599374773588
H            0.10763163430942       -2.01536531995030       -0.80657222220819
H            2.13077548970994       -1.08895225571092       -0.39595709163398
H            0.81893409100148        1.51047496648779        0.66934643107472
H            2.26640272272205        1.42858421488168       -0.34537348054365
H            2.29845368607619        0.75343589893889        1.27660269495831
15
 energy: -196.455375988244 gnorm: 0.000349396205 xtb: 6.7.1 (edcfbbe)
C           -1.59350536513225        0.89327020547827        0.29770958808814
C           -1.33338812217905       -0.51241932074514       -0.23633752427487
C            0.07827621753272       -1.00345806074871       -0.40079454289545
C            1.27398826932228       -0.45791869559911       -0.15694777286186
C            1.66174851479712        0.88221037763052        0.39030327320577
H           -1.14487668776917        1.65776486788810       -0.34285558139857
H           -1.20695866249560        1.01971977287421        1.31282799441281
H           -2.67126408759396        1.08073854908327        0.33068086153089
H           -1.85562398483408       -1.23781537858914        0.40497560888233
H           -1.82357206144022       -0.61341871038702       -1.21594034211814
H            0.10756321273729       -2.01547282516594       -0.80742160627558
H            2.13077746584020       -1.08912929565920       -0.39543264138833
H            0.81940781988752        1.51063382024391        0.66678521863768
H            2.26661798913412        1.42838321350748       -0.34394605368162
H            2.29565353950184        0.75503625613374        1.27601081894032
15
 energy: -196.455375988244 gnorm: 0.000349396205 xtb: 6.7.1 (edcfbbe)
C           -1.59350536513225        0.89327020547827        0.29770958808814
C           -1.33338812217905       -0.51241932074514       -0.23633752427487
C            0.07827621753272       -1.00345806074871       -0.40079454289545
C            1.27398826932228       -0.45791869559911       -0.15694777286186
C            1.66174851479712        0.88221037763052        0.39030327320577
H           -1.14487668776917        1.65776486788810       -0.34285558139857
H           -1.20695866249560        1.01971977287421        1.31282799441281
H           -2.67126408759396        1.08073854908327        0.33068086153089
H           -1.85562398483408       -1.23781537858914        0.40497560888233
H           -1.82357206144022       -0.61341871038702       -1.21594034211814
H            0.10756321273729       -2.01547282516594       -0.80742160627558
H            2.13077746584020       -1.08912929565920       -0.39543264138833
H            0.81940781988752        1.51063382024391        0.66678521863768
H            2.26661798913412        1.42838321350748       -0.34394605368162
H            2.29565353950184        0.75503625613374        1.27601081894032
