
                                 *****************
                                 * O   R   C   A *
                                 *****************

                                            #,                                       
                                            ###                                      
                                            ####                                     
                                            #####                                    
                                            ######                                   
                                           ########,                                 
                                     ,,################,,,,,                         
                               ,,#################################,,                 
                          ,,##########################################,,             
                       ,#########################################, ''#####,          
                    ,#############################################,,   '####,        
                  ,##################################################,,,,####,       
                ,###########''''           ''''###############################       
              ,#####''   ,,,,##########,,,,          '''####'''          '####       
            ,##' ,,,,###########################,,,                        '##       
           ' ,,###''''                  '''############,,,                           
         ,,##''                                '''############,,,,        ,,,,,,###''
      ,#''                                            '''#######################'''  
     '                                                          ''''####''''         
             ,#######,   #######,   ,#######,      ##                                
            ,#'     '#,  ##    ##  ,#'     '#,    #''#        ,####,   ,####,        
            ##       ##  ##   ,#'  ##            #'  '#       #'       #'  '#        
            ##       ##  #######   ##           ,######,      #####,   #    #        
            '#,     ,#'  ##    ##  '#,     ,#' ,#      #,     #,   #   #,  ,#        
             '#######'   ##     ##  '#######'  #'      '#     '####' # '####'        



                #########################################################
                #                        -***-                          #
                #          Department of theory and spectroscopy        #
                #                                                       #
                #                      Frank Neese                      #
                #                                                       #
                #     Directorship, Architecture, Infrastructure        #
                #                    SHARK, DRIVERS                     #
                #        Core code/Algorithms in most modules           #
                #                                                       #
                #        Max Planck Institute fuer Kohlenforschung      #
                #                Kaiser Wilhelm Platz 1                 #
                #                 D-45470 Muelheim/Ruhr                 #
                #                      Germany                          #
                #                                                       #
                #                  All rights reserved                  #
                #                        -***-                          #
                #########################################################


                         Program Version 6.0.1  -  RELEASE   -


 With contributions from (in alphabetic order):
[Max-Planck-Institut fuer Kohlenforschung]                               
  Daniel Aravena         : Magnetic Suceptibility                        
  Michael Atanasov       : Ab Initio Ligand Field Theory (pilot matlab implementation)
  Alexander A. Auer      : GIAO ZORA, VPT2 properties, NMR spectrum      
  Ute Becker             : All parallelization in ORCA, NUMFREQ, NUMCALC 
  Giovanni Bistoni       : ED, misc. LED, open-shell LED, HFLD           
  Martin Brehm           : Molecular dynamics                            
  Dmytro Bykov           : pre 5.0 version of the SCF Hessian            
  Marcos Casanova-Páez   : Triplet and SCS-CIS(D). UHF-(DLPNO)-IP/EA/STEOM-CCSD. UHF-CVS-IP/STEOM-CCSD   
  Vijay G. Chilkuri      : MRCI spin determinant printing, contributions to CSF-ICE 
  Pauline Colinet        : FMM embedding                                 
  Dipayan Datta          : RHF DLPNO-CCSD density                        
  Achintya Kumar Dutta   : EOM-CC, STEOM-CC                              
  Nicolas Foglia         : Exact transition moments, OPA infrastructure, MCD improvements    
  Dmitry Ganyushin       : Spin-Orbit,Spin-Spin,Magnetic field MRCI      
  Miquel Garcia-Rates    : C-PCM and meta-GGA Hessian, CCSD/C-PCM, Gaussian charge scheme 
  Tiago L. C. Gouveia    : GS-ROHF, GS-ROCIS                             
  Yang Guo               : DLPNO-NEVPT2, F12-NEVPT2, CIM, IAO-localization        
  Andreas Hansen         : Spin unrestricted coupled pair/coupled cluster methods 
  Ingolf Harden          : AUTO-CI MPn and infrastructure                
  Benjamin Helmich-Paris : MC-RPA, TRAH-(SCF,CASSCF), AVAS, COSX integrals, SCF dyn. polar. 
  Lee Huntington         : MR-EOM, pCC                                   
  Robert Izsak           : Overlap fitted RIJCOSX, COSX-SCS-MP3, EOM     
  Riya Kayal             : Wick's Theorem for AUTO-CI, AUTO-CI UHF-CCSDT 
  Emily Kempfer          : AUTO-CI, RHF CISDT and CCSDT                  
  Christian Kollmar      : KDIIS, OOCD, Brueckner-CCSD(T), CCSD density, CASPT2, CASPT2-K, improved NEVPT2 
  Axel Koslowski         : Symmetry handling                             
  Simone Kossmann        : meta-GGA functionals, TD-DFT gradient, OOMP2, (MP2 Hessian; deprecated post 5.0) 
  Lucas Lang             : DCDCAS                                        
  Marvin Lechner         : AUTO-CI (C++ implementation), FIC-MRCC        
  Spencer Leger          : CASSCF response                               
  Dagmar Lenk            : GEPOL surface, SMD, ORCA-2-JSON               
  Dimitrios Liakos       : Extrapolation schemes; Compound Job, initial MDCI parallelization 
  Dimitrios Manganas     : Further ROCIS development; embedding schemes. LFT, Crystal Embedding 
  Dimitrios Pantazis     : SARC Basis sets                               
  Anastasios Papadopoulos: AUTO-CI, single reference methods and gradients 
  Taras Petrenko         : pre 6.0 DFT Hessian and TD-DFT gradient, (ASA, deprecated), ECA, 1-Electron XAS/XES, NRVS 
  Peter Pinski           : DLPNO-MP2, DLPNO-MP2 Gradient                 
  Christoph Reimann      : Effective Core Potentials                     
  Marius Retegan         : Local ZFS, SOC                                
  Christoph Riplinger    : Optimizer, TS searches, QM/MM, DLPNO-CCSD(T), (RO)-DLPNO pert. Triples 
  Michael Roemelt        : Original ROCIS implementation                 
  Masaaki Saitow         : Open-shell DLPNO-CCSD energy and density      
  Barbara Sandhoefer     : DKH picture change effects                    
  Kantharuban Sivalingam : CASSCF convergence/infrastructure, NEVPT2 and variants, FIC-MRCI 
  Bernardo de Souza      : ESD, SOC TD-DFT                               
  Georgi L. Stoychev     : AutoAux, RI-MP2 NMR, DLPNO-MP2 response, X2C  
  Van Anh Tran           : RI-MP2 g-tensors                              
  Willem Van den Heuvel  : Paramagnetic NMR                              
  Zikuan Wang            : NOTCH, Electric field optimization            
  Frank Wennmohs         : Technical directorship and infrastructure     
  Hang Xu                : AUTO-CI-Response properties                   
                                                                         
[FACCTs GmbH]                                                            
  Markus Bursch, Miquel Garcia-Rates, Christoph Riplinger, Bernardo de Souza, Georgi L. Stoychev 
                                                                 
  APM, Basis sets (HGBS, AHGBS, def-TZVP (Ac-Lr), def2-XVPD (La-Lu)), CI-OPT, improved COSX, DLPNO-Multilevel,           
  DOCKER, DRACO, updates on ESD, GOAT, IRC, LR-CPCM, MBIS, meta-GGA TD-DFT gradient, ML-optimized integration grids, 
  MM, NACMEs, nearIR, NEB, NEB-TS, NL-DFT gradient (VV10), 2- and 3-layer-ONIOM, interface openCOSMO-RS, QMMM,   
  Crystal-QMMM, SF, symmetry and pop. for TD-DFT, r2SCAN hybrids, SOLVATOR                                   
                                                                         
[Other institutions]                                                     
  V. Asgeirsson          : NEB                                           
  Christoph Bannwarth    : sTDA-DFT, sTD-DFT, PBEh-3c, B97-3c, D3        
  Sebastian Ehlert       : rSCAN, r2SCAN, r2SCAN-3c, D4, dhf basis sets  
  Marvin Friede          : D4 for Fr, Ra, Ac-Lr                          
  Lars Goerigk           : TD-DFT with DH, B97 family of functionals     
  Stefan Grimme          : VdW corrections, initial TS optimization, DFT functionals, gCP, sTDA/sTD-DF 
  Waldemar Hujo          : DFT-NL                                        
  H. Jonsson             : NEB                                           
  Holger Kruse           : gCP                                           
  Marcel Mueller         : wB97X-3c, vDZP basis set                      
  Hagen Neugebauer       : wr2SCAN                                       
  Tobias Risthaus        : range-separated hybrid DFT                    
  Lukas Wittmann         : regularized MP2, r2SCAN double-hybrids, wr2SCAN        
                                                                         
We gratefully acknowledge several colleagues who have allowed us to      
interface, adapt or use parts of their codes:                            
  Ed Valeev, F. Pavosevic, A. Kumar             : LibInt (2-el integral package), F12 methods 
  Garnet Chan, S. Sharma, J. Yang, R. Olivares  : DMRG                   
  Ulf Ekstrom                                   : XCFun DFT Library      
  Mihaly Kallay                                 : mrcc  (arbitrary order and MRCC methods)
  Frank Weinhold                                : gennbo (NPA and NBO analysis)           
  Simon Mueller                                 : openCOSMO-RS                            
  Christopher J. Cramer and Donald G. Truhlar   : smd solvation model                     
  S Lehtola, MJT Oliveira, MAL Marques          : LibXC Library                           
  Liviu Ungur et al                             : ANISO software                          


 Your calculation uses the libint2 library for the computation of 2-el integrals
 For citations please refer to: http://libint.valeyev.net

 Your ORCA version has been built with support for libXC version: 6.2.2
 For citations please refer to: https://libxc.gitlab.io

 This ORCA versions uses:
   CBLAS   interface :  Fast vector & matrix operations
   LAPACKE interface :  Fast linear algebra routines
   SCALAPACK package :  Parallel linear algebra routines
   Shared memory     :  Shared parallel matrices
   BLAS/LAPACK       :  OpenBLAS 0.3.27  USE64BITINT DYNAMIC_ARCH NO_AFFINITY Zen SINGLE_THREADED
        Core in use  :  Zen
   Copyright (c) 2011-2014, The OpenBLAS Project


Your calculation utilizes the geometrical counterpoise correction gCP
Please cite in your paper:
H.Kruse, S. Grimme J.Chem.Phys., 136, (2012), 154101 
   

Your calculation utilizes the atom-pairwise dispersion correction
based on EEQ partial charges (D4)


================================================================================

----- Orbital basis set information -----
Your calculation utilizes the basis: def2-SV(P)
   F. Weigend and R. Ahlrichs, Phys. Chem. Chem. Phys. 7, 3297 (2005).

----- AuxJ basis set information -----
Your calculation utilizes the auxiliary basis: def2/J
   F. Weigend, Phys. Chem. Chem. Phys. 8, 1057 (2006).

================================================================================
                                        WARNINGS
                       Please study these warnings very carefully!
================================================================================


================================================================================
                                       INPUT FILE
================================================================================
NAME = sp.inp
|  1> ! pbe def2-sv(p) def2/J RI DEFGRID1 loosescf d4 GCP(DFT/SV(P)) printgap
|  2> %output
|  3>     printlevel normal
|  4> end
|  5> * xyz 0 1
|  6> C -2.7232091872 -0.2533730229 0.29585581
|  7> C -1.4547154039 0.0970959699 -0.4785583625
|  8> C -0.7417871076 1.2899808152 0.1750572456
|  9> C 0.7419354798 1.2900743227 -0.174573547
| 10> C 1.4548903904 0.0969270563 0.478547243
| 11> C 0.504088833 -1.1085944779 0.5718722084
| 12> C -0.5041358512 -1.1086216156 -0.5716127601
| 13> C 2.7229627856 -0.2536253111 -0.2965279297
| 14> H -3.3613356194 0.62232964 0.3956553146
| 15> H -3.2859651295 -1.030224857 -0.2176431423
| 16> H -2.4754553462 -0.6114572766 1.2929078992
| 17> H -1.7477057698 0.3811223242 -1.4955699454
| 18> H -1.2070640032 2.2210137552 -0.1545851629
| 19> H -0.8501496335 1.2368069776 1.2603867282
| 20> H 0.8502724116 1.2373036419 -1.2599236955
| 21> H 1.2071942287 2.2209926107 0.1554125162
| 22> H 1.7484369876 0.3807164202 1.4954580892
| 23> H 1.0844375382 -2.033093276 0.5550767255
| 24> H -0.0368288528 -1.0830897849 1.5194089334
| 25> H 0.0367798753 -1.0833714158 -1.5191502709
| 26> H -1.0846283358 -2.0330264812 -0.5546576542
| 27> H 3.2860360194 -1.0303320202 0.2168028851
| 28> H 3.3610065378 0.6220670617 -0.3969155391
| 29> H 2.474612313 -0.6119763281 -1.2933775927
| 30> *
| 31> 
| 32>                          ****END OF INPUT****
================================================================================

                       ****************************
                       * Single Point Calculation *
                       ****************************

---------------------------------
CARTESIAN COORDINATES (ANGSTROEM)
---------------------------------
  C     -2.723209   -0.253373    0.295856
  C     -1.454715    0.097096   -0.478558
  C     -0.741787    1.289981    0.175057
  C      0.741935    1.290074   -0.174574
  C      1.454890    0.096927    0.478547
  C      0.504089   -1.108594    0.571872
  C     -0.504136   -1.108622   -0.571613
  C      2.722963   -0.253625   -0.296528
  H     -3.361336    0.622330    0.395655
  H     -3.285965   -1.030225   -0.217643
  H     -2.475455   -0.611457    1.292908
  H     -1.747706    0.381122   -1.495570
  H     -1.207064    2.221014   -0.154585
  H     -0.850150    1.236807    1.260387
  H      0.850272    1.237304   -1.259924
  H      1.207194    2.220993    0.155413
  H      1.748437    0.380716    1.495458
  H      1.084438   -2.033093    0.555077
  H     -0.036829   -1.083090    1.519409
  H      0.036780   -1.083371   -1.519150
  H     -1.084628   -2.033026   -0.554658
  H      3.286036   -1.030332    0.216803
  H      3.361007    0.622067   -0.396916
  H      2.474612   -0.611976   -1.293378

----------------------------
CARTESIAN COORDINATES (A.U.)
----------------------------
  NO LB      ZA    FRAG     MASS         X           Y           Z
   0 C     6.0000    0    12.011   -5.146120   -0.478806    0.559086
   1 C     6.0000    0    12.011   -2.749014    0.183485   -0.904344
   2 C     6.0000    0    12.011   -1.401774    2.437710    0.330810
   3 C     6.0000    0    12.011    1.402055    2.437887   -0.329896
   4 C     6.0000    0    12.011    2.749344    0.183166    0.904323
   5 C     6.0000    0    12.011    0.952590   -2.094940    1.080682
   6 C     6.0000    0    12.011   -0.952679   -2.094991   -1.080192
   7 C     6.0000    0    12.011    5.145654   -0.479282   -0.560357
   8 H     1.0000    0     1.008   -6.352004    1.176033    0.747680
   9 H     1.0000    0     1.008   -6.209574   -1.946843   -0.411286
  10 H     1.0000    0     1.008   -4.677933   -1.155487    2.443242
  11 H     1.0000    0     1.008   -3.302685    0.720217   -2.826218
  12 H     1.0000    0     1.008   -2.281020    4.197108   -0.292124
  13 H     1.0000    0     1.008   -1.606550    2.337226    2.381786
  14 H     1.0000    0     1.008    1.606782    2.338165   -2.380911
  15 H     1.0000    0     1.008    2.281266    4.197068    0.293687
  16 H     1.0000    0     1.008    3.304067    0.719450    2.826006
  17 H     1.0000    0     1.008    2.049290   -3.841989    1.048943
  18 H     1.0000    0     1.008   -0.069596   -2.046743    2.871267
  19 H     1.0000    0     1.008    0.069504   -2.047275   -2.870778
  20 H     1.0000    0     1.008   -2.049651   -3.841863   -1.048151
  21 H     1.0000    0     1.008    6.209708   -1.947045    0.409698
  22 H     1.0000    0     1.008    6.351382    1.175536   -0.750062
  23 H     1.0000    0     1.008    4.676340   -1.156468   -2.444129

--------------------------------
INTERNAL COORDINATES (ANGSTROEM)
--------------------------------
 C      0   0   0     0.000000000000     0.00000000     0.00000000
 C      1   0   0     1.526965063043     0.00000000     0.00000000
 C      2   1   0     1.535726008428   110.36985868     0.00000000
 C      3   2   1     1.524360330184   110.74947566   156.11803547
 C      4   3   2     1.535731705148   110.74911719   292.34579979
 C      5   4   3     1.538185723553   110.34896496    32.57981568
 C      6   5   4     1.524491681759   111.30346595    30.54005088
 C      5   4   3     1.526969575694   110.36649190   156.08608447
 H      1   2   3     1.088127032290   110.42484837    54.24186956
 H      1   2   3     1.088059831421   110.74352804   174.24018248
 H      1   2   3     1.087988587742   110.55699905   294.37921227
 H      2   1   3     1.095822469290   107.94245346   241.53977810
 H      3   2   1     1.091773347552   109.63652449   277.95169349
 H      3   2   1     1.092021052831   109.82267931    35.75471091
 H      4   3   2     1.092019496343   108.93659636    53.23170043
 H      4   3   2     1.091771663063   110.21338891   170.84804741
 H      5   4   3     1.095816443073   108.53098302   274.18387654
 H      6   5   4     1.091688937180   109.52186614   152.24053409
 H      6   5   4     1.091360745766   109.92132009   269.83746125
 H      7   6   5     1.091354539157   108.87119141    55.86596115
 H      7   6   5     1.091688305258   109.87878932   173.05508563
 H      8   5   4     1.088041039670   110.74273246   174.21345017
 H      8   5   4     1.088124364961   110.42773157    54.21367935
 H      8   5   4     1.088026957041   110.55519640   294.34956753

---------------------------
INTERNAL COORDINATES (A.U.)
---------------------------
 C      0   0   0     0.000000000000     0.00000000     0.00000000
 C      1   0   0     2.885545785217     0.00000000     0.00000000
 C      2   1   0     2.902101572670   110.36985868     0.00000000
 C      3   2   1     2.880623553462   110.74947566   156.11803547
 C      4   3   2     2.902112337910   110.74911719   292.34579979
 C      5   4   3     2.906749760622   110.34896496    32.57981568
 C      6   5   4     2.880871771965   111.30346595    30.54005088
 C      5   4   3     2.885554312891   110.36649190   156.08608447
 H      1   2   3     2.056262089945   110.42484837    54.24186956
 H      1   2   3     2.056135098706   110.74352804   174.24018248
 H      1   2   3     2.056000467664   110.55699905   294.37921227
 H      2   1   3     2.070804358355   107.94245346   241.53977810
 H      3   2   1     2.063152627189   109.63652449   277.95169349
 H      3   2   1     2.063620722326   109.82267931    35.75471091
 H      4   3   2     2.063617780991   108.93659636    53.23170043
 H      4   3   2     2.063149443965   110.21338891   170.84804741
 H      5   4   3     2.070792970456   108.53098302   274.18387654
 H      6   5   4     2.062993114702   109.52186614   152.24053409
 H      6   5   4     2.062372922811   109.92132009   269.83746125
 H      7   6   5     2.062361194018   108.87119141    55.86596115
 H      7   6   5     2.062991920543   109.87878932   173.05508563
 H      8   5   4     2.056099587443   110.74273246   174.21345017
 H      8   5   4     2.056257049424   110.42773157    54.21367935
 H      8   5   4     2.056072975132   110.55519640   294.34956753

---------------------
BASIS SET INFORMATION
---------------------
There are 2 groups of distinct atoms

 Group   1 Type C   : 7s4p1d contracted to 3s2p1d pattern {511/31/1}
 Group   2 Type H   : 4s contracted to 2s pattern {31}

Atom   0C    basis set group =>   1
Atom   1C    basis set group =>   1
Atom   2C    basis set group =>   1
Atom   3C    basis set group =>   1
Atom   4C    basis set group =>   1
Atom   5C    basis set group =>   1
Atom   6C    basis set group =>   1
Atom   7C    basis set group =>   1
Atom   8H    basis set group =>   2
Atom   9H    basis set group =>   2
Atom  10H    basis set group =>   2
Atom  11H    basis set group =>   2
Atom  12H    basis set group =>   2
Atom  13H    basis set group =>   2
Atom  14H    basis set group =>   2
Atom  15H    basis set group =>   2
Atom  16H    basis set group =>   2
Atom  17H    basis set group =>   2
Atom  18H    basis set group =>   2
Atom  19H    basis set group =>   2
Atom  20H    basis set group =>   2
Atom  21H    basis set group =>   2
Atom  22H    basis set group =>   2
Atom  23H    basis set group =>   2
---------------------------------
AUXILIARY/J BASIS SET INFORMATION
---------------------------------
There are 2 groups of distinct atoms

 Group   1 Type C   : 12s5p4d2f1g contracted to 6s4p3d1f1g pattern {711111/2111/211/2/1}
 Group   2 Type H   : 5s2p1d contracted to 3s1p1d pattern {311/2/1}

Atom   0C    basis set group =>   1
Atom   1C    basis set group =>   1
Atom   2C    basis set group =>   1
Atom   3C    basis set group =>   1
Atom   4C    basis set group =>   1
Atom   5C    basis set group =>   1
Atom   6C    basis set group =>   1
Atom   7C    basis set group =>   1
Atom   8H    basis set group =>   2
Atom   9H    basis set group =>   2
Atom  10H    basis set group =>   2
Atom  11H    basis set group =>   2
Atom  12H    basis set group =>   2
Atom  13H    basis set group =>   2
Atom  14H    basis set group =>   2
Atom  15H    basis set group =>   2
Atom  16H    basis set group =>   2
Atom  17H    basis set group =>   2
Atom  18H    basis set group =>   2
Atom  19H    basis set group =>   2
Atom  20H    basis set group =>   2
Atom  21H    basis set group =>   2
Atom  22H    basis set group =>   2
Atom  23H    basis set group =>   2
------------------------------------------------------------------------------
                             ORCA STARTUP CALCULATIONS
                           -- RI-GTO INTEGRALS CHOSEN --
------------------------------------------------------------------------------
------------------------------------------------------------------------------
                   ___                                                        
                  /   \      - P O W E R E D   B Y -                         
                 /     \                                                     
                 |  |  |   _    _      __       _____    __    __             
                 |  |  |  | |  | |    /  \     |  _  \  |  |  /  |          
                  \  \/   | |  | |   /    \    | | | |  |  | /  /          
                 / \  \   | |__| |  /  /\  \   | |_| |  |  |/  /          
                |  |  |   |  __  | /  /__\  \  |    /   |      \           
                |  |  |   | |  | | |   __   |  |    \   |  |\   \          
                \     /   | |  | | |  |  |  |  | |\  \  |  | \   \       
                 \___/    |_|  |_| |__|  |__|  |_| \__\ |__|  \__/        
                                                                              
                      - O R C A' S   B I G   F R I E N D -                    
                                      &                                       
                       - I N T E G R A L  F E E D E R -                       
                                                                              
 v1 FN, 2020, v2 2021, v3 2022-2024                                           
------------------------------------------------------------------------------


----------------------
SHARK INTEGRAL PACKAGE
----------------------

Number of atoms                             ...     24
Number of basis functions                   ...    144
Number of shells                            ...     80
Maximum angular momentum                    ...      2
Integral batch strategy                     ... SHARK/LIBINT Hybrid
RI-J (if used) integral strategy            ... SPLIT-RIJ (Revised 2003 algorithm where possible)
Printlevel                                  ...      1
Contraction scheme used                     ... SEGMENTED contraction
Prescreening option                         ... SCHWARTZ
   Thresh                                   ... 1.000e-09
   Tcut                                     ... 1.000e-10
   Tpresel                                  ... 1.000e-10 
Coulomb Range Separation                    ... NOT USED
Exchange Range Separation                   ... NOT USED
Multipole approximations                    ... NOT USED
Finite Nucleus Model                        ... NOT USED
CABS basis                                  ... NOT available
Auxiliary Coulomb fitting basis             ... AVAILABLE
   # of basis functions in Aux-J            ...    568
   # of shells in Aux-J                     ...    200
   Maximum angular momentum in Aux-J        ...      4
Auxiliary J/K fitting basis                 ... NOT available
Auxiliary Correlation fitting basis         ... NOT available
Auxiliary 'external' fitting basis          ... NOT available

Checking pre-screening integrals            ... done (  0.0 sec) Dimension = 80
Check shell pair data                       ... done (  0.0 sec)
Shell pair information
Shell pair cut-off parameter TPreSel        ...   1.0e-10
Total number of shell pairs                 ...      3240
Shell pairs after pre-screening             ...      3125
Total number of primitive shell pairs       ...     13032
Primitive shell pairs kept                  ...      9013
          la=0 lb=0:   1525 shell pairs
          la=1 lb=0:    878 shell pairs
          la=1 lb=1:    135 shell pairs
          la=2 lb=0:    426 shell pairs
          la=2 lb=1:    126 shell pairs
          la=2 lb=2:     35 shell pairs

Calculating one electron integrals          ... done (  0.0 sec)
Calculating RI/J V-Matrix + Cholesky decomp.... done (  0.0 sec)
Calculating Nuclear repulsion               ... done (  0.0 sec) ENN=    412.884846738333 Eh

Diagonalization of the overlap matrix:
Smallest eigenvalue                        ... 7.170e-04
Time for diagonalization                   ...    0.002 sec
Threshold for overlap eigenvalues          ... 1.000e-07
Number of eigenvalues below threshold      ... 0
Time for construction of square roots      ...    0.003 sec
Total time needed                          ...    0.006 sec

-------------------
DFT GRID GENERATION
-------------------

General Integration Accuracy     IntAcc      ... 4.159
Radial Grid Type                 RadialGrid  ... OptM3 with GC (2021)
Angular Grid (max. ang.)         AngularGrid ... 3 (Lebedev-194)
Angular grid pruning method      GridPruning ... 4 (adaptive)
Weight generation scheme         WeightScheme... mBecke (2022)
Basis function cutoff            BFCut       ... 1.0000e-10
Integration weight cutoff        WCut        ... 1.0000e-14
Partially contracted basis set               ... off
Rotationally invariant grid construction     ... off
Angular grids for H and He will be reduced by one unit

Total number of grid points                  ...    47831
Total number of batches                      ...      756
Average number of points per batch           ...       63
Average number of grid points per atom       ...     1993
Initializing property integral containers    ... done (  0.0 sec)

SHARK setup successfully completed in   0.5 seconds

Maximum memory used throughout the entire STARTUP-calculation: 23.0 MB
-------------------------------------------------------------------------------
                                 ORCA GUESS
                   Start orbitals & Density for SCF / CASSCF
-------------------------------------------------------------------------------

------------
SCF SETTINGS
------------
Hamiltonian:
 Density Functional     Method          .... DFT(GTOs)
 Exchange Functional    Exchange        .... PBE
   PBE kappa parameter   XKappa         ....  0.804000
   PBE mue parameter    XMuePBE         ....  0.219520
 Correlation Functional Correlation     .... PBE
   PBE beta parameter  CBetaPBE         ....  0.066725
 LDA part of GGA corr.  LDAOpt          .... PW91-LDA
 Gradients option       PostSCFGGA      .... off
   NL short-range parameter             ....  6.400000
 RI-approximation to the Coulomb term is turned on
   Number of AuxJ basis functions       .... 568


General Settings:
 Integral files         IntName         .... sp
 Hartree-Fock type      HFTyp           .... RHF
 Total Charge           Charge          ....    0
 Multiplicity           Mult            ....    1
 Number of Electrons    NEL             ....   64
 Basis Dimension        Dim             ....  144
 Nuclear Repulsion      ENuc            ....    412.8848467383 Eh

Convergence Acceleration:
 AO-DIIS                CNVDIIS         .... on
   Start iteration      DIISMaxIt       ....    12
   Startup error        DIISStart       ....  0.200000
   # of expansion vecs  DIISMaxEq       ....     5
   Bias factor          DIISBfac        ....   1.050
   Max. coefficient     DIISMaxC        ....  10.000
 MO-DIIS                CNVKDIIS        .... off
 Trust-Rad. Augm. Hess. CNVTRAH         .... auto
   Auto Start mean grad. ratio tolernc. ....  1.125000
   Auto Start start iteration           ....    50
   Auto Start num. interpolation iter.  ....    10
   Max. Number of Micro iterations      ....    24
   Max. Number of Macro iterations      .... Maxiter - #DIIS iter
   Number of Davidson start vectors     ....     2
   Converg. threshold    (grad. norm)   ....   1.000e-04
   Grad. Scal. Fac. for Micro threshold ....   0.100
   Minimum threshold for Micro iter.    ....   1.000e-02
   NR start threshold (gradient norm)   ....   1.000e-04
   Initial trust radius                 ....   0.400
   Minimum AH scaling param. (alpha)    ....   1.000
   Maximum AH scaling param. (alpha)    .... 1000.000
   Quad. conv. algorithm                .... NR
   White noise on init. David. guess    .... on
   Maximum white noise                  ....   0.010
   Pseudo random numbers                .... off
   Inactive MOs                         .... canonical
   Orbital update algorithm             .... Taylor
   Preconditioner                       .... Diag
   Full preconditioner red. dimension   ....   250
 SOSCF                  CNVSOSCF        .... on
   Start iteration      SOSCFMaxIt      ....   150
   Startup grad/error   SOSCFStart      ....  0.003300
   Hessian update       SOSCFHessUp     .... L-BFGS
 Level Shifting         CNVShift        .... on
   Level shift para.    LevelShift      ....    0.2500
   Turn off err/grad.   ShiftErr        ....    0.0010
 Zerner damping         CNVZerner       .... off
 Static damping         CNVDamp         .... on
   Fraction old density DampFac         ....    0.7000
   Max. Damping (<1)    DampMax         ....    0.9800
   Min. Damping (>=0)   DampMin         ....    0.0000
   Turn off err/grad.   DampErr         ....    0.1000

SCF Procedure:
 Maximum # iterations   MaxIter         ....   125
 SCF integral mode      SCFMode         .... Direct
   Integral package                     .... SHARK and LIBINT hybrid scheme
 Reset frequency        DirectResetFreq ....    20
 Integral Threshold     Thresh          ....  1.000e-09 Eh
 Primitive CutOff       TCut            ....  1.000e-10 Eh

Convergence Tolerance:
 Convergence Check Mode ConvCheckMode   .... Total+1el-Energy
 Convergence forced     ConvForced      .... 0
 Energy Change          TolE            ....  1.000e-05 Eh
 1-El. energy change                    ....  1.000e-02 Eh
 Orbital Gradient       TolG            ....  1.000e-04
 Orbital Rotation angle TolX            ....  1.000e-04
 DIIS Error             TolErr          ....  5.000e-04

------------------------------
INITIAL GUESS: MODEL POTENTIAL
------------------------------
Loading Hartree-Fock densities                     ... done
Calculating cut-offs                               ... done
Initializing the effective Hamiltonian             ... done
Setting up the integral package (SHARK)            ... done
Starting the Coulomb interaction                   ... done (   0.1 sec)
Making the grid                                    ... done (   0.2 sec)
Mapping shells                                     ... done
Starting the XC term evaluation                    ... done (   0.1 sec)
  promolecular density results
     # of electrons  =     63.991081597
     EX              =    -45.690501499
     EC              =     -2.106620924
     EX+EC           =    -47.797122423
Transforming the Hamiltonian                       ... done (   0.0 sec)
Diagonalizing the Hamiltonian                      ... done (   0.0 sec)
Back transforming the eigenvectors                 ... done (   0.0 sec)
Now organizing SCF variables                       ... done
                      ------------------
                      INITIAL GUESS DONE (   0.5 sec)
                      ------------------
             **** ENERGY FILE WAS UPDATED (sp.en.tmp) ****
Finished Guess after   0.6 sec
Maximum memory used throughout the entire GUESS-calculation: 17.8 MB

-------------------------------------------------------------------------------------------
                                      ORCA LEAN-SCF
                              memory conserving SCF solver
-------------------------------------------------------------------------------------------

----------------------------------------D-I-I-S--------------------------------------------
Iteration    Energy (Eh)           Delta-E    RMSDP     MaxDP     DIISErr   Damp  Time(sec)
-------------------------------------------------------------------------------------------
               ***  Starting incremental Fock matrix formation  ***
    1    -313.5322398417584964     0.00e+00  4.55e-03  8.27e-02  1.59e-01  0.700   0.8
    2    -313.6547261655238117    -1.22e-01  3.26e-03  4.77e-02  7.50e-02  0.700   0.8
                               ***Turning on AO-DIIS***
    3    -313.6959155958215888    -4.12e-02  1.37e-03  1.38e-02  2.03e-02  0.700   0.6
    4    -313.7200480251633508    -2.41e-02  2.16e-03  2.18e-02  7.73e-03  0.000   0.6
    5    -313.7759577691630284    -5.59e-02  5.97e-04  6.20e-03  8.15e-03  0.000   0.6
                              *** Initializing SOSCF ***
---------------------------------------S-O-S-C-F--------------------------------------
Iteration    Energy (Eh)           Delta-E    RMSDP     MaxDP     MaxGrad    Time(sec)
--------------------------------------------------------------------------------------
    6    -313.7767713197024477    -8.14e-04  2.19e-04  2.21e-03  2.18e-03     0.5
               *** Restarting incremental Fock matrix formation ***
    7    -313.7768338989299082    -6.26e-05  1.63e-04  1.49e-03  3.54e-04     0.6
    8    -313.7768326076846961     1.29e-06  5.14e-05  6.93e-04  3.09e-04     0.7
                 **** Energy Check signals convergence ****

               *****************************************************
               *                     SUCCESS                       *
               *           SCF CONVERGED AFTER   8 CYCLES          *
               *****************************************************

             **** ENERGY FILE WAS UPDATED (sp.en.tmp) ****

----------------
TOTAL SCF ENERGY
----------------

Total Energy       :       -313.77683260768470 Eh           -8538.30169 eV

Components:
Nuclear Repulsion  :        412.88484673833341 Eh           11235.16786 eV
Electronic Energy  :       -726.66167934601810 Eh          -19773.46956 eV
One Electron Energy:      -1240.09243152795875 Eh          -33744.63061 eV
Two Electron Energy:        513.43075218194065 Eh           13971.16105 eV

Virial components:
Potential Energy   :       -624.48843730397130 Eh          -16993.19430 eV
Kinetic Energy     :        310.71160469628660 Eh            8454.89260 eV
Virial Ratio       :          2.00986518644643

DFT components:
N(Alpha)           :       32.000425346779 electrons
N(Beta)            :       32.000425346779 electrons
N(Total)           :       64.000850693558 electrons
E(X)               :      -46.878164652444 Eh       
E(C)               :       -2.109416304228 Eh       
E(XC)              :      -48.987580956673 Eh       

---------------
SCF CONVERGENCE
---------------

  Last Energy change         ...   -1.2912e-06  Tolerance :   1.0000e-05
  Last MAX-Density change    ...    6.9319e-04  Tolerance :   1.0000e-03
  Last RMS-Density change    ...    5.1394e-05  Tolerance :   1.0000e-04
  Last DIIS Error            ...    2.1810e-03  Tolerance :   5.0000e-04
  Last Orbital Gradient      ...    3.0895e-04  Tolerance :   1.0000e-04
  Last Orbital Rotation      ...    2.7645e-04  Tolerance :   1.0000e-04


----------------
ORBITAL ENERGIES
----------------

  NO   OCC          E(Eh)            E(eV) 
   0   2.0000      -9.886542      -269.0265 
   1   2.0000      -9.886516      -269.0258 
   2   2.0000      -9.874907      -268.7099 
   3   2.0000      -9.874871      -268.7089 
   4   2.0000      -9.874764      -268.7060 
   5   2.0000      -9.874730      -268.7051 
   6   2.0000      -9.868801      -268.5437 
   7   2.0000      -9.868793      -268.5435 
   8   2.0000      -0.757351       -20.6086 
   9   2.0000      -0.696107       -18.9420 
  10   2.0000      -0.658133       -17.9087 
  11   2.0000      -0.626588       -17.0503 
  12   2.0000      -0.573731       -15.6120 
  13   2.0000      -0.547731       -14.9045 
  14   2.0000      -0.505173       -13.7465 
  15   2.0000      -0.458231       -12.4691 
  16   2.0000      -0.430901       -11.7254 
  17   2.0000      -0.430831       -11.7235 
  18   2.0000      -0.386388       -10.5141 
  19   2.0000      -0.369253       -10.0479 
  20   2.0000      -0.366671        -9.9776 
  21   2.0000      -0.356660        -9.7052 
  22   2.0000      -0.335279        -9.1234 
  23   2.0000      -0.332117        -9.0373 
  24   2.0000      -0.324374        -8.8267 
  25   2.0000      -0.310156        -8.4398 
  26   2.0000      -0.298120        -8.1123 
  27   2.0000      -0.289418        -7.8755 
  28   2.0000      -0.288856        -7.8602 
  29   2.0000      -0.254309        -6.9201 
  30   2.0000      -0.251344        -6.8394 
  31   2.0000      -0.251326        -6.8389 
  32   0.0000       0.029475         0.8021 
  33   0.0000       0.045044         1.2257 
  34   0.0000       0.057899         1.5755 
  35   0.0000       0.075008         2.0411 
  36   0.0000       0.092693         2.5223 
  37   0.0000       0.094411         2.5691 
  38   0.0000       0.096204         2.6178 
  39   0.0000       0.111655         3.0383 
  40   0.0000       0.117781         3.2050 
  41   0.0000       0.122588         3.3358 
  42   0.0000       0.127767         3.4767 
*Only the first 10 virtual orbitals were printed.

                    ********************************
                    * MULLIKEN POPULATION ANALYSIS *
                    ********************************

-----------------------
MULLIKEN ATOMIC CHARGES
-----------------------
   0 C :   -0.242308
   1 C :   -0.180974
   2 C :   -0.109853
   3 C :   -0.109838
   4 C :   -0.180947
   5 C :   -0.117735
   6 C :   -0.117772
   7 C :   -0.242351
   8 H :    0.097692
   9 H :    0.097039
  10 H :    0.095054
  11 H :    0.063990
  12 H :    0.079421
  13 H :    0.066067
  14 H :    0.066066
  15 H :    0.079425
  16 H :    0.063988
  17 H :    0.076968
  18 H :    0.074646
  19 H :    0.074652
  20 H :    0.076966
  21 H :    0.097031
  22 H :    0.097706
  23 H :    0.095067
Sum of atomic charges:   -0.0000000

--------------------------------
MULLIKEN REDUCED ORBITAL CHARGES
--------------------------------
  0 C s       :     3.073715  s :     3.073715
      pz      :     1.052895  p :     3.139193
      px      :     1.032107
      py      :     1.054192
      dz2     :     0.007684  d :     0.029400
      dxz     :     0.004673
      dyz     :     0.004695
      dx2y2   :     0.002627
      dxy     :     0.009721

  1 C s       :     3.103082  s :     3.103082
      pz      :     1.026950  p :     3.035149
      px      :     1.012058
      py      :     0.996141
      dz2     :     0.010085  d :     0.042743
      dxz     :     0.007580
      dyz     :     0.006585
      dx2y2   :     0.008586
      dxy     :     0.009907

  2 C s       :     2.995675  s :     2.995675
      pz      :     1.038015  p :     3.077983
      px      :     1.012235
      py      :     1.027733
      dz2     :     0.011231  d :     0.036195
      dxz     :     0.005040
      dyz     :     0.003528
      dx2y2   :     0.007478
      dxy     :     0.008918

  3 C s       :     2.995662  s :     2.995662
      pz      :     1.037997  p :     3.077982
      px      :     1.012223
      py      :     1.027762
      dz2     :     0.011229  d :     0.036194
      dxz     :     0.005040
      dyz     :     0.003530
      dx2y2   :     0.007478
      dxy     :     0.008918

  4 C s       :     3.103080  s :     3.103080
      pz      :     1.026946  p :     3.035123
      px      :     1.012045
      py      :     0.996132
      dz2     :     0.010082  d :     0.042743
      dxz     :     0.007586
      dyz     :     0.006583
      dx2y2   :     0.008585
      dxy     :     0.009907

  5 C s       :     2.990317  s :     2.990317
      pz      :     1.052641  p :     3.091452
      px      :     1.012081
      py      :     1.026730
      dz2     :     0.008849  d :     0.035965
      dxz     :     0.009053
      dyz     :     0.003185
      dx2y2   :     0.005525
      dxy     :     0.009353

  6 C s       :     2.990329  s :     2.990329
      pz      :     1.052639  p :     3.091478
      px      :     1.012095
      py      :     1.026744
      dz2     :     0.008849  d :     0.035965
      dxz     :     0.009052
      dyz     :     0.003186
      dx2y2   :     0.005525
      dxy     :     0.009353

  7 C s       :     3.073744  s :     3.073744
      pz      :     1.052892  p :     3.139207
      px      :     1.032119
      py      :     1.054197
      dz2     :     0.007679  d :     0.029400
      dxz     :     0.004678
      dyz     :     0.004697
      dx2y2   :     0.002624
      dxy     :     0.009722

  8 H s       :     0.902308  s :     0.902308

  9 H s       :     0.902961  s :     0.902961

 10 H s       :     0.904946  s :     0.904946

 11 H s       :     0.936010  s :     0.936010

 12 H s       :     0.920579  s :     0.920579

 13 H s       :     0.933933  s :     0.933933

 14 H s       :     0.933934  s :     0.933934

 15 H s       :     0.920575  s :     0.920575

 16 H s       :     0.936012  s :     0.936012

 17 H s       :     0.923032  s :     0.923032

 18 H s       :     0.925354  s :     0.925354

 19 H s       :     0.925348  s :     0.925348

 20 H s       :     0.923034  s :     0.923034

 21 H s       :     0.902969  s :     0.902969

 22 H s       :     0.902294  s :     0.902294

 23 H s       :     0.904933  s :     0.904933


------------------------
MULLIKEN OVERLAP CHARGES
------------------------
B(  0-C ,  1-C ) :   0.8637 B(  0-C ,  2-C ) :  -0.1211 B(  0-C ,  6-C ) :  -0.0919 
B(  0-C ,  8-H ) :   0.7282 B(  0-C ,  9-H ) :   0.7216 B(  0-C , 10-H ) :   0.7477 
B(  0-C , 11-H ) :  -0.0576 B(  1-C ,  2-C ) :   0.7528 B(  1-C ,  4-C ) :  -0.1243 
B(  1-C ,  6-C ) :   0.7416 B(  1-C , 10-H ) :  -0.0516 B(  1-C , 11-H ) :   0.6449 
B(  1-C , 20-H ) :  -0.0591 B(  2-C ,  3-C ) :   0.7796 B(  2-C ,  6-C ) :  -0.1166 
B(  2-C , 12-H ) :   0.6493 B(  2-C , 13-H ) :   0.6613 B(  3-C ,  4-C ) :   0.7526 
B(  3-C ,  5-C ) :  -0.1166 B(  3-C ,  7-C ) :  -0.1211 B(  3-C , 14-H ) :   0.6614 
B(  3-C , 15-H ) :   0.6493 B(  4-C ,  5-C ) :   0.7418 B(  4-C ,  7-C ) :   0.8637 
B(  4-C , 16-H ) :   0.6449 B(  4-C , 17-H ) :  -0.0591 B(  4-C , 23-H ) :  -0.0517 
B(  5-C ,  6-C ) :   0.8523 B(  5-C ,  7-C ) :  -0.0919 B(  5-C , 16-H ) :  -0.0546 
B(  5-C , 17-H ) :   0.6804 B(  5-C , 18-H ) :   0.6392 B(  6-C , 11-H ) :  -0.0546 
B(  6-C , 19-H ) :   0.6392 B(  6-C , 20-H ) :   0.6803 B(  7-C , 16-H ) :  -0.0576 
B(  7-C , 21-H ) :   0.7216 B(  7-C , 22-H ) :   0.7282 B(  7-C , 23-H ) :   0.7477 
B(  8-H , 10-H ) :  -0.0506 B(  9-H , 10-H ) :  -0.0507 B( 12-H , 13-H ) :  -0.0660 
B( 14-H , 15-H ) :  -0.0660 B( 17-H , 18-H ) :  -0.0608 B( 19-H , 20-H ) :  -0.0608 
B( 21-H , 23-H ) :  -0.0506 B( 22-H , 23-H ) :  -0.0506 


                     *******************************
                     * LOEWDIN POPULATION ANALYSIS *
                     *******************************

----------------------
LOEWDIN ATOMIC CHARGES
----------------------
   0 C :   -0.329295
   1 C :   -0.151656
   2 C :   -0.219235
   3 C :   -0.219236
   4 C :   -0.151655
   5 C :   -0.219675
   6 C :   -0.219680
   7 C :   -0.329297
   8 H :    0.116857
   9 H :    0.115537
  10 H :    0.114581
  11 H :    0.113596
  12 H :    0.116697
  13 H :    0.113341
  14 H :    0.113341
  15 H :    0.116702
  16 H :    0.113597
  17 H :    0.115973
  18 H :    0.113279
  19 H :    0.113279
  20 H :    0.115974
  21 H :    0.115537
  22 H :    0.116860
  23 H :    0.114579

-------------------------------
LOEWDIN REDUCED ORBITAL CHARGES
-------------------------------
  0 C s       :     2.947908  s :     2.947908
      pz      :     1.112916  p :     3.309861
      px      :     1.081624
      py      :     1.115321
      dz2     :     0.017521  d :     0.071525
      dxz     :     0.012593
      dyz     :     0.011317
      dx2y2   :     0.006922
      dxy     :     0.023172

  1 C s       :     2.876368  s :     2.876368
      pz      :     1.076623  p :     3.171419
      px      :     1.043618
      py      :     1.051179
      dz2     :     0.023059  d :     0.103869
      dxz     :     0.019189
      dyz     :     0.015439
      dx2y2   :     0.019113
      dxy     :     0.027069

  2 C s       :     2.907200  s :     2.907200
      pz      :     1.093341  p :     3.224005
      px      :     1.057245
      py      :     1.073419
      dz2     :     0.027186  d :     0.088030
      dxz     :     0.011131
      dyz     :     0.008858
      dx2y2   :     0.019764
      dxy     :     0.021092

  3 C s       :     2.907200  s :     2.907200
      pz      :     1.093348  p :     3.224007
      px      :     1.057247
      py      :     1.073411
      dz2     :     0.027183  d :     0.088029
      dxz     :     0.011129
      dyz     :     0.008860
      dx2y2   :     0.019764
      dxy     :     0.021093

  4 C s       :     2.876368  s :     2.876368
      pz      :     1.076624  p :     3.171419
      px      :     1.043618
      py      :     1.051177
      dz2     :     0.023052  d :     0.103868
      dxz     :     0.019207
      dyz     :     0.015432
      dx2y2   :     0.019107
      dxy     :     0.027071

  5 C s       :     2.905854  s :     2.905854
      pz      :     1.087883  p :     3.226291
      px      :     1.064657
      py      :     1.073751
      dz2     :     0.021223  d :     0.087530
      dxz     :     0.023647
      dyz     :     0.005932
      dx2y2   :     0.012308
      dxy     :     0.024420

  6 C s       :     2.905853  s :     2.905853
      pz      :     1.087889  p :     3.226298
      px      :     1.064666
      py      :     1.073744
      dz2     :     0.021222  d :     0.087528
      dxz     :     0.023644
      dyz     :     0.005933
      dx2y2   :     0.012307
      dxy     :     0.024422

  7 C s       :     2.947911  s :     2.947911
      pz      :     1.112898  p :     3.309862
      px      :     1.081643
      py      :     1.115321
      dz2     :     0.017507  d :     0.071525
      dxz     :     0.012607
      dyz     :     0.011322
      dx2y2   :     0.006915
      dxy     :     0.023173

  8 H s       :     0.883143  s :     0.883143

  9 H s       :     0.884463  s :     0.884463

 10 H s       :     0.885419  s :     0.885419

 11 H s       :     0.886404  s :     0.886404

 12 H s       :     0.883303  s :     0.883303

 13 H s       :     0.886659  s :     0.886659

 14 H s       :     0.886659  s :     0.886659

 15 H s       :     0.883298  s :     0.883298

 16 H s       :     0.886403  s :     0.886403

 17 H s       :     0.884027  s :     0.884027

 18 H s       :     0.886721  s :     0.886721

 19 H s       :     0.886721  s :     0.886721

 20 H s       :     0.884026  s :     0.884026

 21 H s       :     0.884463  s :     0.884463

 22 H s       :     0.883140  s :     0.883140

 23 H s       :     0.885421  s :     0.885421


---------------------------------
LOEWDIN BOND ORDERS (THRESH 0.050000)
---------------------------------
B(  0-C ,  1-C ) :   1.0983 B(  0-C ,  2-C ) :   0.0569 B(  0-C ,  6-C ) :   0.0538 
B(  0-C ,  8-H ) :   0.9361 B(  0-C ,  9-H ) :   0.9356 B(  0-C , 10-H ) :   0.9355 
B(  1-C ,  2-C ) :   1.0529 B(  1-C ,  3-C ) :   0.0521 B(  1-C ,  6-C ) :   1.0510 
B(  1-C , 11-H ) :   0.8771 B(  2-C ,  3-C ) :   1.0905 B(  2-C ,  4-C ) :   0.0520 
B(  2-C , 12-H ) :   0.9044 B(  2-C , 13-H ) :   0.8984 B(  3-C ,  4-C ) :   1.0529 
B(  3-C ,  7-C ) :   0.0569 B(  3-C , 14-H ) :   0.8984 B(  3-C , 15-H ) :   0.9044 
B(  4-C ,  5-C ) :   1.0510 B(  4-C ,  7-C ) :   1.0983 B(  4-C , 16-H ) :   0.8771 
B(  5-C ,  6-C ) :   1.0924 B(  5-C ,  7-C ) :   0.0538 B(  5-C , 17-H ) :   0.9017 
B(  5-C , 18-H ) :   0.9006 B(  6-C , 19-H ) :   0.9006 B(  6-C , 20-H ) :   0.9017 
B(  7-C , 21-H ) :   0.9356 B(  7-C , 22-H ) :   0.9361 B(  7-C , 23-H ) :   0.9355 


------------------------------------------
LOEWDIN REDUCED ORBITAL POPULATIONS PER MO
-------------------------------------------
THRESHOLD FOR PRINTING IS 0.1%%
                      0         1         2         3         4         5   
                  -9.88654  -9.88652  -9.87491  -9.87487  -9.87476  -9.87473
                   2.00000   2.00000   2.00000   2.00000   2.00000   2.00000
                  --------  --------  --------  --------  --------  --------
 1 C  s              49.1      50.5       0.0       0.0       0.0       0.0
 2 C  s               0.0       0.0      47.0      48.9       3.6       0.1
 3 C  s               0.0       0.0      45.6      50.4       3.4       0.2
 4 C  s              50.5      49.1       0.0       0.0       0.0       0.0
 5 C  s               0.0       0.0       3.6       0.1      51.3      44.6
 6 C  s               0.0       0.0       3.4       0.2      41.4      54.7

                      6         7         8         9        10        11   
                  -9.86880  -9.86879  -0.75735  -0.69611  -0.65813  -0.62659
                   2.00000   2.00000   2.00000   2.00000   2.00000   2.00000
                  --------  --------  --------  --------  --------  --------
 0 C  s              36.0      63.7       2.8      10.4       0.1      17.4
 0 C  pz              0.0       0.0       0.2       0.4       0.0       0.0
 0 C  px              0.0       0.0       1.0       1.1       0.0       0.0
 0 C  py              0.0       0.0       0.1       0.1       0.2       0.0
 1 C  s               0.0       0.0      11.3      14.6       0.0       1.4
 1 C  pz              0.0       0.0       0.4       0.3       0.3       0.3
 1 C  px              0.0       0.0       0.9       0.5       0.0       7.1
 1 C  py              0.0       0.0       0.0       0.0       6.4       0.0
 1 C  dxy             0.0       0.0       0.0       0.0       0.2       0.0
 2 C  s               0.0       0.0       9.8       2.5      14.1       1.8
 2 C  pz              0.0       0.0       0.3       0.2       0.0       0.0
 2 C  px              0.0       0.0       0.3       2.5       1.4       1.6
 2 C  py              0.0       0.0       1.2       0.8       0.4       0.1
 3 C  s               0.0       0.0       9.8       2.5      14.1       1.8
 3 C  pz              0.0       0.0       0.3       0.2       0.0       0.0
 3 C  px              0.0       0.0       0.3       2.5       1.4       1.6
 3 C  py              0.0       0.0       1.2       0.9       0.4       0.1
 4 C  s               0.0       0.0      11.3      14.6       0.0       1.4
 4 C  pz              0.0       0.0       0.4       0.3       0.3       0.3
 4 C  px              0.0       0.0       0.9       0.5       0.0       7.1
 4 C  py              0.0       0.0       0.0       0.0       6.4       0.0
 4 C  dxy             0.0       0.0       0.0       0.0       0.2       0.0
 5 C  s               0.0       0.0       9.8       2.2      12.8       3.3
 5 C  pz              0.0       0.0       0.7       0.1       0.6       0.2
 5 C  px              0.0       0.0       0.0       2.5       0.6       1.3
 5 C  py              0.0       0.0       1.2       0.8       0.5       0.1
 6 C  s               0.0       0.0       9.8       2.2      12.8       3.3
 6 C  pz              0.0       0.0       0.7       0.1       0.6       0.2
 6 C  px              0.0       0.0       0.0       2.5       0.6       1.3
 6 C  py              0.0       0.0       1.2       0.8       0.5       0.1
 7 C  s              63.7      36.0       2.8      10.4       0.1      17.4
 7 C  pz              0.0       0.0       0.2       0.4       0.0       0.0
 7 C  px              0.0       0.0       1.0       1.1       0.0       0.0
 7 C  py              0.0       0.0       0.1       0.1       0.2       0.0
 8 H  s               0.0       0.0       0.5       2.0       0.0       4.4
 9 H  s               0.0       0.0       0.5       2.0       0.1       4.3
10 H  s               0.0       0.0       0.6       2.1       0.0       4.0
11 H  s               0.0       0.0       1.8       2.9       0.0       0.4
12 H  s               0.0       0.0       1.5       0.5       3.4       0.3
13 H  s               0.0       0.0       1.9       0.5       2.9       0.3
14 H  s               0.0       0.0       1.9       0.5       2.9       0.3
15 H  s               0.0       0.0       1.5       0.5       3.4       0.3
16 H  s               0.0       0.0       1.8       2.9       0.0       0.4
17 H  s               0.0       0.0       1.5       0.6       3.2       0.5
18 H  s               0.0       0.0       1.8       0.3       2.7       0.9
19 H  s               0.0       0.0       1.8       0.3       2.7       0.9
20 H  s               0.0       0.0       1.5       0.6       3.2       0.5
21 H  s               0.0       0.0       0.5       2.0       0.1       4.3
22 H  s               0.0       0.0       0.5       2.0       0.0       4.4
23 H  s               0.0       0.0       0.6       2.1       0.0       4.0

                     12        13        14        15        16        17   
                  -0.57373  -0.54773  -0.50517  -0.45823  -0.43090  -0.43083
                   2.00000   2.00000   2.00000   2.00000   2.00000   2.00000
                  --------  --------  --------  --------  --------  --------
 0 C  s              11.3       1.0       2.5       0.0       0.5       0.1
 0 C  pz              0.6       0.0       2.4       1.9       0.0       3.7
 0 C  px              1.4       0.2       2.3       0.0       6.0       0.1
 0 C  py              0.0       0.9       0.4       0.5       0.9       0.0
 1 C  s               2.8       0.1       8.3       2.6       1.0       0.1
 1 C  pz              1.9       1.4       2.7       3.5       2.3       6.0
 1 C  px              4.4       0.0       0.0       0.8       0.0       4.7
 1 C  py              0.0       7.4       0.1       1.8       3.4       0.0
 2 C  s               1.0      10.0       1.6       2.0       0.5       0.1
 2 C  pz              0.6       0.8       0.8      10.0       1.2       0.5
 2 C  px              0.6       4.8       1.3       0.1       0.8       0.5
 2 C  py              0.1       0.0       4.0       0.5       2.0      10.3
 3 C  s               1.0      10.0       1.6       2.0       0.5       0.1
 3 C  pz              0.6       0.8       0.8      10.0       1.1       0.5
 3 C  px              0.6       4.8       1.3       0.1       0.8       0.5
 3 C  py              0.1       0.0       4.0       0.5       1.7      10.5
 4 C  s               2.8       0.1       8.3       2.6       1.1       0.1
 4 C  pz              1.9       1.4       2.7       3.5       2.1       6.2
 4 C  px              4.4       0.0       0.0       0.8       0.0       4.7
 4 C  py              0.0       7.4       0.1       1.8       3.4       0.0
 5 C  s               5.0       4.9       1.0       3.9       0.2       0.2
 5 C  pz              2.2       2.2       0.6       1.0       9.1       1.8
 5 C  px              0.9       0.7       1.9       0.5       8.2       1.3
 5 C  py              0.2       0.1       5.1       2.1       0.1       6.9
 6 C  s               5.0       4.9       1.0       3.9       0.2       0.2
 6 C  pz              2.2       2.2       0.6       1.0       9.3       1.6
 6 C  px              0.9       0.7       1.9       0.5       8.0       1.5
 6 C  py              0.2       0.1       5.1       2.1       0.1       6.9
 7 C  s              11.3       1.0       2.5       0.0       0.6       0.1
 7 C  pz              0.7       0.0       2.4       1.9       0.0       3.7
 7 C  px              1.4       0.2       2.3       0.0       5.9       0.1
 7 C  py              0.0       0.9       0.4       0.5       0.9       0.0
 8 H  s               3.9       0.1       1.4       0.0       3.0       0.0
 9 H  s               3.6       0.9       1.4       0.0       0.6       0.2
10 H  s               3.9       0.2       2.3       0.8       0.0       1.6
11 H  s               1.3       0.0       5.3       4.8       0.3       3.5
12 H  s               0.4       4.2       1.3       0.5       2.4       4.1
13 H  s               0.0       4.6       1.1       6.4       0.1       0.1
14 H  s               0.0       4.6       1.1       6.4       0.1       0.1
15 H  s               0.4       4.2       1.3       0.5       2.2       4.3
16 H  s               1.3       0.0       5.3       4.8       0.2       3.5
17 H  s               1.2       2.4       1.4       4.0       0.2       3.4
18 H  s               2.3       2.5       0.4       1.7       7.2       0.2
19 H  s               2.3       2.5       0.4       1.7       7.2       0.2
20 H  s               1.2       2.4       1.4       4.0       0.1       3.4
21 H  s               3.6       0.9       1.4       0.0       0.5       0.2
22 H  s               3.9       0.1       1.4       0.0       3.0       0.0
23 H  s               3.9       0.2       2.3       0.8       0.0       1.6

                     18        19        20        21        22        23   
                  -0.38639  -0.36925  -0.36667  -0.35666  -0.33528  -0.33212
                   2.00000   2.00000   2.00000   2.00000   2.00000   2.00000
                  --------  --------  --------  --------  --------  --------
 0 C  s               0.2       0.0       0.0       0.0       0.0       0.0
 0 C  pz              0.6       0.0      15.1       0.8      13.3       0.5
 0 C  px              4.9      10.4       0.6       1.6       1.3       0.3
 0 C  py              8.5       8.8       0.0      11.9       0.1      11.7
 0 C  dz2             0.0       0.0       0.0       0.0       0.2       0.1
 0 C  dxy             0.0       0.1       0.0       0.1       0.0       0.1
 1 C  s               0.2       0.2       0.0       0.7       0.0       0.3
 1 C  pz              4.8       2.4       2.1       0.8       1.8       0.5
 1 C  px              2.0       0.5       5.8       0.3       0.4       1.0
 1 C  py              2.3       4.5       0.6       0.0       0.1       0.2
 1 C  dz2             0.0       0.0       0.0       0.1       0.1       0.0
 1 C  dx2y2           0.0       0.0       0.0       0.1       0.0       0.0
 2 C  s               0.0       0.1       0.0       0.8       0.2       0.1
 2 C  pz              0.7       0.8       9.5       4.1       0.0       1.8
 2 C  px             11.7       0.0       0.4       0.6       1.1       0.2
 2 C  py              0.1       0.3       0.3       4.5       2.3       0.5
 2 C  dxy             0.0       0.0       0.0       0.2       0.0       0.0
 3 C  s               0.0       0.1       0.0       0.8       0.2       0.1
 3 C  pz              0.7       0.8       9.5       4.1       0.0       1.8
 3 C  px             11.7       0.0       0.4       0.6       1.1       0.2
 3 C  py              0.1       0.3       0.3       4.5       2.3       0.5
 3 C  dxy             0.0       0.0       0.0       0.2       0.0       0.0
 4 C  s               0.2       0.2       0.0       0.7       0.0       0.3
 4 C  pz              4.8       2.4       2.1       0.8       1.8       0.5
 4 C  px              2.1       0.5       5.8       0.3       0.4       1.0
 4 C  py              2.3       4.5       0.6       0.0       0.1       0.2
 4 C  dz2             0.0       0.0       0.0       0.1       0.1       0.0
 4 C  dx2y2           0.0       0.0       0.0       0.1       0.0       0.0
 5 C  s               0.0       0.3       0.2       0.0       0.0       0.3
 5 C  pz              1.4       0.4       0.0       1.6       8.5       1.6
 5 C  px              0.5       5.8       0.0       2.0       0.1       3.6
 5 C  py              3.4       0.3       0.2       0.6       1.4       5.8
 5 C  dz2             0.0       0.2       0.0       0.0       0.1       0.0
 5 C  dxz             0.0       0.0       0.0       0.0       0.1       0.0
 5 C  dxy             0.0       0.0       0.0       0.1       0.0       0.3
 6 C  s               0.0       0.3       0.2       0.0       0.0       0.3
 6 C  pz              1.4       0.4       0.0       1.6       8.5       1.6
 6 C  px              0.5       5.8       0.0       2.0       0.1       3.6
 6 C  py              3.4       0.3       0.2       0.6       1.4       5.7
 6 C  dz2             0.0       0.2       0.0       0.0       0.1       0.0
 6 C  dxz             0.0       0.0       0.0       0.0       0.1       0.0
 6 C  dxy             0.0       0.0       0.0       0.1       0.0       0.3
 7 C  s               0.2       0.0       0.0       0.0       0.0       0.0
 7 C  pz              0.6       0.0      15.1       0.8      13.3       0.6
 7 C  px              4.9      10.4       0.6       1.5       1.3       0.3
 7 C  py              8.5       8.8       0.0      11.9       0.1      11.8
 7 C  dz2             0.0       0.0       0.0       0.0       0.2       0.1
 7 C  dxy             0.0       0.1       0.0       0.1       0.0       0.1
 8 H  s               0.3       9.3       0.0       2.0       0.2       5.7
 9 H  s               6.5       0.1       2.1       6.3       2.6       2.0
10 H  s               0.0       0.7       6.9       0.0       8.4       2.3
11 H  s               0.3       1.0       1.7       0.0       0.8       0.4
12 H  s               0.3       0.0       0.2       6.8       1.1       0.7
13 H  s               0.4       0.4       3.6       0.7       0.1       1.2
14 H  s               0.4       0.4       3.6       0.7       0.1       1.2
15 H  s               0.3       0.0       0.2       6.8       1.1       0.7
16 H  s               0.3       1.0       1.7       0.0       0.8       0.4
17 H  s               0.5       1.0       0.0       1.5       0.6       7.1
18 H  s               0.1       1.9       0.0       1.5       4.6       1.2
19 H  s               0.1       1.9       0.0       1.5       4.6       1.2
20 H  s               0.5       1.0       0.0       1.5       0.6       7.1
21 H  s               6.5       0.1       2.1       6.3       2.7       2.0
22 H  s               0.3       9.3       0.0       2.0       0.2       5.7
23 H  s               0.0       0.7       6.9       0.0       8.3       2.4

                     24        25        26        27        28        29   
                  -0.32437  -0.31016  -0.29812  -0.28942  -0.28886  -0.25431
                   2.00000   2.00000   2.00000   2.00000   2.00000   2.00000
                  --------  --------  --------  --------  --------  --------
 0 C  s               0.0       0.0       0.3       0.1       0.1       0.6
 0 C  pz              0.6       4.3       0.3       0.1       7.7       2.1
 0 C  px              0.0       0.1      15.4       0.2       0.0       6.3
 0 C  py              0.2       0.4       0.3       9.2       0.1       0.1
 0 C  dz2             0.0       0.0       0.1       0.0       0.2       0.0
 0 C  dxy             0.0       0.0       0.1       0.4       0.1       0.0
 1 C  s               0.0       0.2       0.0       0.0       0.2       0.0
 1 C  pz              0.2       0.2       1.3       0.1      12.9       1.4
 1 C  px              0.0       0.3      13.0       0.0       0.8       6.8
 1 C  py              1.0       3.0       0.1       8.7       0.1       0.1
 1 C  dz2             0.0       0.0       0.0       0.0       0.3       0.0
 1 C  dxz             0.0       0.0       0.1       0.1       0.0       0.1
 1 C  dx2y2           0.0       0.0       0.0       0.0       0.0       0.3
 1 C  dxy             0.1       0.1       0.1       0.1       0.1       0.1
 2 C  s               0.3       0.1       0.2       0.0       0.2       0.1
 2 C  pz              0.8      14.1       0.4       0.1       1.8       1.4
 2 C  px              2.9       1.5       0.2       8.4       0.3       8.0
 2 C  py              9.1       0.1       1.8       2.2       3.0       0.0
 2 C  dz2             0.1       0.3       0.1       0.1       0.1       0.1
 2 C  dxz             0.0       0.1       0.0       0.1       0.0       0.0
 2 C  dx2y2           0.2       0.0       0.0       0.0       0.0       0.2
 2 C  dxy             0.0       0.0       0.0       0.0       0.1       0.0
 3 C  s               0.3       0.1       0.2       0.0       0.2       0.1
 3 C  pz              0.8      14.1       0.4       0.1       1.8       1.4
 3 C  px              2.9       1.5       0.2       8.4       0.3       8.0
 3 C  py              9.1       0.1       1.8       2.2       3.0       0.0
 3 C  dz2             0.1       0.3       0.1       0.1       0.1       0.1
 3 C  dxz             0.0       0.1       0.0       0.1       0.0       0.0
 3 C  dx2y2           0.1       0.0       0.0       0.0       0.0       0.2
 3 C  dxy             0.0       0.0       0.0       0.0       0.1       0.0
 4 C  s               0.0       0.2       0.0       0.0       0.2       0.0
 4 C  pz              0.2       0.2       1.3       0.1      12.9       1.4
 4 C  px              0.0       0.3      13.0       0.0       0.8       6.8
 4 C  py              1.0       3.0       0.1       8.7       0.1       0.1
 4 C  dz2             0.0       0.0       0.0       0.0       0.3       0.0
 4 C  dxz             0.0       0.0       0.1       0.1       0.0       0.1
 4 C  dx2y2           0.0       0.0       0.0       0.0       0.0       0.3
 4 C  dxy             0.1       0.1       0.1       0.1       0.1       0.1
 5 C  s               0.6       0.0       0.2       0.1       0.1       0.1
 5 C  pz              6.7       4.1       1.2       0.0       0.1       2.0
 5 C  px              3.7       0.0       2.2       6.1       0.9       7.0
 5 C  py              7.9       2.6       3.4       1.1       0.4       0.2
 5 C  dz2             0.0       0.1       0.0       0.1       0.0       0.4
 5 C  dxz             0.1       0.1       0.0       0.0       0.1       0.1
 5 C  dx2y2           0.1       0.0       0.1       0.0       0.0       0.1
 6 C  s               0.6       0.0       0.2       0.1       0.1       0.1
 6 C  pz              6.7       4.1       1.2       0.0       0.1       2.0
 6 C  px              3.7       0.0       2.1       6.1       0.9       7.0
 6 C  py              7.9       2.6       3.3       1.1       0.4       0.2
 6 C  dz2             0.0       0.1       0.0       0.1       0.0       0.4
 6 C  dxz             0.1       0.1       0.0       0.0       0.1       0.1
 6 C  dx2y2           0.1       0.0       0.1       0.0       0.0       0.1
 7 C  s               0.0       0.0       0.3       0.1       0.1       0.6
 7 C  pz              0.6       4.3       0.3       0.1       7.7       2.1
 7 C  px              0.0       0.1      15.4       0.2       0.0       6.3
 7 C  py              0.2       0.3       0.3       9.2       0.1       0.1
 7 C  dz2             0.0       0.0       0.1       0.0       0.2       0.0
 7 C  dxy             0.0       0.0       0.1       0.4       0.1       0.0
 8 H  s               0.1       0.1       4.5       4.6       0.1       1.1
 9 H  s               0.2       0.4       0.9       4.9       2.8       0.3
10 H  s               0.2       2.8       0.5       0.4       5.1       0.0
11 H  s               0.2       0.5       0.0       0.8       9.3       0.2
12 H  s               6.9       0.1       1.0       0.0       0.3       0.5
13 H  s               1.4      10.0       0.7       0.5       1.0       1.7
14 H  s               1.4      10.0       0.7       0.5       1.0       1.7
15 H  s               6.9       0.1       1.0       0.0       0.3       0.5
16 H  s               0.2       0.5       0.0       0.8       9.3       0.2
17 H  s               5.5       1.1       0.2       0.2       0.4       1.9
18 H  s               0.5       2.9       1.2       1.2       1.0       6.5
19 H  s               0.5       2.9       1.2       1.2       1.0       6.5
20 H  s               5.5       1.1       0.2       0.2       0.4       1.9
21 H  s               0.2       0.4       0.9       4.9       2.8       0.3
22 H  s               0.1       0.1       4.5       4.6       0.1       1.1
23 H  s               0.2       2.8       0.5       0.3       5.1       0.0

                     30        31        32        33        34        35   
                  -0.25134  -0.25133   0.02948   0.04504   0.05790   0.07501
                   2.00000   2.00000   0.00000   0.00000   0.00000   0.00000
                  --------  --------  --------  --------  --------  --------
 0 C  s               0.1       0.0       2.8       0.1       8.2       3.3
 0 C  pz              0.3       0.6       0.7       1.8       0.2       0.1
 0 C  px              0.4       0.4       0.8       0.1       1.8       0.0
 0 C  py              1.3       0.1       0.1       0.2       0.1       1.3
 0 C  dz2             0.0       0.1       0.0       0.1       0.0       0.0
 0 C  dxz             0.0       0.0       0.1       0.0       0.1       0.0
 0 C  dxy             0.1       0.0       0.1       0.0       0.0       0.0
 1 C  s               0.0       0.1       1.6       1.0       1.5       0.1
 1 C  pz              0.3       5.9       1.2       2.8       1.1       0.3
 1 C  px              0.1       2.5       0.3       0.1       0.1       0.3
 1 C  py             11.9       0.6       0.1       0.1       0.2       0.1
 1 C  dz2             0.1       0.2       0.0       0.4       0.0       0.0
 1 C  dxz             0.2       0.0       0.0       0.1       0.0       0.0
 1 C  dyz             0.0       0.2       0.2       0.0       0.0       0.1
 1 C  dxy             0.2       0.0       0.0       0.0       0.0       0.1
 2 C  s               0.1       0.2       3.2       0.2       1.7       3.9
 2 C  pz              0.0       4.7       0.4       2.7       0.1       0.0
 2 C  px              0.0       3.6       0.6       0.0       0.1       0.5
 2 C  py              8.8       1.0       0.8       0.3       0.9       3.3
 2 C  dz2             0.1       0.3       0.0       0.2       0.0       0.0
 2 C  dyz             0.0       0.0       0.1       0.1       0.2       0.0
 2 C  dxy             0.4       0.0       0.1       0.0       0.0       0.1
 3 C  s               0.2       0.1       3.2       0.2       1.7       4.0
 3 C  pz              0.1       4.6       0.4       2.7       0.1       0.0
 3 C  px              0.2       3.5       0.6       0.0       0.1       0.5
 3 C  py              9.7       0.0       0.8       0.3       0.9       3.3
 3 C  dz2             0.0       0.4       0.0       0.2       0.0       0.0
 3 C  dyz             0.0       0.0       0.1       0.1       0.2       0.0
 3 C  dxy             0.4       0.0       0.1       0.0       0.0       0.1
 4 C  s               0.0       0.1       1.6       1.0       1.5       0.1
 4 C  pz              0.0       6.1       1.2       2.8       1.1       0.3
 4 C  px              0.1       2.6       0.3       0.1       0.1       0.3
 4 C  py             12.4       0.0       0.1       0.1       0.2       0.1
 4 C  dz2             0.0       0.3       0.0       0.4       0.0       0.0
 4 C  dxz             0.1       0.1       0.0       0.1       0.0       0.0
 4 C  dyz             0.0       0.2       0.2       0.0       0.0       0.1
 4 C  dxy             0.2       0.0       0.0       0.0       0.0       0.1
 5 C  s               0.2       0.0       3.8       1.5       0.1       0.8
 5 C  pz              0.2       7.9       1.0       2.1       0.3       0.4
 5 C  px              0.1       3.4       0.1       0.8       0.4       0.1
 5 C  py              8.7       0.6       0.6       0.1       0.5       2.1
 5 C  dz2             0.0       0.0       0.0       0.4       0.0       0.0
 5 C  dxz             0.0       0.3       0.2       0.1       0.0       0.0
 5 C  dxy             0.4       0.0       0.1       0.0       0.0       0.0
 6 C  s               0.1       0.1       3.8       1.5       0.1       0.8
 6 C  pz              0.1       8.0       1.0       2.1       0.3       0.4
 6 C  px              0.5       2.9       0.1       0.8       0.4       0.1
 6 C  py              9.3       0.0       0.6       0.1       0.5       2.1
 6 C  dz2             0.0       0.0       0.0       0.4       0.0       0.0
 6 C  dxz             0.0       0.2       0.2       0.1       0.0       0.0
 6 C  dxy             0.4       0.0       0.1       0.0       0.0       0.0
 7 C  s               0.1       0.0       2.8       0.1       8.2       3.3
 7 C  pz              0.1       0.7       0.7       1.8       0.2       0.1
 7 C  px              0.6       0.2       0.8       0.1       1.8       0.0
 7 C  py              1.3       0.0       0.1       0.2       0.1       1.3
 7 C  dz2             0.0       0.1       0.0       0.1       0.0       0.0
 7 C  dxz             0.0       0.0       0.1       0.0       0.1       0.0
 7 C  dxy             0.2       0.0       0.1       0.0       0.0       0.0
 8 H  s               0.9       0.0       2.8       0.1       7.7       0.0
 9 H  s               0.8       1.0       2.0       0.1       8.2       5.2
10 H  s               0.4       1.0       3.0       4.4       4.6       4.4
11 H  s               2.3       6.5       4.7      10.6       4.3       1.4
12 H  s               6.6       1.0       5.8       1.0       3.8      13.1
13 H  s               0.5       4.2       3.1       7.5       1.1       2.2
14 H  s               0.0       4.7       3.1       7.5       1.1       2.2
15 H  s               4.9       2.7       5.8       1.0       3.8      13.1
16 H  s               0.6       8.2       4.7      10.6       4.3       1.4
17 H  s               5.5       0.1       4.5       0.1       1.3       5.4
18 H  s               0.0       1.8       5.2      10.7       0.9       1.0
19 H  s               0.1       1.7       5.2      10.7       0.9       1.0
20 H  s               4.7       1.0       4.5       0.1       1.3       5.4
21 H  s               1.2       0.5       2.0       0.1       8.2       5.2
22 H  s               0.7       0.1       2.8       0.1       7.7       0.0
23 H  s               0.1       1.3       3.0       4.4       4.6       4.4

                     36        37        38        39        40        41   
                   0.09269   0.09441   0.09620   0.11165   0.11778   0.12259
                   0.00000   0.00000   0.00000   0.00000   0.00000   0.00000
                  --------  --------  --------  --------  --------  --------
 0 C  s               3.7       0.0       2.4       0.9       0.0       0.8
 0 C  pz              1.9       1.0       2.9       0.4       0.6       0.3
 0 C  px              0.2       1.4       2.1       0.5       1.7       1.0
 0 C  py              1.6       2.7       0.1       0.9       6.4       3.5
 0 C  dz2             0.0       0.0       0.0       0.1       0.2       0.0
 0 C  dxz             0.0       0.0       0.0       0.1       0.1       0.0
 0 C  dyz             0.1       0.1       0.0       0.1       0.0       0.1
 0 C  dxy             0.1       0.0       0.0       0.0       0.1       0.4
 1 C  s               0.1       0.0       1.7       1.5       0.9       0.3
 1 C  pz              0.0       0.7       1.3       3.7       0.9       0.3
 1 C  px              0.3       0.2       0.3       0.5       0.1       0.1
 1 C  py              0.4       0.1       0.3       0.0       0.1       1.1
 1 C  dz2             0.1       0.0       0.1       0.0       0.0       0.1
 1 C  dxz             0.2       0.4       0.1       0.0       0.0       0.3
 1 C  dyz             0.0       0.1       0.1       0.1       0.2       0.0
 1 C  dx2y2           0.5       0.0       0.1       0.2       0.1       0.0
 1 C  dxy             0.1       0.0       0.0       0.0       0.1       0.2
 2 C  s               0.6       0.5       1.5       0.1       1.1       2.2
 2 C  pz              0.8       0.1       1.3       1.1       0.5       2.6
 2 C  px              0.3       0.8       0.5       0.5       0.2       0.3
 2 C  py              0.1       1.9       0.4       1.5       0.5       0.5
 2 C  dz2             0.0       0.0       0.2       0.0       0.0       0.1
 2 C  dxz             0.0       0.1       0.1       0.0       0.0       0.1
 2 C  dyz             0.0       0.3       0.1       0.0       0.2       0.0
 2 C  dx2y2           0.1       0.0       0.1       0.0       0.1       0.0
 2 C  dxy             0.0       0.0       0.0       0.2       0.0       0.3
 3 C  s               0.6       0.4       1.5       0.1       1.1       2.2
 3 C  pz              0.7       0.1       1.3       1.1       0.6       2.6
 3 C  px              0.3       0.8       0.5       0.5       0.2       0.3
 3 C  py              0.1       2.0       0.4       1.5       0.5       0.5
 3 C  dz2             0.0       0.0       0.2       0.0       0.0       0.1
 3 C  dxz             0.0       0.1       0.1       0.0       0.0       0.1
 3 C  dyz             0.0       0.3       0.1       0.0       0.2       0.0
 3 C  dx2y2           0.1       0.0       0.1       0.0       0.1       0.0
 3 C  dxy             0.0       0.0       0.0       0.2       0.0       0.3
 4 C  s               0.1       0.0       1.7       1.5       0.9       0.3
 4 C  pz              0.0       0.7       1.3       3.7       0.9       0.3
 4 C  px              0.3       0.2       0.3       0.5       0.1       0.1
 4 C  py              0.4       0.1       0.3       0.0       0.1       1.1
 4 C  dz2             0.1       0.0       0.1       0.0       0.0       0.1
[...]
 0 C  dxy             0.3       1.2       1.2       0.1       0.0       0.5
 1 C  s               0.9       0.0       0.2       0.0       0.0       0.0
 1 C  pz              0.2       0.0       0.0       0.3       0.1       0.1
 1 C  px              0.4       0.5       1.7       1.0       0.5       0.1
 1 C  py              0.3       1.4       0.2       0.5       0.0       1.5
 1 C  dz2             7.0       0.2       2.2       0.5       0.0       0.1
 1 C  dxz             9.4       5.3       3.3       1.3       0.3       3.7
 1 C  dyz             1.2       4.5       0.1       0.3       6.7       0.9
 1 C  dx2y2           0.6       7.1       0.5       4.2       8.7       1.0
 1 C  dxy             0.1       5.9       2.4      16.6       3.1       8.7
 2 C  s               0.1       0.9       0.4       0.1       0.3       0.1
 2 C  pz              0.1       0.2       0.0       0.0       0.1       0.0
 2 C  px              0.0       0.2       1.0       0.0       0.1       3.0
 2 C  py              0.0       1.2       0.0       0.3       0.1       0.4
 2 C  dz2             0.0       1.5       0.8       0.3       2.0       0.8
 2 C  dxz             1.4       3.7       1.3       1.0       0.0       3.2
 2 C  dyz             1.4       4.2       0.1       1.4       0.2       1.1
 2 C  dx2y2           1.3       0.4       6.1       1.1       2.5      11.4
 2 C  dxy             0.4       3.8       0.0       0.1       8.5       3.0
 3 C  s               0.1       1.0       0.4       0.1       0.3       0.1
 3 C  pz              0.1       0.2       0.0       0.0       0.1       0.0
 3 C  px              0.0       0.2       1.0       0.0       0.1       3.0
 3 C  py              0.0       1.2       0.0       0.3       0.1       0.4
 3 C  dz2             0.0       1.5       0.8       0.3       2.0       0.8
 3 C  dxz             1.4       3.7       1.3       1.0       0.0       3.2
 3 C  dyz             1.4       4.1       0.1       1.4       0.2       1.1
 3 C  dx2y2           1.3       0.4       6.1       1.1       2.5      11.4
 3 C  dxy             0.5       3.8       0.0       0.1       8.5       3.0
 4 C  s               0.9       0.0       0.2       0.0       0.0       0.0
 4 C  pz              0.2       0.0       0.0       0.3       0.1       0.1
 4 C  px              0.4       0.5       1.7       1.0       0.5       0.1
 4 C  py              0.3       1.4       0.2       0.5       0.0       1.5
 4 C  dz2             7.0       0.2       2.2       0.5       0.0       0.1
 4 C  dxz             9.5       5.3       3.3       1.3       0.3       3.7
 4 C  dyz             1.2       4.5       0.1       0.3       6.7       0.9
 4 C  dx2y2           0.6       7.1       0.5       4.2       8.7       1.0
 4 C  dxy             0.1       5.9       2.4      16.6       3.1       8.7
 5 C  s               0.1       0.2       0.2       0.6       0.3       0.0
 5 C  pz              0.0       0.0       0.8       0.1       0.1       0.3
 5 C  px              0.2       0.0       2.1       0.4       0.2       0.7
 5 C  py              0.1       0.3       0.3       1.2       0.2       0.2
 5 C  dz2            12.1       0.0       4.1       2.4       0.1       1.6
 5 C  dxz             1.0       0.1      12.2       0.0       1.9       2.3
 5 C  dyz             0.2       0.0       0.3       0.6       1.7       0.1
 5 C  dx2y2           1.2       2.1       3.0       0.0       0.7       1.7
 5 C  dxy             0.4       0.4       2.2       7.7       4.7       2.0
 6 C  s               0.1       0.2       0.2       0.6       0.3       0.0
 6 C  pz              0.0       0.0       0.8       0.1       0.1       0.3
 6 C  px              0.2       0.0       2.1       0.4       0.2       0.7
 6 C  py              0.1       0.3       0.3       1.2       0.2       0.2
 6 C  dz2            12.1       0.0       4.1       2.4       0.1       1.6
 6 C  dxz             1.0       0.1      12.2       0.0       1.9       2.3
 6 C  dyz             0.2       0.0       0.3       0.6       1.7       0.1
 6 C  dx2y2           1.2       2.1       3.0       0.0       0.7       1.7
 6 C  dxy             0.4       0.4       2.2       7.7       4.7       2.0
 7 C  s               0.3       0.3       0.3       0.4       0.3       0.2
 7 C  pz              0.2       0.1       0.2       0.3       0.2       0.0
 7 C  px              0.4       0.5       0.4       0.7       0.5       0.1
 7 C  py              0.1       0.1       0.0       0.0       0.0       0.1
 7 C  dz2             0.2       0.1       0.4       0.0       0.2       0.3
 7 C  dxz             4.8       1.2       0.8       3.2       3.1       0.1
 7 C  dyz             0.1       0.8       0.0       0.0       0.3       0.4
 7 C  dx2y2           0.8       1.1       0.8       2.5       1.6       0.0
 7 C  dxy             0.3       1.2       1.2       0.1       0.0       0.5
 9 H  s               0.1       0.1       0.0       0.0       0.1       0.0
10 H  s               0.1       0.0       0.0       0.0       0.0       0.0
11 H  s               1.3       0.0       0.0       0.0       0.0       0.0
12 H  s               0.2       0.1       0.2       0.1       0.1       0.0
13 H  s               0.0       0.1       0.0       0.1       0.2       0.0
14 H  s               0.0       0.1       0.0       0.1       0.2       0.0
15 H  s               0.2       0.1       0.2       0.1       0.1       0.0
16 H  s               1.3       0.0       0.0       0.0       0.0       0.0
17 H  s               0.1       0.0       0.0       0.2       0.1       0.0
18 H  s               0.7       0.0       0.0       0.1       0.2       0.0
19 H  s               0.7       0.0       0.0       0.1       0.2       0.0
20 H  s               0.1       0.0       0.0       0.2       0.1       0.0
21 H  s               0.1       0.1       0.0       0.0       0.1       0.0
23 H  s               0.1       0.0       0.0       0.0       0.0       0.0



                      *****************************
                      * MAYER POPULATION ANALYSIS *
                      *****************************

  NA   - Mulliken gross atomic population
  ZA   - Total nuclear charge
  QA   - Mulliken gross atomic charge
  VA   - Mayer's total valence
  BVA  - Mayer's bonded valence
  FA   - Mayer's free valence

  ATOM       NA         ZA         QA         VA         BVA        FA
  0 C      6.2423     6.0000    -0.2423     3.9737     3.9737     0.0000
  1 C      6.1810     6.0000    -0.1810     4.2778     4.2778    -0.0000
  2 C      6.1099     6.0000    -0.1099     4.1369     4.1369     0.0000
  3 C      6.1098     6.0000    -0.1098     4.1368     4.1368     0.0000
  4 C      6.1809     6.0000    -0.1809     4.2778     4.2778     0.0000
  5 C      6.1177     6.0000    -0.1177     4.1397     4.1397    -0.0000
  6 C      6.1178     6.0000    -0.1178     4.1396     4.1396    -0.0000
  7 C      6.2424     6.0000    -0.2424     3.9737     3.9737     0.0000
  8 H      0.9023     1.0000     0.0977     0.9542     0.9542     0.0000
  9 H      0.9030     1.0000     0.0970     0.9532     0.9532    -0.0000
 10 H      0.9049     1.0000     0.0951     0.9669     0.9669    -0.0000
 11 H      0.9360     1.0000     0.0640     0.9394     0.9394    -0.0000
 12 H      0.9206     1.0000     0.0794     0.9465     0.9465     0.0000
 13 H      0.9339     1.0000     0.0661     0.9588     0.9588     0.0000
 14 H      0.9339     1.0000     0.0661     0.9588     0.9588     0.0000
 15 H      0.9206     1.0000     0.0794     0.9465     0.9465    -0.0000
 16 H      0.9360     1.0000     0.0640     0.9394     0.9394     0.0000
 17 H      0.9230     1.0000     0.0770     0.9570     0.9570    -0.0000
 18 H      0.9254     1.0000     0.0746     0.9511     0.9511    -0.0000
 19 H      0.9253     1.0000     0.0747     0.9511     0.9511     0.0000
 20 H      0.9230     1.0000     0.0770     0.9570     0.9570     0.0000
 21 H      0.9030     1.0000     0.0970     0.9532     0.9532    -0.0000
 22 H      0.9023     1.0000     0.0977     0.9542     0.9542     0.0000
 23 H      0.9049     1.0000     0.0951     0.9669     0.9669    -0.0000

  Mayer bond orders larger than 0.100000
B(  0-C ,  1-C ) :   1.1203 B(  0-C ,  8-H ) :   0.9493 B(  0-C ,  9-H ) :   0.9475 
B(  0-C , 10-H ) :   0.9457 B(  1-C ,  2-C ) :   1.0997 B(  1-C ,  6-C ) :   1.0880 
B(  1-C , 11-H ) :   0.8970 B(  2-C ,  3-C ) :   1.1895 B(  2-C , 12-H ) :   0.9144 
B(  2-C , 13-H ) :   0.9000 B(  3-C ,  4-C ) :   1.0997 B(  3-C , 14-H ) :   0.9000 
B(  3-C , 15-H ) :   0.9144 B(  4-C ,  5-C ) :   1.0881 B(  4-C ,  7-C ) :   1.1204 
B(  4-C , 16-H ) :   0.8970 B(  5-C ,  6-C ) :   1.1828 B(  5-C , 17-H ) :   0.9177 
B(  5-C , 18-H ) :   0.9004 B(  6-C , 19-H ) :   0.9005 B(  6-C , 20-H ) :   0.9177 
B(  7-C , 21-H ) :   0.9475 B(  7-C , 22-H ) :   0.9493 B(  7-C , 23-H ) :   0.9457 


-------
TIMINGS
-------

Total SCF time: 0 days 0 hours 0 min 5 sec 

Total time                  ....       5.330 sec
Sum of individual times     ....       5.292 sec  ( 99.3%)

SCF preparation             ....       0.117 sec  (  2.2%)
Fock matrix formation       ....       4.963 sec  ( 93.1%)
  Startup                   ....       0.013 sec  (  0.3% of F)
  Split-RI-J                ....       1.926 sec  ( 38.8% of F)
  XC integration            ....       2.654 sec  ( 53.5% of F)
    XC Preparation          ....       0.000 sec  (  0.0% of XC)
    Basis function eval.    ....       0.914 sec  ( 34.4% of XC)
    Density eval.           ....       0.454 sec  ( 17.1% of XC)
    XC-Functional eval.     ....       0.138 sec  (  5.2% of XC)
    XC-Potential eval.      ....       0.498 sec  ( 18.8% of XC)
Diagonalization             ....       0.000 sec  (  0.0%)
Density matrix formation    ....       0.041 sec  (  0.8%)
Total Energy calculation    ....       0.002 sec  (  0.0%)
Population analysis         ....       0.040 sec  (  0.8%)
Orbital Transformation      ....       0.016 sec  (  0.3%)
Orbital Orthonormalization  ....       0.000 sec  (  0.0%)
DIIS solution               ....       0.089 sec  (  1.7%)
  MO trafo                  ....       0.000 sec  (  0.0 % of DIIS)
  Orb grad                  ....       0.000 sec  (  0.0 % of DIIS)
  Energy W gradient         ....       0.000 sec  (  0.0 % of DIIS)
  DIIS error                ....       0.003 sec  (  3.1 % of DIIS)
  DIIS work                 ....       0.076 sec  ( 84.7 % of DIIS)
  Form Q                    ....       0.000 sec  (  0.0 % of DIIS)
  Form QpQm                 ....       0.000 sec  (  0.0 % of DIIS)
  Exp/Cayley                ....       0.000 sec  (  0.0 % of DIIS)
  Orb update                ....       0.000 sec  (  0.0 % of DIIS)
  Wake-sleep                ....       0.001 sec  (  1.3 % of DIIS)
SOSCF solution              ....       0.023 sec  (  0.4%)
  MO trafo                  ....       0.016 sec  ( 69.4 % of SOSCF)
  Orb grad                  ....       0.000 sec  (  0.6 % of SOSCF)
  Rot update                ....       0.002 sec  (  6.6 % of SOSCF)
  Step                      ....       0.005 sec  ( 23.1 % of SOSCF)
Finished LeanSCF after   5.3 sec

Maximum memory used throughout the entire LEANSCF-calculation: 15.1 MB


-------------------------------------------------------------------------------
                          DFT DISPERSION CORRECTION                            
                                                                               
                                DFTD4 V3.4.0                                   
-------------------------------------------------------------------------------
The PBE functional is recognized
Active option DFTDOPT                   ...         5   

-------------------------   ----------------
Dispersion correction           -0.022512088
-------------------------   ----------------

------------------   -----------------
gCP correction             0.103153338
------------------   -----------------

-------------------------   --------------------
FINAL SINGLE POINT ENERGY      -313.696191357224
-------------------------   --------------------


------------------------------------------------------------------------------
                              ORCA PROPERTY CALCULATIONS
------------------------------------------------------------------------------

GBWName                                 ... sp.gbw
Number of atoms                         ...     24
Number of basis functions               ...    144
Max core memory                         ...   1024 MB

Electric properties:
Dipole moment                           ... YES
Quadrupole moment                       ...  NO
Static polarizability (Dipole/Dipole)   ...  NO
Static polarizability (Dipole/Quad.)    ...  NO
Static polarizability (Quad./Quad.)     ...  NO
Static polarizability (Velocity)        ...  NO

Atomic electric properties:
Dipole moment                           ...  NO
Quadrupole moment                       ...  NO
Static polarizability                   ...  NO

Choice of electric origin               ... Center of mass
Position of electric origin             ...    -0.000000    -0.000001    -0.000000

General magnetic properties:
Magnetizability                         ...  NO

EPR properties:
g-Tensor (aka g-matrix)                 ...  NO
Zero-Field splitting spin-orbit         ...  NO
Zero-field splitting spin-spin          ...  NO
Hyperfine couplings                     ...  NO (   0 nuclei)
Quadrupole couplings                    ...  NO (   0 nuclei)
Contact density                         ...  NO (   0 nuclei)

NMR properties:
Chemical shifts                         ...  NO (   0 nuclei)
Spin-rotation constants                 ...  NO (   0 nuclei)
Spin-spin couplings                     ...  NO (   0 nuclei,    0 pairs)

Choice of magnetic origin               ... GIAO
Position of magnetic origin             ...     0.000000     0.000000     0.000000

Properties with geometric perturbations:
SCF Hessian                             ...  NO
IR spectrum                             ...  NO
VCD spectrum                            ...  NO
X-ray spectroscopy properties:
SCF XES/XAS/RIXS spectra                ...  NO


-------------
DIPOLE MOMENT
-------------

Method             : SCF
Type of density    : Electron Density
Multiplicity       :   1
Irrep              :   0
Energy             :  -313.7768326076846961 Eh
Relativity type    : 
Basis              : AO
                                X                 Y                 Z
Electronic contribution:      0.000360104       0.584760791       0.000699969
Nuclear contribution   :     -0.000334716      -0.557474311      -0.000669765
                        -----------------------------------------
Total Dipole Moment    :      0.000025388       0.027286480       0.000030203
                        -----------------------------------------
Magnitude (a.u.)       :      0.027286508
Magnitude (Debye)      :      0.069356792



--------------------
Rotational spectrum 
--------------------
 
Rotational constants in cm-1:             0.127745             0.048010             0.040417 
Rotational constants in MHz :          3829.707578          1439.299605          1211.661705 

Dipole components along the rotational axes: 
x,y,z [a.u.] :    -0.000024     0.027286     0.000027 
x,y,z [Debye]:    -0.000062     0.069357     0.000069 

 

Dipole moment calculation done in   0.0 sec 

Maximum memory used throughout the entire PROP-calculation: 9.6 MB

--------------------------------
SUGGESTED CITATIONS FOR THIS RUN
--------------------------------

Below you find a list of papers that are relevant to this ORCA run
We neither can nor want to force you to cite these papers, but we appreciate if you do
You receive ORCA, which is the product of decades of hard work by many enthusiastic individuals, for free
The only thing we kindly ask in return is that you cite our papers,
We deeply appreciate it, if you show your appreciation for ORCA by not just citing the generic ORCA reference.

Please note that relegating all ORCA citations to the supporting information does *not* help us.
SI sections are not indexed - citations you put there will not count into any citation statistics
But we need these citations in order to attract the funding resources that allow us to do what we are doing

Therefore, if you are a happy ORCA user, please consider citing a few of the papers listed below in the main body of your paper

In addition to the list printed below, the program has created the file sp.bibtex that contains the list in bibtex format
You can import this file easily into all common literature databanks and citation aid programs


List of essential papers. We consider these as the minimum necessary citations

  1. Neese,F.
     Software update: the ORCA program system, version 5.0
     WIRES Comput. Molec. Sci., 2022 12(1)e1606
     doi.org/10.1002/wcms.1606

List of papers to cite with high priority. The work reported in these papers was absolutely
necessary for this run to complete.
Our perspective: the developers of density functionals and basis sets usually get cited in chemistry papers
Good! But without the algorithms to do something with them, the functionals or basis sets would not do anything.
Hence, in our opinion, the algorithm design and method developments papers are equally worthy of getting cited

  1. Neese,F.
     An improvement of the resolution of the identity approximation for the formation of the Coulomb matrix
     J. Comp. Chem., 2003 24(14)1740-1747
     doi.org/10.1002/jcc.10318
  2. Neese,F.
     The SHARK Integral Generation and Digestion System
     J. Comp. Chem., 2022  1-16
     doi.org/10.1002/jcc.26942
  3. Caldeweyher,E.; Bannwarth,C.; Grimme,S.
     Extension of the D3 dispersion coefficient model
     J. Chem. Phys., 2017 147 034112
     doi.org/10.1063/1.4993215
  4. Caldeweyher,E.; Ehlert,S.; Hansen,A.; Neugebauer,H.; Spicher,S.; Bannwarth,C.; Grimme,S.
     A generally applicable atomic-charge dependent London dispersion correction
     J. Chem. Phys., 2019 150 154122
     doi.org/10.1063/1.5090222
  5. Caldeweyher,E.; Mewes,J.; Ehlert,S.; Grimme,S.
     Extension and evaluation of the D4 London-dispersion model for periodic systems
     Phys. Chem. Chem. Phys., 2020 22(16)8499-8512
     doi.org/10.1039/D0CP00502A
  6. Wittmann,L.; Gordiy,I.; Friede,M.; Helmich-Paris,B.; Grimme,S.; Hansen,A.; Bursch,M.
     Extension of the D3 and D4 London Dispersion Corrections to the full Actinides Series
     Phys. Chem. Chem. Phys., 2024 26(32)21379-21394
     doi.org/https://doi.org/10.1039/D4CP01514B 

List of suggested additional citations. These are papers that are important in the 'surrounding' of 
of this run, or papers that preceded the highly important papers. If you like your results we are grateful for a citation.

  1. Neese,F.
     The ORCA program system
     WIRES Comput. Molec. Sci., 2012 2(1)73-78
     doi.org/10.1002/wcms.81
  2. Neese,F.
     Software update: the ORCA program system, version 4.0
     WIRES Comput. Molec. Sci., 2018 8(1)1-6
     doi.org/10.1002/wcms.1327
  3. Neese,F.; Wennmohs,F.; Becker,U.; Riplinger,C.
     The ORCA quantum chemistry program package
     J. Chem. Phys., 2020 152 Art. No. L224108
     doi.org/10.1063/5.0004608

List of optional additional citations

  1. Neese,F.
     Approximate second-order SCF convergence for spin unrestricted wavefunctions
     Chem. Phys. Lett., 2000 325(1-3)93-98
     doi.org/10.1016/s0009-2614(00)00662-x

Timings for individual modules:

Sum of individual times          ...        6.508 sec (=   0.108 min)
Startup calculation              ...        0.504 sec (=   0.008 min)   7.7 %
SCF iterations                   ...        5.943 sec (=   0.099 min)  91.3 %
Property calculations            ...        0.060 sec (=   0.001 min)   0.9 %
                             ****ORCA TERMINATED NORMALLY****
TOTAL RUN TIME: 0 days 0 hours 0 minutes 7 seconds 8 msec
