
                                 *****************
                                 * O   R   C   A *
                                 *****************

                                            #,                                       
                                            ###                                      
                                            ####                                     
                                            #####                                    
                                            ######                                   
                                           ########,                                 
                                     ,,################,,,,,                         
                               ,,#################################,,                 
                          ,,##########################################,,             
                       ,#########################################, ''#####,          
                    ,#############################################,,   '####,        
                  ,##################################################,,,,####,       
                ,###########''''           ''''###############################       
              ,#####''   ,,,,##########,,,,          '''####'''          '####       
            ,##' ,,,,###########################,,,                        '##       
           ' ,,###''''                  '''############,,,                           
         ,,##''                                '''############,,,,        ,,,,,,###''
      ,#''                                            '''#######################'''  
     '                                                          ''''####''''         
             ,#######,   #######,   ,#######,      ##                                
            ,#'     '#,  ##    ##  ,#'     '#,    #''#        ,####,   ,####,        
            ##       ##  ##   ,#'  ##            #'  '#       #'       #'  '#        
            ##       ##  #######   ##           ,######,      #####,   #    #        
            '#,     ,#'  ##    ##  '#,     ,#' ,#      #,     #,   #   #,  ,#        
             '#######'   ##     ##  '#######'  #'      '#     '####' # '####'        



                #########################################################
                #                        -***-                          #
                #          Department of theory and spectroscopy        #
                #                                                       #
                #                      Frank Neese                      #
                #                                                       #
                #     Directorship, Architecture, Infrastructure        #
                #                    SHARK, DRIVERS                     #
                #        Core code/Algorithms in most modules           #
                #                                                       #
                #        Max Planck Institute fuer Kohlenforschung      #
                #                Kaiser Wilhelm Platz 1                 #
                #                 D-45470 Muelheim/Ruhr                 #
                #                      Germany                          #
                #                                                       #
                #                  All rights reserved                  #
                #                        -***-                          #
                #########################################################


                         Program Version 6.0.1  -  RELEASE   -


 With contributions from (in alphabetic order):
[Max-Planck-Institut fuer Kohlenforschung]                               
  Daniel Aravena         : Magnetic Suceptibility                        
  Michael Atanasov       : Ab Initio Ligand Field Theory (pilot matlab implementation)
  Alexander A. Auer      : GIAO ZORA, VPT2 properties, NMR spectrum      
  Ute Becker             : All parallelization in ORCA, NUMFREQ, NUMCALC 
  Giovanni Bistoni       : ED, misc. LED, open-shell LED, HFLD           
  Martin Brehm           : Molecular dynamics                            
  Dmytro Bykov           : pre 5.0 version of the SCF Hessian            
  Marcos Casanova-Páez   : Triplet and SCS-CIS(D). UHF-(DLPNO)-IP/EA/STEOM-CCSD. UHF-CVS-IP/STEOM-CCSD   
  Vijay G. Chilkuri      : MRCI spin determinant printing, contributions to CSF-ICE 
  Pauline Colinet        : FMM embedding                                 
  Dipayan Datta          : RHF DLPNO-CCSD density                        
  Achintya Kumar Dutta   : EOM-CC, STEOM-CC                              
  Nicolas Foglia         : Exact transition moments, OPA infrastructure, MCD improvements    
  Dmitry Ganyushin       : Spin-Orbit,Spin-Spin,Magnetic field MRCI      
  Miquel Garcia-Rates    : C-PCM and meta-GGA Hessian, CCSD/C-PCM, Gaussian charge scheme 
  Tiago L. C. Gouveia    : GS-ROHF, GS-ROCIS                             
  Yang Guo               : DLPNO-NEVPT2, F12-NEVPT2, CIM, IAO-localization        
  Andreas Hansen         : Spin unrestricted coupled pair/coupled cluster methods 
  Ingolf Harden          : AUTO-CI MPn and infrastructure                
  Benjamin Helmich-Paris : MC-RPA, TRAH-(SCF,CASSCF), AVAS, COSX integrals, SCF dyn. polar. 
  Lee Huntington         : MR-EOM, pCC                                   
  Robert Izsak           : Overlap fitted RIJCOSX, COSX-SCS-MP3, EOM     
  Riya Kayal             : Wick's Theorem for AUTO-CI, AUTO-CI UHF-CCSDT 
  Emily Kempfer          : AUTO-CI, RHF CISDT and CCSDT                  
  Christian Kollmar      : KDIIS, OOCD, Brueckner-CCSD(T), CCSD density, CASPT2, CASPT2-K, improved NEVPT2 
  Axel Koslowski         : Symmetry handling                             
  Simone Kossmann        : meta-GGA functionals, TD-DFT gradient, OOMP2, (MP2 Hessian; deprecated post 5.0) 
  Lucas Lang             : DCDCAS                                        
  Marvin Lechner         : AUTO-CI (C++ implementation), FIC-MRCC        
  Spencer Leger          : CASSCF response                               
  Dagmar Lenk            : GEPOL surface, SMD, ORCA-2-JSON               
  Dimitrios Liakos       : Extrapolation schemes; Compound Job, initial MDCI parallelization 
  Dimitrios Manganas     : Further ROCIS development; embedding schemes. LFT, Crystal Embedding 
  Dimitrios Pantazis     : SARC Basis sets                               
  Anastasios Papadopoulos: AUTO-CI, single reference methods and gradients 
  Taras Petrenko         : pre 6.0 DFT Hessian and TD-DFT gradient, (ASA, deprecated), ECA, 1-Electron XAS/XES, NRVS 
  Peter Pinski           : DLPNO-MP2, DLPNO-MP2 Gradient                 
  Christoph Reimann      : Effective Core Potentials                     
  Marius Retegan         : Local ZFS, SOC                                
  Christoph Riplinger    : Optimizer, TS searches, QM/MM, DLPNO-CCSD(T), (RO)-DLPNO pert. Triples 
  Michael Roemelt        : Original ROCIS implementation                 
  Masaaki Saitow         : Open-shell DLPNO-CCSD energy and density      
  Barbara Sandhoefer     : DKH picture change effects                    
  Kantharuban Sivalingam : CASSCF convergence/infrastructure, NEVPT2 and variants, FIC-MRCI 
  Bernardo de Souza      : ESD, SOC TD-DFT                               
  Georgi L. Stoychev     : AutoAux, RI-MP2 NMR, DLPNO-MP2 response, X2C  
  Van Anh Tran           : RI-MP2 g-tensors                              
  Willem Van den Heuvel  : Paramagnetic NMR                              
  Zikuan Wang            : NOTCH, Electric field optimization            
  Frank Wennmohs         : Technical directorship and infrastructure     
  Hang Xu                : AUTO-CI-Response properties                   
                                                                         
[FACCTs GmbH]                                                            
  Markus Bursch, Miquel Garcia-Rates, Christoph Riplinger, Bernardo de Souza, Georgi L. Stoychev 
                                                                 
  APM, Basis sets (HGBS, AHGBS, def-TZVP (Ac-Lr), def2-XVPD (La-Lu)), CI-OPT, improved COSX, DLPNO-Multilevel,           
  DOCKER, DRACO, updates on ESD, GOAT, IRC, LR-CPCM, MBIS, meta-GGA TD-DFT gradient, ML-optimized integration grids, 
  MM, NACMEs, nearIR, NEB, NEB-TS, NL-DFT gradient (VV10), 2- and 3-layer-ONIOM, interface openCOSMO-RS, QMMM,   
  Crystal-QMMM, SF, symmetry and pop. for TD-DFT, r2SCAN hybrids, SOLVATOR                                   
                                                                         
[Other institutions]                                                     
  V. Asgeirsson          : NEB                                           
  Christoph Bannwarth    : sTDA-DFT, sTD-DFT, PBEh-3c, B97-3c, D3        
  Sebastian Ehlert       : rSCAN, r2SCAN, r2SCAN-3c, D4, dhf basis sets  
  Marvin Friede          : D4 for Fr, Ra, Ac-Lr                          
  Lars Goerigk           : TD-DFT with DH, B97 family of functionals     
  Stefan Grimme          : VdW corrections, initial TS optimization, DFT functionals, gCP, sTDA/sTD-DF 
  Waldemar Hujo          : DFT-NL                                        
  H. Jonsson             : NEB                                           
  Holger Kruse           : gCP                                           
  Marcel Mueller         : wB97X-3c, vDZP basis set                      
  Hagen Neugebauer       : wr2SCAN                                       
  Tobias Risthaus        : range-separated hybrid DFT                    
  Lukas Wittmann         : regularized MP2, r2SCAN double-hybrids, wr2SCAN        
                                                                         
We gratefully acknowledge several colleagues who have allowed us to      
interface, adapt or use parts of their codes:                            
  Ed Valeev, F. Pavosevic, A. Kumar             : LibInt (2-el integral package), F12 methods 
  Garnet Chan, S. Sharma, J. Yang, R. Olivares  : DMRG                   
  Ulf Ekstrom                                   : XCFun DFT Library      
  Mihaly Kallay                                 : mrcc  (arbitrary order and MRCC methods)
  Frank Weinhold                                : gennbo (NPA and NBO analysis)           
  Simon Mueller                                 : openCOSMO-RS                            
  Christopher J. Cramer and Donald G. Truhlar   : smd solvation model                     
  S Lehtola, MJT Oliveira, MAL Marques          : LibXC Library                           
  Liviu Ungur et al                             : ANISO software                          


 Your calculation uses the libint2 library for the computation of 2-el integrals
 For citations please refer to: http://libint.valeyev.net

 Your ORCA version has been built with support for libXC version: 6.2.2
 For citations please refer to: https://libxc.gitlab.io

 This ORCA versions uses:
   CBLAS   interface :  Fast vector & matrix operations
   LAPACKE interface :  Fast linear algebra routines
   SCALAPACK package :  Parallel linear algebra routines
   Shared memory     :  Shared parallel matrices
   BLAS/LAPACK       :  OpenBLAS 0.3.27  USE64BITINT DYNAMIC_ARCH NO_AFFINITY Zen SINGLE_THREADED
        Core in use  :  Zen
   Copyright (c) 2011-2014, The OpenBLAS Project


Your calculation utilizes the geometrical counterpoise correction gCP
Please cite in your paper:
H.Kruse, S. Grimme J.Chem.Phys., 136, (2012), 154101 
   

Your calculation utilizes the atom-pairwise dispersion correction
based on EEQ partial charges (D4)


================================================================================

----- Orbital basis set information -----
Your calculation utilizes the basis: def2-SV(P)
   F. Weigend and R. Ahlrichs, Phys. Chem. Chem. Phys. 7, 3297 (2005).

----- AuxJ basis set information -----
Your calculation utilizes the auxiliary basis: def2/J
   F. Weigend, Phys. Chem. Chem. Phys. 8, 1057 (2006).

================================================================================
                                        WARNINGS
                       Please study these warnings very carefully!
================================================================================


================================================================================
                                       INPUT FILE
================================================================================
NAME = sp.inp
|  1> ! pbe def2-sv(p) def2/J RI DEFGRID1 loosescf d4 GCP(DFT/SV(P)) printgap
|  2> %output
|  3>     printlevel normal
|  4> end
|  5> * xyz 0 1
|  6> C -2.1394320302 -1.3188004329 -0.0040919436
|  7> C -0.9346275384 -0.5415955863 0.5550684942
|  8> H -1.2108853841 -0.1578792776 1.5471402839
|  9> C -0.5896250901 0.6485781579 -0.3452494178
| 10> H -0.5065704524 0.3086963303 -1.3912329444
| 11> C 0.7519609413 1.2738251632 0.0675239853
| 12> H 0.6339314074 1.7362482104 1.0555014624
| 13> C 1.8713065105 0.2100350455 0.1522623708
| 14> H 2.6197947491 0.4022878309 -0.6231050462
| 15> C 1.29645275 -1.203858439 -0.0615950383
| 16> H 2.0328329018 -1.9345685534 0.3105519446
| 17> O 0.1714606494 -1.4243585228 0.7413133205
| 18> O 1.0515850623 -1.3960534799 -1.4228382953
| 19> O 2.5586699698 0.2616715636 1.3714347983
| 20> O 1.0544323715 2.3421191584 -0.7958478115
| 21> O -1.6213393108 1.6045762653 -0.2462590845
| 22> O -3.3384986206 -0.6217157576 0.1658481616
| 23> H -2.2369610548 -2.2605499264 0.5422380892
| 24> H -1.9610323177 -1.5456055302 -1.067856349
| 25> H 0.713128203 -2.2897951751 -1.5576460914
| 26> H 1.9772051435 -0.0650164113 2.0698907048
| 27> H 1.2879052517 1.9902971955 -1.6636202254
| 28> H -1.2474621895 2.4582562792 -0.5061628576
| 29> H -3.1895726048 0.298669992 -0.0943612834
| 30> *
| 31> 
| 32>                          ****END OF INPUT****
================================================================================

                       ****************************
                       * Single Point Calculation *
                       ****************************

---------------------------------
CARTESIAN COORDINATES (ANGSTROEM)
---------------------------------
  C     -2.139432   -1.318800   -0.004092
  C     -0.934628   -0.541596    0.555068
  H     -1.210885   -0.157879    1.547140
  C     -0.589625    0.648578   -0.345249
  H     -0.506570    0.308696   -1.391233
  C      0.751961    1.273825    0.067524
  H      0.633931    1.736248    1.055501
  C      1.871307    0.210035    0.152262
  H      2.619795    0.402288   -0.623105
  C      1.296453   -1.203858   -0.061595
  H      2.032833   -1.934569    0.310552
  O      0.171461   -1.424359    0.741313
  O      1.051585   -1.396053   -1.422838
  O      2.558670    0.261672    1.371435
  O      1.054432    2.342119   -0.795848
  O     -1.621339    1.604576   -0.246259
  O     -3.338499   -0.621716    0.165848
  H     -2.236961   -2.260550    0.542238
  H     -1.961032   -1.545606   -1.067856
  H      0.713128   -2.289795   -1.557646
  H      1.977205   -0.065016    2.069891
  H      1.287905    1.990297   -1.663620
  H     -1.247462    2.458256   -0.506163
  H     -3.189573    0.298670   -0.094361

----------------------------
CARTESIAN COORDINATES (A.U.)
----------------------------
  NO LB      ZA    FRAG     MASS         X           Y           Z
   0 C     6.0000    0    12.011   -4.042941   -2.492172   -0.007733
   1 C     6.0000    0    12.011   -1.766190   -1.023467    1.048927
   2 H     1.0000    0     1.008   -2.288242   -0.298349    2.923671
   3 C     6.0000    0    12.011   -1.114230    1.225635   -0.652427
   4 H     1.0000    0     1.008   -0.957279    0.583352   -2.629049
   5 C     6.0000    0    12.011    1.421000    2.407181    0.127602
   6 H     1.0000    0     1.008    1.197957    3.281034    1.994609
   7 C     6.0000    0    12.011    3.536257    0.396909    0.287734
   8 H     1.0000    0     1.008    4.950695    0.760214   -1.177498
   9 C     6.0000    0    12.011    2.449941   -2.274963   -0.116398
  10 H     1.0000    0     1.008    3.841497   -3.655805    0.586858
  11 O     8.0000    0    15.999    0.324014   -2.691648    1.400879
  12 O     8.0000    0    15.999    1.987208   -2.638159   -2.688775
  13 O     8.0000    0    15.999    4.835186    0.494488    2.591636
  14 O     8.0000    0    15.999    1.992588    4.425964   -1.503934
  15 O     8.0000    0    15.999   -3.063887    3.032210   -0.465362
  16 O     8.0000    0    15.999   -6.308848   -1.174873    0.313408
  17 H     1.0000    0     1.008   -4.227244   -4.271820    1.024681
  18 H     1.0000    0     1.008   -3.705814   -2.920771   -2.017956
  19 H     1.0000    0     1.008    1.347617   -4.327086   -2.943525
  20 H     1.0000    0     1.008    3.736376   -0.122863    3.911527
  21 H     1.0000    0     1.008    2.433788    3.761117   -3.143787
  22 H     1.0000    0     1.008   -2.357362    4.645431   -0.956509
  23 H     1.0000    0     1.008   -6.027419    0.564404   -0.178317

--------------------------------
INTERNAL COORDINATES (ANGSTROEM)
--------------------------------
 C      0   0   0     0.000000000000     0.00000000     0.00000000
 C      1   0   0     1.538915732664     0.00000000     0.00000000
 H      2   1   0     1.098982729069   107.91076666     0.00000000
 C      2   1   3     1.531702508121   110.80527403   241.44638901
 H      4   2   1     1.102950256129   109.56919477   309.49754257
 C      4   2   1     1.536609507842   110.78921508   190.03439426
 H      6   4   2     1.097208066281   108.62989081   292.52686910
 C      6   4   2     1.546533061975   111.51515101    52.13680446
 H      8   6   4     1.094710193687   109.58834813   113.90686422
 C      8   6   4     1.541196490685   110.69981191   354.22844360
 H     10   8   6     1.102128112396   108.18999225   197.45129933
 O     10   8   6     1.399603281648   111.39141923   310.95312975
 O     10   8   6     1.396381868600   109.08346604    76.84293990
 O      8   6   4     1.400541417866   112.18230393   231.27919441
 O      6   4   2     1.406467875843   109.38589653   178.65132862
 O      4   2   1     1.410023297905   108.70833682    68.89264712
 O      1   2   3     1.397342968676   112.06576562    45.76209976
 H      1   2   3     1.093105906985   108.86603083   287.59850065
 H      1   2   3     1.102207657285   109.14017263   169.17268975
 H     13  10   8     0.965142686464   108.97236566   178.55401980
 H     14   8   6     0.965746877030   108.75995752    71.03915475
 H     15   6   4     0.965047792440   109.09303607   288.79797050
 H     16   4   2     0.967524490251   107.25451409   157.45180726
 H     17   1   2     0.967986488292   108.03631972    45.35035682

---------------------------
INTERNAL COORDINATES (A.U.)
---------------------------
 C      0   0   0     0.000000000000     0.00000000     0.00000000
 C      1   0   0     2.908129277918     0.00000000     0.00000000
 H      2   1   0     2.076776383850   107.91076666     0.00000000
 C      2   1   3     2.894498258989   110.80527403   241.44638901
 H      4   2   1     2.084273923422   109.56919477   309.49754257
 C      4   2   1     2.903771144601   110.78921508   190.03439426
 H      6   4   2     2.073422757200   108.62989081   292.52686910
 C      6   4   2     2.922523944187   111.51515101    52.13680446
 H      8   6   4     2.068702462080   109.58834813   113.90686422
 C      8   6   4     2.912439285955   110.69981191   354.22844360
 H     10   8   6     2.082720296924   108.18999225   197.45129933
 O     10   8   6     2.644866898452   111.39141923   310.95312975
 O     10   8   6     2.638779310027   109.08346604    76.84293990
 O      8   6   4     2.646639718981   112.18230393   231.27919441
 O      6   4   2     2.657839101501   109.38589653   178.65132862
 O      4   2   1     2.664557875488   108.70833682    68.89264712
 O      1   2   3     2.640595525957   112.06576562    45.76209976
 H      1   2   3     2.065670799574   108.86603083   287.59850065
 H      1   2   3     2.082870614979   109.14017263   169.17268975
 H     13  10   8     1.823855357575   108.97236566   178.55401980
 H     14   8   6     1.824997112276   108.75995752    71.03915475
 H     15   6   4     1.823676033857   109.09303607   288.79797050
 H     16   4   2     1.828356314436   107.25451409   157.45180726
 H     17   1   2     1.829229364208   108.03631972    45.35035682

---------------------
BASIS SET INFORMATION
---------------------
There are 3 groups of distinct atoms

 Group   1 Type C   : 7s4p1d contracted to 3s2p1d pattern {511/31/1}
 Group   2 Type H   : 4s contracted to 2s pattern {31}
 Group   3 Type O   : 7s4p1d contracted to 3s2p1d pattern {511/31/1}

Atom   0C    basis set group =>   1
Atom   1C    basis set group =>   1
Atom   2H    basis set group =>   2
Atom   3C    basis set group =>   1
Atom   4H    basis set group =>   2
Atom   5C    basis set group =>   1
Atom   6H    basis set group =>   2
Atom   7C    basis set group =>   1
Atom   8H    basis set group =>   2
Atom   9C    basis set group =>   1
Atom  10H    basis set group =>   2
Atom  11O    basis set group =>   3
Atom  12O    basis set group =>   3
Atom  13O    basis set group =>   3
Atom  14O    basis set group =>   3
Atom  15O    basis set group =>   3
Atom  16O    basis set group =>   3
Atom  17H    basis set group =>   2
Atom  18H    basis set group =>   2
Atom  19H    basis set group =>   2
Atom  20H    basis set group =>   2
Atom  21H    basis set group =>   2
Atom  22H    basis set group =>   2
Atom  23H    basis set group =>   2
---------------------------------
AUXILIARY/J BASIS SET INFORMATION
---------------------------------
There are 3 groups of distinct atoms

 Group   1 Type C   : 12s5p4d2f1g contracted to 6s4p3d1f1g pattern {711111/2111/211/2/1}
 Group   2 Type H   : 5s2p1d contracted to 3s1p1d pattern {311/2/1}
 Group   3 Type O   : 12s5p4d2f1g contracted to 6s4p3d1f1g pattern {711111/2111/211/2/1}

Atom   0C    basis set group =>   1
Atom   1C    basis set group =>   1
Atom   2H    basis set group =>   2
Atom   3C    basis set group =>   1
Atom   4H    basis set group =>   2
Atom   5C    basis set group =>   1
Atom   6H    basis set group =>   2
Atom   7C    basis set group =>   1
Atom   8H    basis set group =>   2
Atom   9C    basis set group =>   1
Atom  10H    basis set group =>   2
Atom  11O    basis set group =>   3
Atom  12O    basis set group =>   3
Atom  13O    basis set group =>   3
Atom  14O    basis set group =>   3
Atom  15O    basis set group =>   3
Atom  16O    basis set group =>   3
Atom  17H    basis set group =>   2
Atom  18H    basis set group =>   2
Atom  19H    basis set group =>   2
Atom  20H    basis set group =>   2
Atom  21H    basis set group =>   2
Atom  22H    basis set group =>   2
Atom  23H    basis set group =>   2
------------------------------------------------------------------------------
                             ORCA STARTUP CALCULATIONS
                           -- RI-GTO INTEGRALS CHOSEN --
------------------------------------------------------------------------------
------------------------------------------------------------------------------
                   ___                                                        
                  /   \      - P O W E R E D   B Y -                         
                 /     \                                                     
                 |  |  |   _    _      __       _____    __    __             
                 |  |  |  | |  | |    /  \     |  _  \  |  |  /  |          
                  \  \/   | |  | |   /    \    | | | |  |  | /  /          
                 / \  \   | |__| |  /  /\  \   | |_| |  |  |/  /          
                |  |  |   |  __  | /  /__\  \  |    /   |      \           
                |  |  |   | |  | | |   __   |  |    \   |  |\   \          
                \     /   | |  | | |  |  |  |  | |\  \  |  | \   \       
                 \___/    |_|  |_| |__|  |__|  |_| \__\ |__|  \__/        
                                                                              
                      - O R C A' S   B I G   F R I E N D -                    
                                      &                                       
                       - I N T E G R A L  F E E D E R -                       
                                                                              
 v1 FN, 2020, v2 2021, v3 2022-2024                                           
------------------------------------------------------------------------------


----------------------
SHARK INTEGRAL PACKAGE
----------------------

Number of atoms                             ...     24
Number of basis functions                   ...    192
Number of shells                            ...     96
Maximum angular momentum                    ...      2
Integral batch strategy                     ... SHARK/LIBINT Hybrid
RI-J (if used) integral strategy            ... SPLIT-RIJ (Revised 2003 algorithm where possible)
Printlevel                                  ...      1
Contraction scheme used                     ... SEGMENTED contraction
Prescreening option                         ... SCHWARTZ
   Thresh                                   ... 1.000e-09
   Tcut                                     ... 1.000e-10
   Tpresel                                  ... 1.000e-10 
Coulomb Range Separation                    ... NOT USED
Exchange Range Separation                   ... NOT USED
Multipole approximations                    ... NOT USED
Finite Nucleus Model                        ... NOT USED
CABS basis                                  ... NOT available
Auxiliary Coulomb fitting basis             ... AVAILABLE
   # of basis functions in Aux-J            ...    720
   # of shells in Aux-J                     ...    240
   Maximum angular momentum in Aux-J        ...      4
Auxiliary J/K fitting basis                 ... NOT available
Auxiliary Correlation fitting basis         ... NOT available
Auxiliary 'external' fitting basis          ... NOT available

Checking pre-screening integrals            ... done (  0.0 sec) Dimension = 96
Check shell pair data                       ... done (  0.0 sec)
Shell pair information
Shell pair cut-off parameter TPreSel        ...   1.0e-10
Total number of shell pairs                 ...      4656
Shell pairs after pre-screening             ...      4206
Total number of primitive shell pairs       ...     18720
Primitive shell pairs kept                  ...     11374
          la=0 lb=0:   1642 shell pairs
          la=1 lb=0:   1336 shell pairs
          la=1 lb=1:    286 shell pairs
          la=2 lb=0:    614 shell pairs
          la=2 lb=1:    262 shell pairs
          la=2 lb=2:     66 shell pairs

Calculating one electron integrals          ... done (  0.0 sec)
Calculating RI/J V-Matrix + Cholesky decomp.... done (  0.0 sec)
Calculating Nuclear repulsion               ... done (  0.0 sec) ENN=    843.323015566382 Eh

Diagonalization of the overlap matrix:
Smallest eigenvalue                        ... 5.230e-04
Time for diagonalization                   ...    0.003 sec
Threshold for overlap eigenvalues          ... 1.000e-07
Number of eigenvalues below threshold      ... 0
Time for construction of square roots      ...    0.004 sec
Total time needed                          ...    0.008 sec

-------------------
DFT GRID GENERATION
-------------------

General Integration Accuracy     IntAcc      ... 4.159
Radial Grid Type                 RadialGrid  ... OptM3 with GC (2021)
Angular Grid (max. ang.)         AngularGrid ... 3 (Lebedev-194)
Angular grid pruning method      GridPruning ... 4 (adaptive)
Weight generation scheme         WeightScheme... mBecke (2022)
Basis function cutoff            BFCut       ... 1.0000e-10
Integration weight cutoff        WCut        ... 1.0000e-14
Partially contracted basis set               ... off
Rotationally invariant grid construction     ... off
Angular grids for H and He will be reduced by one unit

Total number of grid points                  ...    55651
Total number of batches                      ...      879
Average number of points per batch           ...       63
Average number of grid points per atom       ...     2319
Initializing property integral containers    ... done (  0.0 sec)

SHARK setup successfully completed in   1.0 seconds

Maximum memory used throughout the entire STARTUP-calculation: 28.7 MB
-------------------------------------------------------------------------------
                                 ORCA GUESS
                   Start orbitals & Density for SCF / CASSCF
-------------------------------------------------------------------------------

------------
SCF SETTINGS
------------
Hamiltonian:
 Density Functional     Method          .... DFT(GTOs)
 Exchange Functional    Exchange        .... PBE
   PBE kappa parameter   XKappa         ....  0.804000
   PBE mue parameter    XMuePBE         ....  0.219520
 Correlation Functional Correlation     .... PBE
   PBE beta parameter  CBetaPBE         ....  0.066725
 LDA part of GGA corr.  LDAOpt          .... PW91-LDA
 Gradients option       PostSCFGGA      .... off
   NL short-range parameter             ....  6.400000
 RI-approximation to the Coulomb term is turned on
   Number of AuxJ basis functions       .... 720


General Settings:
 Integral files         IntName         .... sp
 Hartree-Fock type      HFTyp           .... RHF
 Total Charge           Charge          ....    0
 Multiplicity           Mult            ....    1
 Number of Electrons    NEL             ....   96
 Basis Dimension        Dim             ....  192
 Nuclear Repulsion      ENuc            ....    843.3230155664 Eh

Convergence Acceleration:
 AO-DIIS                CNVDIIS         .... on
   Start iteration      DIISMaxIt       ....    12
   Startup error        DIISStart       ....  0.200000
   # of expansion vecs  DIISMaxEq       ....     5
   Bias factor          DIISBfac        ....   1.050
   Max. coefficient     DIISMaxC        ....  10.000
 MO-DIIS                CNVKDIIS        .... off
 Trust-Rad. Augm. Hess. CNVTRAH         .... auto
   Auto Start mean grad. ratio tolernc. ....  1.125000
   Auto Start start iteration           ....    50
   Auto Start num. interpolation iter.  ....    10
   Max. Number of Micro iterations      ....    24
   Max. Number of Macro iterations      .... Maxiter - #DIIS iter
   Number of Davidson start vectors     ....     2
   Converg. threshold    (grad. norm)   ....   1.000e-04
   Grad. Scal. Fac. for Micro threshold ....   0.100
   Minimum threshold for Micro iter.    ....   1.000e-02
   NR start threshold (gradient norm)   ....   1.000e-04
   Initial trust radius                 ....   0.400
   Minimum AH scaling param. (alpha)    ....   1.000
   Maximum AH scaling param. (alpha)    .... 1000.000
   Quad. conv. algorithm                .... NR
   White noise on init. David. guess    .... on
   Maximum white noise                  ....   0.010
   Pseudo random numbers                .... off
   Inactive MOs                         .... canonical
   Orbital update algorithm             .... Taylor
   Preconditioner                       .... Diag
   Full preconditioner red. dimension   ....   250
 SOSCF                  CNVSOSCF        .... on
   Start iteration      SOSCFMaxIt      ....   150
   Startup grad/error   SOSCFStart      ....  0.003300
   Hessian update       SOSCFHessUp     .... L-BFGS
 Level Shifting         CNVShift        .... on
   Level shift para.    LevelShift      ....    0.2500
   Turn off err/grad.   ShiftErr        ....    0.0010
 Zerner damping         CNVZerner       .... off
 Static damping         CNVDamp         .... on
   Fraction old density DampFac         ....    0.7000
   Max. Damping (<1)    DampMax         ....    0.9800
   Min. Damping (>=0)   DampMin         ....    0.0000
   Turn off err/grad.   DampErr         ....    0.1000

SCF Procedure:
 Maximum # iterations   MaxIter         ....   125
 SCF integral mode      SCFMode         .... Direct
   Integral package                     .... SHARK and LIBINT hybrid scheme
 Reset frequency        DirectResetFreq ....    20
 Integral Threshold     Thresh          ....  1.000e-09 Eh
 Primitive CutOff       TCut            ....  1.000e-10 Eh

Convergence Tolerance:
 Convergence Check Mode ConvCheckMode   .... Total+1el-Energy
 Convergence forced     ConvForced      .... 0
 Energy Change          TolE            ....  1.000e-05 Eh
 1-El. energy change                    ....  1.000e-02 Eh
 Orbital Gradient       TolG            ....  1.000e-04
 Orbital Rotation angle TolX            ....  1.000e-04
 DIIS Error             TolErr          ....  5.000e-04

------------------------------
INITIAL GUESS: MODEL POTENTIAL
------------------------------
Loading Hartree-Fock densities                     ... done
Calculating cut-offs                               ... done
Initializing the effective Hamiltonian             ... done
Setting up the integral package (SHARK)            ... done
Starting the Coulomb interaction                   ... done (   0.2 sec)
Making the grid                                    ... done (   0.2 sec)
Mapping shells                                     ... done
Starting the XC term evaluation                    ... done (   0.2 sec)
  promolecular density results
     # of electrons  =     95.985467201
     EX              =    -83.242626877
     EC              =     -3.273036859
     EX+EC           =    -86.515663735
Transforming the Hamiltonian                       ... done (   0.0 sec)
Diagonalizing the Hamiltonian                      ... done (   0.0 sec)
Back transforming the eigenvectors                 ... done (   0.0 sec)
Now organizing SCF variables                       ... done
                      ------------------
                      INITIAL GUESS DONE (   0.6 sec)
                      ------------------
             **** ENERGY FILE WAS UPDATED (sp.en.tmp) ****
Finished Guess after   0.7 sec
Maximum memory used throughout the entire GUESS-calculation: 22.5 MB

-------------------------------------------------------------------------------------------
                                      ORCA LEAN-SCF
                              memory conserving SCF solver
-------------------------------------------------------------------------------------------

----------------------------------------D-I-I-S--------------------------------------------
Iteration    Energy (Eh)           Delta-E    RMSDP     MaxDP     DIISErr   Damp  Time(sec)
-------------------------------------------------------------------------------------------
               ***  Starting incremental Fock matrix formation  ***
    1    -685.5254315500392295     0.00e+00  4.83e-03  1.34e-01  2.22e-01  0.700  37.3
    2    -685.6739641351803130    -1.49e-01  3.07e-03  8.84e-02  8.43e-02  0.700  73.8
                               ***Turning on AO-DIIS***
    3    -685.7209499270707056    -4.70e-02  1.07e-03  2.44e-02  1.79e-02  0.700  35.2
    4    -685.7523395785674438    -3.14e-02  1.40e-03  2.32e-02  1.04e-02  0.000  24.3
    5    -685.8247792458721506    -7.24e-02  4.37e-04  1.32e-02  5.14e-03  0.000 285.0
                              *** Initializing SOSCF ***
---------------------------------------S-O-S-C-F--------------------------------------
Iteration    Energy (Eh)           Delta-E    RMSDP     MaxDP     MaxGrad    Time(sec)
--------------------------------------------------------------------------------------
    6    -685.8250973903730028    -3.18e-04  1.41e-04  3.46e-03  1.15e-03  1096.9
               *** Restarting incremental Fock matrix formation ***
    7    -685.8251244669334028    -2.71e-05  9.79e-05  2.65e-03  1.74e-04     7.9
    8    -685.8251237585286617     7.08e-07  3.84e-05  8.04e-04  2.32e-04     5.1
                 **** Energy Check signals convergence ****

               *****************************************************
               *                     SUCCESS                       *
               *           SCF CONVERGED AFTER   8 CYCLES          *
               *****************************************************

             **** ENERGY FILE WAS UPDATED (sp.en.tmp) ****

----------------
TOTAL SCF ENERGY
----------------

Total Energy       :       -685.82512375852866 Eh          -18662.25039 eV

Components:
Nuclear Repulsion  :        843.32301556638186 Eh           22947.98591 eV
Electronic Energy  :      -1529.14813932491052 Eh          -41610.23629 eV
One Electron Energy:      -2615.13098201434741 Eh          -71161.33179 eV
Two Electron Energy:       1085.98284268943689 Eh           29551.09550 eV

Virial components:
Potential Energy   :      -1366.99145442949566 Eh          -37197.72857 eV
Kinetic Energy     :        681.16633067096711 Eh           18535.47818 eV
Virial Ratio       :          2.00683943535931

DFT components:
N(Alpha)           :       48.000120357099 electrons
N(Beta)            :       48.000120357099 electrons
N(Total)           :       96.000240714198 electrons
E(X)               :      -84.613907771608 Eh       
E(C)               :       -3.284358892582 Eh       
E(XC)              :      -87.898266664190 Eh       

---------------
SCF CONVERGENCE
---------------

  Last Energy change         ...   -7.0840e-07  Tolerance :   1.0000e-05
  Last MAX-Density change    ...    8.0385e-04  Tolerance :   1.0000e-03
  Last RMS-Density change    ...    3.8375e-05  Tolerance :   1.0000e-04
  Last DIIS Error            ...    1.1497e-03  Tolerance :   5.0000e-04
  Last Orbital Gradient      ...    2.3170e-04  Tolerance :   1.0000e-04
  Last Orbital Rotation      ...    1.9795e-04  Tolerance :   1.0000e-04


----------------
ORBITAL ENERGIES
----------------

  NO   OCC          E(Eh)            E(eV) 
   0   2.0000     -18.785530      -511.1803 
   1   2.0000     -18.779379      -511.0129 
   2   2.0000     -18.771167      -510.7894 
   3   2.0000     -18.768358      -510.7130 
   4   2.0000     -18.759734      -510.4783 
   5   2.0000     -18.734706      -509.7973 
   6   2.0000      -9.997313      -272.0407 
   7   2.0000      -9.953259      -270.8419 
   8   2.0000      -9.952997      -270.8348 
   9   2.0000      -9.949803      -270.7479 
  10   2.0000      -9.949477      -270.7390 
  11   2.0000      -9.928200      -270.1601 
  12   2.0000      -0.997186       -27.1348 
  13   2.0000      -0.961206       -26.1557 
  14   2.0000      -0.942370       -25.6432 
  15   2.0000      -0.935747       -25.4630 
  16   2.0000      -0.926505       -25.2115 
  17   2.0000      -0.913437       -24.8559 
  18   2.0000      -0.711897       -19.3717 
  19   2.0000      -0.698491       -19.0069 
  20   2.0000      -0.621865       -16.9218 
  21   2.0000      -0.600295       -16.3348 
  22   2.0000      -0.577169       -15.7056 
  23   2.0000      -0.535687       -14.5768 
  24   2.0000      -0.519981       -14.1494 
  25   2.0000      -0.495214       -13.4755 
  26   2.0000      -0.474491       -12.9116 
  27   2.0000      -0.465350       -12.6628 
  28   2.0000      -0.454627       -12.3710 
  29   2.0000      -0.435751       -11.8574 
  30   2.0000      -0.430298       -11.7090 
  31   2.0000      -0.400205       -10.8901 
  32   2.0000      -0.395848       -10.7716 
  33   2.0000      -0.379336       -10.3223 
  34   2.0000      -0.368890       -10.0380 
  35   2.0000      -0.361913        -9.8481 
  36   2.0000      -0.345628        -9.4050 
  37   2.0000      -0.324704        -8.8356 
  38   2.0000      -0.316939        -8.6243 
  39   2.0000      -0.304664        -8.2903 
  40   2.0000      -0.286996        -7.8095 
  41   2.0000      -0.275690        -7.5019 
  42   2.0000      -0.268830        -7.3152 
  43   2.0000      -0.252663        -6.8753 
  44   2.0000      -0.243463        -6.6250 
  45   2.0000      -0.232451        -6.3253 
  46   2.0000      -0.214698        -5.8422 
  47   2.0000      -0.206894        -5.6299 
  48   0.0000       0.006458         0.1757 
  49   0.0000       0.015375         0.4184 
  50   0.0000       0.032113         0.8738 
  51   0.0000       0.039811         1.0833 
  52   0.0000       0.050322         1.3693 
  53   0.0000       0.072365         1.9691 
  54   0.0000       0.078613         2.1392 
  55   0.0000       0.082515         2.2453 
  56   0.0000       0.095305         2.5934 
  57   0.0000       0.104620         2.8469 
  58   0.0000       0.108332         2.9479 
*Only the first 10 virtual orbitals were printed.

                    ********************************
                    * MULLIKEN POPULATION ANALYSIS *
                    ********************************

-----------------------
MULLIKEN ATOMIC CHARGES
-----------------------
   0 C :    0.096999
   1 C :   -0.010607
   2 H :    0.077371
   3 C :    0.065074
   4 H :    0.059412
   5 C :    0.038663
   6 H :    0.063616
   7 C :    0.100830
   8 H :    0.070427
   9 C :    0.103080
  10 H :    0.076767
  11 O :   -0.309885
  12 O :   -0.393006
  13 O :   -0.414251
  14 O :   -0.419032
  15 O :   -0.426299
  16 O :   -0.441959
  17 H :    0.086448
  18 H :    0.047207
  19 H :    0.309201
  20 H :    0.300254
  21 H :    0.305730
  22 H :    0.310235
  23 H :    0.303727
Sum of atomic charges:    0.0000000

--------------------------------
MULLIKEN REDUCED ORBITAL CHARGES
--------------------------------
  0 C s       :     3.010837  s :     3.010837
      pz      :     1.025743  p :     2.827870
      px      :     0.793899
      py      :     1.008227
      dz2     :     0.012291  d :     0.064294
      dxz     :     0.012619
      dyz     :     0.009480
      dx2y2   :     0.015901
      dxy     :     0.014004

  1 C s       :     3.093557  s :     3.093557
      pz      :     1.061213  p :     2.852702
      px      :     0.868559
      py      :     0.922930
      dz2     :     0.011585  d :     0.064348
      dxz     :     0.010923
      dyz     :     0.011151
      dx2y2   :     0.012738
      dxy     :     0.017950

  2 H s       :     0.922629  s :     0.922629

  3 C s       :     3.024574  s :     3.024574
      pz      :     1.081008  p :     2.842825
      px      :     0.872806
      py      :     0.889011
      dz2     :     0.014061  d :     0.067527
      dxz     :     0.009441
      dyz     :     0.013063
      dx2y2   :     0.013460
      dxy     :     0.017502

  4 H s       :     0.940588  s :     0.940588

  5 C s       :     3.041827  s :     3.041827
      pz      :     0.963541  p :     2.852368
      px      :     0.960460
      py      :     0.928366
      dz2     :     0.013734  d :     0.067142
      dxz     :     0.007808
      dyz     :     0.016875
      dx2y2   :     0.011918
      dxy     :     0.016807

  6 H s       :     0.936384  s :     0.936384

  7 C s       :     3.016109  s :     3.016109
      pz      :     0.844537  p :     2.815990
      px      :     0.992703
      py      :     0.978750
      dz2     :     0.015005  d :     0.067072
      dxz     :     0.019497
      dyz     :     0.011778
      dx2y2   :     0.008886
      dxy     :     0.011906

  8 H s       :     0.929573  s :     0.929573

  9 C s       :     3.029736  s :     3.029736
      pz      :     0.769156  p :     2.766535
      px      :     0.893405
      py      :     1.103973
      dz2     :     0.029073  d :     0.100649
      dxz     :     0.028166
      dyz     :     0.014851
      dx2y2   :     0.011319
      dxy     :     0.017240

 10 H s       :     0.923233  s :     0.923233

 11 O s       :     3.750350  s :     3.750350
      pz      :     1.656078  p :     4.544348
      px      :     1.258853
      py      :     1.629417
      dz2     :     0.002284  d :     0.015187
      dxz     :     0.003756
      dyz     :     0.002286
      dx2y2   :     0.002485
      dxy     :     0.004376

 12 O s       :     3.773789  s :     3.773789
      pz      :     1.393026  p :     4.604043
      px      :     1.789816
      py      :     1.421201
      dz2     :     0.005983  d :     0.015174
      dxz     :     0.001773
      dyz     :     0.001815
      dx2y2   :     0.003162
      dxy     :     0.002441

 13 O s       :     3.789661  s :     3.789661
      pz      :     1.193343  p :     4.608661
      px      :     1.579086
      py      :     1.836231
      dz2     :     0.001481  d :     0.015929
      dxz     :     0.007514
      dyz     :     0.002098
      dx2y2   :     0.002223
      dxy     :     0.002613

 14 O s       :     3.792789  s :     3.792789
      pz      :     1.247299  p :     4.610587
      px      :     1.829508
      py      :     1.533780
      dz2     :     0.003769  d :     0.015656
      dxz     :     0.001164
      dyz     :     0.005591
      dx2y2   :     0.002828
      dxy     :     0.002303

 15 O s       :     3.772656  s :     3.772656
      pz      :     1.863283  p :     4.638752
      px      :     1.541257
      py      :     1.234213
      dz2     :     0.002036  d :     0.014891
      dxz     :     0.002063
      dyz     :     0.001904
      dx2y2   :     0.003207
      dxy     :     0.005682

 16 O s       :     3.777982  s :     3.777982
      pz      :     1.852930  p :     4.648141
      px      :     1.504972
      py      :     1.290240
      dz2     :     0.002155  d :     0.015835
      dxz     :     0.002378
      dyz     :     0.002058
      dx2y2   :     0.006144
      dxy     :     0.003100

 17 H s       :     0.913552  s :     0.913552

 18 H s       :     0.952793  s :     0.952793

 19 H s       :     0.690799  s :     0.690799

 20 H s       :     0.699746  s :     0.699746

 21 H s       :     0.694270  s :     0.694270

 22 H s       :     0.689765  s :     0.689765

 23 H s       :     0.696273  s :     0.696273


------------------------
MULLIKEN OVERLAP CHARGES
------------------------
B(  0-C ,  1-C ) :   0.6768 B(  0-C ,  2-H ) :  -0.1001 B(  0-C , 11-O ) :  -0.0696 
B(  0-C , 16-O ) :   0.6905 B(  0-C , 17-H ) :   0.6830 B(  0-C , 18-H ) :   0.6269 
B(  0-C , 23-H ) :  -0.0913 B(  1-C ,  2-H ) :   0.6441 B(  1-C ,  3-C ) :   0.2202 
B(  1-C ,  9-C ) :  -0.1681 B(  1-C , 11-O ) :   0.4738 B(  1-C , 15-O ) :  -0.0821 
B(  1-C , 16-O ) :  -0.0666 B(  2-H ,  3-C ) :  -0.0821 B(  3-C ,  4-H ) :   0.5301 
B(  3-C ,  5-C ) :   0.3844 B(  3-C ,  9-C ) :   0.1003 B(  3-C , 11-O ) :  -0.0853 
B(  3-C , 12-O ) :  -0.0718 B(  3-C , 14-O ) :  -0.0848 B(  3-C , 15-O ) :   0.5390 
B(  3-C , 18-H ) :  -0.0733 B(  3-C , 22-H ) :  -0.0908 B(  4-H , 12-O ) :   0.0591 
B(  4-H , 15-O ) :  -0.0677 B(  5-C ,  6-H ) :   0.5307 B(  5-C , 13-O ) :  -0.0843 
B(  5-C , 14-O ) :   0.5264 B(  5-C , 21-H ) :  -0.1167 B(  6-H , 14-O ) :  -0.0632 
B(  7-C ,  8-H ) :   0.5494 B(  7-C ,  9-C ) :   0.3579 B(  7-C , 10-H ) :  -0.0990 
B(  7-C , 12-O ) :  -0.1177 B(  7-C , 13-O ) :   0.5426 B(  7-C , 20-H ) :  -0.1247 
B(  9-C , 10-H ) :   0.7210 B(  9-C , 11-O ) :   0.6266 B(  9-C , 12-O ) :   0.5411 
B( 10-H , 11-O ) :  -0.0846 B( 11-O , 12-O ) :  -0.1406 B( 12-O , 19-H ) :   0.4873 
B( 13-O , 20-H ) :   0.5403 B( 14-O , 21-H ) :   0.5424 B( 14-O , 22-H ) :   0.0678 
B( 15-O , 22-H ) :   0.5205 B( 15-O , 23-H ) :   0.0855 B( 16-O , 17-H ) :  -0.0594 
B( 16-O , 18-H ) :  -0.0637 B( 16-O , 23-H ) :   0.5540 B( 17-H , 18-H ) :  -0.0963 



                     *******************************
                     * LOEWDIN POPULATION ANALYSIS *
                     *******************************

----------------------
LOEWDIN ATOMIC CHARGES
----------------------
   0 C :   -0.125227
   1 C :   -0.069764
   2 H :    0.115733
   3 C :   -0.092570
   4 H :    0.104075
   5 C :   -0.077995
   6 H :    0.120589
   7 C :   -0.078395
   8 H :    0.122569
   9 C :   -0.018404
  10 H :    0.102570
  11 O :   -0.141904
  12 O :   -0.312393
  13 O :   -0.305151
  14 O :   -0.307147
  15 O :   -0.319007
  16 O :   -0.337745
  17 H :    0.111640
  18 H :    0.087819
  19 H :    0.288853
  20 H :    0.283199
  21 H :    0.287553
  22 H :    0.286947
  23 H :    0.274156

-------------------------------
LOEWDIN REDUCED ORBITAL CHARGES
-------------------------------
  0 C s       :     2.921970  s :     2.921970
      pz      :     1.101016  p :     3.056609
      px      :     0.911170
      py      :     1.044422
      dz2     :     0.028338  d :     0.146649
      dxz     :     0.028291
      dyz     :     0.021985
      dx2y2   :     0.034572
      dxy     :     0.033463

  1 C s       :     2.902215  s :     2.902215
      pz      :     1.097593  p :     3.017573
      px      :     0.928938
      py      :     0.991043
      dz2     :     0.025019  d :     0.149976
      dxz     :     0.024300
      dyz     :     0.028544
      dx2y2   :     0.028159
      dxy     :     0.043953

  2 H s       :     0.884267  s :     0.884267

  3 C s       :     2.896399  s :     2.896399
      pz      :     1.105287  p :     3.038285
      px      :     0.963376
      py      :     0.969621
      dz2     :     0.032507  d :     0.157887
      dxz     :     0.019903
      dyz     :     0.032981
      dx2y2   :     0.030385
      dxy     :     0.042110

  4 H s       :     0.895925  s :     0.895925

  5 C s       :     2.896807  s :     2.896807
      pz      :     1.016224  p :     3.024685
      px      :     1.049415
      py      :     0.959045
      dz2     :     0.031355  d :     0.156503
      dxz     :     0.015867
      dyz     :     0.038827
      dx2y2   :     0.026112
      dxy     :     0.044342

  6 H s       :     0.879411  s :     0.879411

  7 C s       :     2.898854  s :     2.898854
      pz      :     0.935879  p :     3.023850
      px      :     1.029518
      py      :     1.058453
      dz2     :     0.034344  d :     0.155691
      dxz     :     0.044488
      dyz     :     0.023734
      dx2y2   :     0.020149
      dxy     :     0.032976

  8 H s       :     0.877431  s :     0.877431

  9 C s       :     2.888492  s :     2.888492
      pz      :     0.866557  p :     2.902905
      px      :     0.943348
      py      :     1.093000
      dz2     :     0.069735  d :     0.227008
      dxz     :     0.063883
      dyz     :     0.028636
      dx2y2   :     0.025659
      dxy     :     0.039094

 10 H s       :     0.897430  s :     0.897430

 11 O s       :     3.468235  s :     3.468235
      pz      :     1.679640  p :     4.643879
      px      :     1.311932
      py      :     1.652306
      dz2     :     0.003831  d :     0.029790
      dxz     :     0.008190
      dyz     :     0.003007
      dx2y2   :     0.005688
      dxy     :     0.009075

 12 O s       :     3.537457  s :     3.537457
      pz      :     1.469888  p :     4.747789
      px      :     1.798205
      py      :     1.479696
      dz2     :     0.011710  d :     0.027146
      dxz     :     0.002838
      dyz     :     0.003536
      dx2y2   :     0.005054
      dxy     :     0.004009

 13 O s       :     3.534031  s :     3.534031
      pz      :     1.275729  p :     4.743234
      px      :     1.634837
      py      :     1.832667
      dz2     :     0.003764  d :     0.027885
      dxz     :     0.014104
      dyz     :     0.004101
      dx2y2   :     0.002658
      dxy     :     0.003258

 14 O s       :     3.536657  s :     3.536657
      pz      :     1.325108  p :     4.743123
      px      :     1.822710
      py      :     1.595305
      dz2     :     0.007068  d :     0.027368
      dxz     :     0.002413
      dyz     :     0.010503
      dx2y2   :     0.004065
      dxy     :     0.003319

 15 O s       :     3.523554  s :     3.523554
      pz      :     1.875219  p :     4.769157
      px      :     1.591292
      py      :     1.302646
      dz2     :     0.003213  d :     0.026297
      dxz     :     0.002686
      dyz     :     0.003359
      dx2y2   :     0.006157
      dxy     :     0.010882

 16 O s       :     3.528119  s :     3.528119
      pz      :     1.864434  p :     4.782381
      px      :     1.554421
      py      :     1.363527
      dz2     :     0.003354  d :     0.027246
      dxz     :     0.003087
      dyz     :     0.003420
      dx2y2   :     0.011156
      dxy     :     0.006228

 17 H s       :     0.888360  s :     0.888360

 18 H s       :     0.912181  s :     0.912181

 19 H s       :     0.711147  s :     0.711147

 20 H s       :     0.716801  s :     0.716801

 21 H s       :     0.712447  s :     0.712447

 22 H s       :     0.713053  s :     0.713053

 23 H s       :     0.725844  s :     0.725844


---------------------------------
LOEWDIN BOND ORDERS (THRESH 0.050000)
---------------------------------
B(  0-C ,  1-C ) :   1.0540 B(  0-C ,  3-C ) :   0.0597 B(  0-C , 11-O ) :   0.0696 
B(  0-C , 16-O ) :   1.2643 B(  0-C , 17-H ) :   0.9101 B(  0-C , 18-H ) :   0.9020 
B(  1-C ,  2-H ) :   0.8732 B(  1-C ,  3-C ) :   1.0213 B(  1-C ,  5-C ) :   0.0558 
B(  1-C ,  9-C ) :   0.0626 B(  1-C , 11-O ) :   1.1145 B(  1-C , 15-O ) :   0.0636 
B(  1-C , 16-O ) :   0.0844 B(  3-C ,  4-H ) :   0.8555 B(  3-C ,  5-C ) :   1.0278 
B(  3-C ,  7-C ) :   0.0545 B(  3-C , 11-O ) :   0.0508 B(  3-C , 14-O ) :   0.0841 
B(  3-C , 15-O ) :   1.1999 B(  5-C ,  6-H ) :   0.8666 B(  5-C ,  7-C ) :   1.0110 
B(  5-C ,  9-C ) :   0.0547 B(  5-C , 13-O ) :   0.0772 B(  5-C , 14-O ) :   1.2183 
B(  5-C , 15-O ) :   0.0719 B(  7-C ,  8-H ) :   0.8689 B(  7-C ,  9-C ) :   1.0150 
B(  7-C , 11-O ) :   0.0650 B(  7-C , 12-O ) :   0.0613 B(  7-C , 13-O ) :   1.2375 
B(  7-C , 14-O ) :   0.0698 B(  9-C , 10-H ) :   0.8804 B(  9-C , 11-O ) :   1.2046 
B(  9-C , 12-O ) :   1.2490 B(  9-C , 13-O ) :   0.0848 B( 11-O , 12-O ) :   0.0961 
B( 12-O , 19-H ) :   0.8709 B( 13-O , 20-H ) :   0.8788 B( 14-O , 21-H ) :   0.8822 
B( 15-O , 22-H ) :   0.8580 B( 15-O , 23-H ) :   0.0715 B( 16-O , 23-H ) :   0.8627 


------------------------------------------
LOEWDIN REDUCED ORBITAL POPULATIONS PER MO
-------------------------------------------
THRESHOLD FOR PRINTING IS 0.1%%
                      0         1         2         3         4         5   
                 -18.78553 -18.77938 -18.77117 -18.76836 -18.75973 -18.73471
                   2.00000   2.00000   2.00000   2.00000   2.00000   2.00000
                  --------  --------  --------  --------  --------  --------
11 O  s              99.9       0.0       0.0       0.0       0.0       0.0
12 O  s               0.0      99.9       0.0       0.0       0.0       0.0
13 O  s               0.0       0.0       0.0       0.0      99.9       0.0
14 O  s               0.0       0.0      99.9       0.0       0.0       0.0
15 O  s               0.0       0.0       0.0      99.9       0.0       0.0
16 O  s               0.0       0.0       0.0       0.0       0.0      99.9

                      6         7         8         9        10        11   
                  -9.99731  -9.95326  -9.95300  -9.94980  -9.94948  -9.92820
                   2.00000   2.00000   2.00000   2.00000   2.00000   2.00000
                  --------  --------  --------  --------  --------  --------
 0 C  s               0.0       0.0       0.0       0.0       0.0      99.6
 1 C  s               0.0       0.0       0.0      99.3       0.3       0.0
 3 C  s               0.0       0.0       0.0       0.3      99.3       0.0
 5 C  s               0.0       3.1      96.5       0.0       0.0       0.0
 7 C  s               0.0      96.5       3.1       0.0       0.0       0.0
 9 C  s              99.6       0.0       0.0       0.0       0.0       0.0
12 O  pz              0.1       0.0       0.0       0.0       0.0       0.0

                     12        13        14        15        16        17   
                  -0.99719  -0.96121  -0.94237  -0.93575  -0.92651  -0.91344
                   2.00000   2.00000   2.00000   2.00000   2.00000   2.00000
                  --------  --------  --------  --------  --------  --------
 0 C  s               0.3       0.1       0.5       0.9       0.5       9.3
 0 C  px              0.3       0.0       0.0       0.1       0.1       6.2
 0 C  py              0.1       0.1       0.2       0.3       0.0       2.6
 0 C  dz2             0.0       0.0       0.0       0.0       0.0       0.2
 0 C  dxy             0.0       0.0       0.0       0.0       0.0       0.5
 1 C  s               4.3       0.2       0.7       1.7       2.9       0.1
 1 C  pz              0.0       0.2       0.1       0.0       0.1       0.1
 1 C  px              2.7       0.1       0.0       0.1       1.7       2.2
 1 C  py              1.0       0.8       0.1       0.0       1.8       0.0
 1 C  dxy             0.2       0.0       0.0       0.0       0.2       0.1
 2 H  s               0.5       0.0       0.1       0.3       0.3       0.0
 3 C  s               1.1       5.8       2.4       1.4       0.4       0.3
 3 C  pz              0.2       0.0       0.0       0.1       0.1       0.0
 3 C  px              0.0       0.3       2.2       2.0       1.0       0.1
 3 C  py              0.2       3.3       0.7       0.1       1.4       0.3
 3 C  dz2             0.0       0.1       0.1       0.0       0.0       0.0
 3 C  dxy             0.0       0.1       0.2       0.2       0.1       0.0
 4 H  s               0.4       0.7       0.3       0.1       0.1       0.0
 5 C  s               0.8       8.2       0.7       1.3       0.3       0.0
 5 C  pz              0.0       2.4       0.0       1.7       0.3       0.0
 5 C  px              0.0       0.0       2.1       0.3       0.1       0.1
 5 C  py              0.2       1.9       0.0       2.7       0.5       0.0
 5 C  dyz             0.0       0.3       0.0       0.2       0.0       0.0
 6 H  s               0.1       1.2       0.2       0.1       0.0       0.0
 7 C  s               2.5       0.9       6.8       1.0       0.8       0.0
 7 C  pz              0.1       0.1       4.7       2.7       0.4       0.0
 7 C  px              0.4       0.1       1.0       0.7       0.5       0.0
 7 C  py              0.9       0.9       0.1       0.1       0.1       0.0
 7 C  dz2             0.0       0.0       0.3       0.1       0.1       0.0
 7 C  dxz             0.0       0.0       0.3       0.1       0.0       0.0
 8 H  s               0.4       0.2       0.9       0.0       0.1       0.0
 9 C  s              15.6       0.5       0.0       0.1       0.1       0.0
 9 C  pz              0.2       0.3       0.3       4.6       8.1       0.6
 9 C  px              3.8       0.2       0.7       0.0       1.9       0.2
 9 C  py              0.1       0.3       0.7       0.3       0.0       0.0
 9 C  dz2             0.2       0.0       0.0       0.2       0.3       0.0
 9 C  dxz             0.1       0.0       0.0       0.1       0.5       0.0
 9 C  dx2y2           0.1       0.0       0.0       0.0       0.1       0.0
10 H  s               1.9       0.0       0.0       0.0       0.0       0.0
11 O  s              27.3       0.6       0.5       3.9      20.7       1.8
11 O  pz              1.3       0.0       0.0       0.0       0.2       0.0
11 O  px              0.2       0.0       0.0       0.1       0.1       0.0
11 O  py              0.7       0.0       0.0       0.2       0.6       0.0
12 O  s              20.6       2.9       0.6      13.0      22.1       1.2
12 O  pz              1.7       0.1       0.0       0.2       0.3       0.0
12 O  py              0.3       0.1       0.0       0.4       0.6       0.0
13 O  s               1.8       1.6      36.3      11.8       6.0       0.1
13 O  pz              0.1       0.0       0.1       0.0       0.0       0.0
13 O  px              0.2       0.1       2.0       0.6       0.3       0.0
13 O  py              0.0       0.0       0.2       0.1       0.0       0.0
14 O  s               0.6      30.0       2.8      19.9       4.9       0.4
14 O  py              0.1       1.9       0.2       1.0       0.2       0.0
15 O  s               0.6      19.4      16.4      10.0       9.2       2.9
15 O  px              0.1       1.2       0.8       0.4       0.4       0.2
16 O  s               0.1       0.3       1.3       2.6       0.4      53.2
16 O  pz              0.0       0.0       0.0       0.0       0.0       0.3
16 O  px              0.0       0.0       0.1       0.2       0.0       2.7
16 O  py              0.0       0.0       0.0       0.0       0.0       0.2
17 H  s               0.1       0.0       0.1       0.1       0.1       1.0
18 H  s               0.1       0.0       0.1       0.1       0.0       1.0
19 H  s               4.2       0.6       0.1       2.6       4.4       0.2
20 H  s               0.5       0.3       7.3       2.4       1.1       0.0
21 H  s               0.1       6.1       0.6       4.1       1.0       0.1
22 H  s               0.2       4.6       3.0       1.6       1.7       0.7
23 H  s               0.1       0.3       0.6       0.8       0.0      10.2

                     18        19        20        21        22        23   
                  -0.71190  -0.69849  -0.62186  -0.60029  -0.57717  -0.53569
                   2.00000   2.00000   2.00000   2.00000   2.00000   2.00000
                  --------  --------  --------  --------  --------  --------
 0 C  s               2.4       3.0      11.4       1.3      12.1       0.6
 0 C  pz              0.1       0.2       0.0       0.2       0.3       0.8
 0 C  px              2.2       2.3       1.5       0.0       0.2       0.2
 0 C  py              0.2       0.0       0.3       0.9       2.2       0.1
 0 C  dxy             0.1       0.1       0.1       0.0       0.0       0.0
 1 C  s              11.7       8.2       2.3       0.0       2.0       1.9
 1 C  pz              1.0       0.0       0.1       2.3       1.5       2.3
 1 C  px              0.1       0.5       4.5       0.1       2.7       0.2
 1 C  py              2.1       0.9       1.2       6.6       0.7       0.2
 1 C  dxy             0.1       0.0       0.1       0.1       0.2       0.0
 2 H  s               2.3       1.6       0.5       0.0       1.1       1.6
 3 C  s              13.9       0.0       1.8       9.0       0.0       1.8
 3 C  pz              1.1       0.1       0.0       0.4       0.2       1.4
 3 C  px              1.8       2.1       2.8       0.9       0.8       1.2
 3 C  py              2.7       1.1       1.1       1.5       1.2       0.0
 3 C  dxy             0.2       0.0       0.0       0.0       0.1       0.0
 4 H  s               2.8       0.0       0.2       3.2       0.0       1.3
 5 C  s               9.3       5.1       5.9       4.1       3.0       0.2
 5 C  pz              0.2       0.1       0.5       1.5       0.2       0.2
 5 C  px              0.9       0.6       2.4       4.1       1.3       0.3
 5 C  py              3.3       2.1       0.3       0.3       1.8       0.7
 5 C  dxy             0.0       0.1       0.0       0.1       0.0       0.0
 6 H  s               1.9       0.8       2.6       2.1       1.8       0.5
 7 C  s               2.5      12.2       4.3       3.8       3.3       1.9
 7 C  pz              0.4       1.7       1.2       0.1       0.6       0.7
 7 C  px              1.4       2.1       1.1       0.0       1.4       2.5
 7 C  py              1.1       0.5       3.1       5.0       0.0       1.6
 7 C  dz2             0.0       0.2       0.0       0.0       0.0       0.0
 8 H  s               0.5       2.6       2.3       1.6       2.5       1.2
 9 C  s               0.8      10.4       4.1       4.0       1.3       1.3
 9 C  pz              1.0       0.8       0.2       0.1       0.8       7.1
 9 C  px              0.5       0.9       3.2       0.0       0.4       0.6
 9 C  py              2.3       2.3       1.1       0.5       3.0       0.8
 9 C  dz2             0.0       0.1       0.0       0.0       0.0       0.2
10 H  s               0.4       2.1       1.3       1.7       1.1       0.0
11 O  s               3.6       0.2       1.4       1.0       0.0       0.7
11 O  pz              0.1       0.4       0.1       0.9       0.9       0.1
11 O  px              3.5       8.6       0.0       5.6       6.5       4.4
11 O  py              1.0       0.2       0.0       0.1       2.1       1.6
12 O  s               0.0       2.2       0.5       0.6       0.3       0.0
12 O  pz              0.1       2.2       2.1       2.4       0.6       9.0
12 O  px              0.0       0.5       1.0       0.2       0.0       3.6
12 O  py              0.1       1.8       2.1       1.1       0.1      11.1
12 O  dz2             0.0       0.1       0.0       0.1       0.0       0.2
13 O  s               0.6       4.2       0.5       0.4       0.1       0.1
13 O  pz              0.5       3.1       3.0       3.7       4.5      11.5
13 O  px              0.0       0.1       0.0       0.0       0.1       0.1
13 O  py              0.1       0.0       0.0       0.7       0.1       0.6
13 O  dxz             0.0       0.1       0.0       0.1       0.0       0.1
14 O  s               2.3       1.6       0.7       0.6       0.1       0.0
14 O  pz              1.5       1.1       4.0       5.2       5.7       1.7
14 O  px              0.2       0.0       0.8       0.1       1.2       0.4
14 O  py              0.4       0.3       0.4       0.4       0.3       0.0
15 O  s               3.9       0.0       0.7       1.0       0.2       0.0
15 O  pz              0.1       0.0       0.0       0.0       0.0       0.0
15 O  px              0.5       0.0       0.4       0.4       0.5       0.2
15 O  py              3.2       0.1       0.3       9.7       0.2       6.0
15 O  dxy             0.1       0.0       0.0       0.1       0.0       0.1
16 O  s               1.3       1.2       2.5       0.0       1.2       0.1
16 O  px              0.2       0.2       1.6       0.1       2.3       0.2
16 O  py              0.2       0.3       3.0       0.7       8.2       0.7
17 H  s               0.4       0.7       3.3       0.9       4.9       0.2
18 H  s               0.6       0.7       2.8       0.2       4.3       0.8
19 H  s               0.0       2.0       1.5       1.2       0.0       6.5
20 H  s               0.3       1.9       1.0       1.3       1.4       3.4
21 H  s               1.1       0.7       1.7       1.8       2.1       0.5
22 H  s               2.1       0.0       0.2       3.2       0.0       1.7
23 H  s               0.4       0.4       1.8       0.2       3.5       0.2

                     24        25        26        27        28        29   
                  -0.51998  -0.49521  -0.47449  -0.46535  -0.45463  -0.43575
                   2.00000   2.00000   2.00000   2.00000   2.00000   2.00000
                  --------  --------  --------  --------  --------  --------
 0 C  s               0.4       0.0       0.2       0.0       0.1       0.1
 0 C  pz              0.9       0.8       2.7       0.9       0.0       0.4
 0 C  px              1.1       0.7       4.9       5.9       0.9       3.1
 0 C  py              1.8       0.0       1.0       0.9       0.2       0.5
 1 C  s               2.9       0.8       0.0       1.4       0.2       0.0
 1 C  pz              2.3       2.7       6.4       2.8       0.3       0.5
 1 C  px              3.5       0.1       1.5       0.2       0.3       1.6
 1 C  py              1.9       3.5       0.1       0.2       2.8       2.3
 1 C  dxy             0.0       0.1       0.0       0.1       0.0       0.0
 2 H  s               4.4       2.9       0.6       0.0       0.1       0.1
 3 C  s               0.7       0.5       1.7       0.3       0.1       0.1
 3 C  pz              6.4       6.5       0.3       2.5       3.4       0.0
 3 C  px              5.9       1.3       2.8       4.6       1.2       1.6
 3 C  py              0.1       0.2       5.0       3.9       0.7       2.5
 3 C  dx2y2           0.0       0.0       0.0       0.2       0.1       0.1
 3 C  dxy             0.0       0.0       0.0       0.4       0.1       0.0
 4 H  s               3.8       2.3       0.3       2.5       0.4       0.0
 5 C  s               0.1       0.1       0.2       0.1       0.0       2.0
 5 C  pz              2.6       2.2       1.9       2.1       4.2       0.4
 5 C  px              0.3       0.1      10.0       1.6       2.6       0.1
 5 C  py              8.0       5.4       0.2       0.3       0.2       4.5
 5 C  dyz             0.1       0.0       0.0       0.0       0.0       0.2
 5 C  dx2y2           0.0       0.0       0.0       0.0       0.0       0.4
 6 H  s               1.8       0.3       0.5       0.6       1.5       0.7
 7 C  s               0.0       0.1       0.1       0.0       1.0       0.1
 7 C  pz              0.9       0.6       0.0       0.3       7.0       0.3
 7 C  px              1.8       8.1       4.2       0.7       2.2       0.0
 7 C  py              0.2       0.7       4.7       2.3       1.3       6.6
 7 C  dxz             0.0       0.1       0.0       0.0       0.3       0.0
 7 C  dyz             0.0       0.0       0.0       0.0       0.1       0.0
 7 C  dx2y2           0.1       0.0       0.0       0.0       0.2       0.0
 7 C  dxy             0.0       0.0       0.0       0.0       0.0       0.2
 8 H  s               0.0       1.2       0.2       0.1       1.2       0.2
 9 C  s               1.7       0.2       0.1       0.5       0.2       0.0
 9 C  pz              1.4       5.7       0.1       2.1       1.9       1.0
 9 C  px              3.2       0.4       7.7       1.9       5.4       1.1
 9 C  py              4.9       0.5       0.2       0.6       1.7      14.2
 9 C  dz2             0.0       0.1       0.0       0.2       0.1       0.0
 9 C  dx2y2           0.0       0.1       0.0       0.0       0.1       0.0
10 H  s               4.9       0.5       2.1       2.8       0.8       3.8
11 O  s               0.1       1.1       0.5       1.1       0.5       0.4
11 O  pz              0.3       0.6       5.8       0.5       4.4       0.3
11 O  px              1.1       3.4       2.6       0.0       0.8       1.2
11 O  py              0.6       1.5       0.0       0.0       0.1      10.1
12 O  s               0.2       0.0       0.0       0.5       0.0       0.8
12 O  pz              0.1       4.4       0.5       0.9       6.3       3.9
12 O  px              0.4       0.6       1.5       0.4       0.1       1.5
12 O  py              2.4       5.3       0.2       3.0       1.1       1.3
13 O  s               0.1       1.2       0.1       0.0       0.9       0.1
13 O  pz              2.0       2.6       2.3       1.2      15.0       0.5
13 O  px              0.0       2.3       0.9       0.2       1.0       0.1
13 O  py              0.0       0.7       0.7       0.6       3.3       1.4
13 O  dxz             0.0       0.0       0.0       0.0       0.1       0.0
14 O  s               0.6       0.0       0.0       0.0       0.2       2.5
14 O  pz              8.7       9.4       0.1       1.2       2.1      11.9
14 O  px              0.1       0.9       2.7       2.2       0.0       0.9
14 O  py              0.1       0.5       0.0       0.0       2.5       1.6
15 O  s               0.0       0.0       1.6       0.8       0.3       0.1
15 O  pz              1.5       0.5       0.1       1.7       0.3       0.0
15 O  px              0.1       0.2       6.4       0.3       0.2       0.3
15 O  py              4.7       4.5       0.0      20.9       5.2       0.0
15 O  dxy             0.0       0.0       0.0       0.2       0.0       0.0
16 O  s               0.2       0.0       0.8       0.0       0.1       0.0
16 O  pz              0.1       0.2       0.6       0.3       0.1       0.0
16 O  px              0.0       0.3       0.1       0.5       0.1       0.7
16 O  py              1.9       1.2       6.9       8.1       1.8       5.2
17 H  s               0.4       0.0       0.5       0.7       0.1       0.6
18 H  s               0.7       0.2       1.5       0.6       0.2       0.0
19 H  s               0.2       3.0       0.0       1.2       1.3       0.1
20 H  s               0.6       1.1       0.5       0.3       5.5       0.0
21 H  s               2.2       3.0       0.0       0.7       0.6       3.6
22 H  s               1.4       1.1       0.0       6.5       1.4       0.0
23 H  s               0.5       0.5       2.4       1.9       0.8       1.4

                     30        31        32        33        34        35   
                  -0.43030  -0.40020  -0.39585  -0.37934  -0.36889  -0.36191
                   2.00000   2.00000   2.00000   2.00000   2.00000   2.00000
                  --------  --------  --------  --------  --------  --------
 0 C  s               0.7       0.0       0.7       0.1       0.1       0.2
 0 C  pz              7.7      13.6       0.0       7.7       6.2       1.1
 0 C  px              1.3       2.2       2.2       0.1       0.9       0.3
 0 C  py              4.4       0.0       1.8       6.9       2.7      19.9
 0 C  dz2             0.1       0.0       0.1       0.1       0.1       0.0
 0 C  dyz             0.0       0.0       0.0       0.1       0.0       0.1
 0 C  dx2y2           0.0       0.1       0.2       0.0       0.0       0.2
 1 C  s               1.1       0.1       0.0       0.1       0.0       0.1
 1 C  pz              1.1       2.5       0.6       1.4       5.2       0.7
 1 C  px              2.8       8.0       2.0       2.1       1.1       0.9
 1 C  py              2.5       2.5       0.3       0.9       2.1       3.5
 1 C  dz2             0.1       0.0       0.0       0.1       0.1       0.1
 1 C  dxz             0.1       0.0       0.0       0.1       0.0       0.1
 1 C  dyz             0.0       0.1       0.2       0.0       0.0       0.0
 1 C  dxy             0.0       0.1       0.1       0.0       0.0       0.1
 2 H  s               3.4       1.2       0.7       1.3       2.8       1.1
 3 C  s               0.0       0.1       0.2       0.0       0.1       0.7
 3 C  pz              0.8       7.3       8.4       0.6       0.1       0.4
 3 C  px              0.1       0.0       1.4       0.1       0.4       0.0
 3 C  py              1.7       1.5       5.1       0.0       0.0       5.0
 3 C  dz2             0.0       0.0       0.1       0.1       0.0       0.3
 3 C  dx2y2           0.0       0.0       0.0       0.0       0.1       0.0
 4 H  s               0.7       2.1       5.7       1.1       0.1       3.2
 5 C  s               0.0       0.0       0.0       0.0       0.2       0.2
 5 C  pz              7.7       0.0       3.4       1.4       9.8       1.7
 5 C  px              2.9       0.0       6.2       0.2       0.8       0.3
 5 C  py              0.3       0.0       0.0       0.2       1.4       0.2
 5 C  dxz             0.0       0.1       0.0       0.0       0.0       0.0
 5 C  dyz             0.0       0.0       0.0       0.1       0.4       0.1
 6 H  s               3.5       0.0       1.2       1.5       6.3       0.9
 7 C  s               0.0       0.1       0.0       0.1       0.6       0.3
 7 C  pz              4.6       8.3       3.8       0.1       5.2       0.8
 7 C  px              0.8       3.9       2.0       0.4       1.6       1.0
 7 C  py              4.8       0.5       1.0       0.2       0.5       0.6
 7 C  dxz             0.0       0.2       0.0       0.0       0.5       0.0
 7 C  dx2y2           0.0       0.0       0.1       0.0       0.0       0.0
 7 C  dxy             0.0       0.0       0.1       0.0       0.0       0.0
 8 H  s               2.7       6.4       2.7       0.4       5.9       1.0
 9 C  s               0.0       0.0       0.1       0.6       0.0       0.1
 9 C  pz              0.0       0.2       0.2       0.2       0.2       0.5
 9 C  px              2.5       1.8       4.8       0.1       0.0       0.0
 9 C  py              2.0       2.3       3.2       0.0       0.7       0.4
 9 C  dz2             0.0       0.1       0.0       0.4       0.2       0.0
 9 C  dxz             0.0       0.0       0.1       0.2       0.0       0.0
 9 C  dyz             0.1       0.0       0.0       0.2       0.0       0.1
 9 C  dxy             0.0       0.0       0.2       0.0       0.1       0.0
10 H  s               0.0       1.8       4.4       0.2       0.2       0.3
11 O  s               0.0       0.0       0.0       3.0       0.0       0.0
11 O  pz              0.4       0.1       1.3      12.6       3.0       1.8
11 O  px              3.6       1.1       4.1       3.6       0.3       3.1
11 O  py              1.1       0.6       0.1       2.8       1.7       0.0
12 O  s               0.1       0.8       0.2       4.3       0.0       0.8
12 O  pz              0.3       0.2       0.6       6.3       1.1       2.6
12 O  px              0.4       0.8       1.7       2.3       0.4       0.2
12 O  py              0.0       3.4       0.9      11.8       0.0       2.9
13 O  s               0.6       0.4       0.8       0.0       0.1       0.2
13 O  pz              1.8       4.0       0.1       0.0       3.5       0.4
13 O  px              1.6       4.1       4.4       0.1       0.2       1.9
13 O  py              0.6       0.0       0.4       0.3       0.4       0.6
14 O  s               0.7       0.0       0.2       0.1       0.8       0.5
14 O  pz              1.3       0.0       0.2       0.6       0.3       0.7
14 O  px              0.1       0.7       2.6       0.0       0.1       1.6
14 O  py              4.8       0.0       0.8       0.4      15.2       3.8
15 O  s               0.0       0.1       0.2       0.5       1.0       0.1
15 O  pz              0.3       2.1       4.8       0.4       0.3       0.1
15 O  px              0.3       0.1       2.0       0.2       4.6       3.8
15 O  py              2.4       0.5       0.0       0.9       0.2       0.4
16 O  s               0.0       0.1       0.2       1.3       0.1       0.7
16 O  pz              2.3       3.2       0.0       3.4       2.7       0.9
16 O  px              2.0       0.0       0.5       5.1       0.4      12.5
16 O  py              3.8       3.0       6.1       0.2       0.0       0.3
16 O  dx2y2           0.1       0.0       0.0       0.0       0.0       0.1
17 H  s               0.6       1.6       1.4       5.0       0.2      11.4
18 H  s               6.0       3.7       0.8       2.7       4.3       0.1
19 H  s               0.0       0.3       0.0       1.8       0.2       0.4
20 H  s               0.2       0.5       0.0       0.1       0.9       0.1
21 H  s               0.3       0.0       0.0       0.3       0.3       0.1
22 H  s               0.7       0.0       0.0       0.4       0.4       0.1
23 H  s               1.8       0.5       1.6       0.0       0.4       0.8

                     36        37        38        39        40        41   
                  -0.34563  -0.32470  -0.31694  -0.30466  -0.28700  -0.27569
                   2.00000   2.00000   2.00000   2.00000   2.00000   2.00000
                  --------  --------  --------  --------  --------  --------
 0 C  s               0.1       0.0       0.0       0.3       0.4       0.2
 0 C  pz              4.1       0.0       0.0       0.4       1.3       1.0
 0 C  px              0.0       0.9       0.2       0.0       0.4       0.4
 0 C  py              0.6       0.1       0.1       0.1       0.5       0.3
 0 C  dz2             0.1       0.0       0.0       0.0       0.0       0.0
 0 C  dx2y2           0.0       0.0       0.0       0.0       0.3       0.3
 1 C  s               0.2       0.7       0.3       0.1       0.0       0.5
 1 C  pz              8.5       4.8       0.1       0.1       0.2       0.7
 1 C  px              0.0       0.0       0.2       0.0       1.2       0.3
 1 C  py              0.6       0.5       1.1       0.2       0.5       0.9
 1 C  dz2             0.3       0.0       0.0       0.1       0.1       0.0
 1 C  dyz             0.1       0.0       0.1       0.0       0.0       0.2
[...]
 5 C  py              0.4       0.7       0.4       0.7       0.1       0.0
 5 C  dz2             0.0       0.0       0.0       0.1       0.0       0.0
 5 C  dxz             0.1       0.4       0.2       0.2       0.0       0.0
 5 C  dyz             0.7       2.6       1.3       1.8       0.7       0.4
 5 C  dx2y2           0.9       1.3       0.7       0.5       0.0       0.0
 5 C  dxy             0.3       0.2       0.2       0.7       0.1       0.0
 7 C  s               0.8       0.2       0.2       0.5       0.5       0.1
 7 C  pz              0.6       0.2       0.2       1.0       0.6       0.2
 7 C  px              0.3       0.1       0.1       0.4       0.1       0.0
 7 C  dz2             1.3       0.3       0.5       2.1       0.8       0.1
 7 C  dxz             1.9       0.8       0.7       1.0       1.3       0.5
 7 C  dyz             0.9       0.1       0.1       0.0       0.0       0.1
 7 C  dx2y2           0.3       0.0       0.0       0.3       0.3       0.0
 7 C  dxy             0.1       0.0       0.1       0.1       0.1       0.0
 9 C  s               0.9       0.1       0.1       0.3       2.1       0.7
 9 C  pz              1.8       0.1       0.1       1.4       0.2       0.9
 9 C  px              0.0       0.0       0.1       0.0       1.1       1.0
 9 C  py              0.0       0.0       0.0       0.0       0.2       0.0
 9 C  dz2             4.4       0.1       0.1       3.3       2.2       0.5
 9 C  dxz             1.3       0.1       0.7       0.4       0.7       2.8
 9 C  dyz             1.6       0.4       0.5       0.0       0.0       0.0
 9 C  dx2y2           0.0       0.0       0.1       0.1       1.0       1.3
10 H  s               0.0       0.0       0.0       0.0       0.1       0.0
11 O  s               0.2       0.1       0.4       0.1       0.1       0.0
11 O  pz              0.1       0.0       0.0       0.1       0.2       0.3
11 O  px              0.0       0.1       0.0       0.1       1.8       4.2
11 O  py              0.0       0.1       0.0       0.0       0.0       0.3
11 O  dz2             0.1       0.9       0.6       0.0       0.7       5.1
11 O  dxz             1.8       0.1       1.1       1.5       6.9      17.9
11 O  dyz             0.2       0.0       0.0       0.1       0.4       0.0
11 O  dx2y2           0.2       0.1       6.2       0.0       1.1       1.9
11 O  dxy             0.8       3.3       0.1       0.1       7.8      21.9
12 O  s               1.5       0.1       0.0       1.5       1.4       0.2
12 O  pz              1.8       0.1       0.0       1.0       0.7       0.2
12 O  px              0.1       0.0       0.0       0.1       0.1       0.0
12 O  py              0.2       0.0       0.0       0.2       0.5       0.0
12 O  dz2            30.9       1.5       0.3      14.8       8.1       1.4
12 O  dxz             1.4       0.0       0.3       1.0       1.1       0.0
12 O  dyz             0.3       0.0       0.2       1.7       1.8       0.4
12 O  dx2y2           0.2       0.0       0.0       0.0       0.1       0.1
12 O  dxy             0.0       0.1       0.2       0.2       0.1       0.1
13 O  s               1.2       0.3       0.3       1.7       0.9       0.3
13 O  pz              1.1       0.3       0.4       1.1       0.8       0.1
13 O  px              0.2       0.0       0.0       0.2       0.0       0.0
13 O  dz2             7.7       1.7       1.7       5.0       3.3       0.6
13 O  dxz            11.2       3.9       4.4      11.2       6.7       1.3
13 O  dyz             0.1       0.0       0.0       0.3       0.5       0.2
13 O  dx2y2           1.1       0.0       0.1       1.5       0.3       0.0
13 O  dxy             0.3       0.1       0.0       0.2       0.0       0.2
14 O  s               0.6       1.2       0.7       1.5       0.7       0.2
14 O  pz              0.4       0.8       0.5       0.7       0.2       0.1
14 O  py              0.2       0.5       0.2       0.5       0.1       0.0
14 O  dz2             0.0       0.0       0.0       0.1       0.1       0.1
14 O  dxz             0.4       0.6       0.3       0.5       0.1       0.0
14 O  dyz             6.3      14.0       7.8      10.5       2.5       0.7
14 O  dx2y2           2.4       3.8       1.9       4.3       0.7       0.2
14 O  dxy             0.7       1.4       0.8       1.5       0.8       0.3
15 O  s               0.2       0.5       0.4       1.2       1.8       1.4
15 O  px              0.1       0.3       0.1       0.4       0.6       0.3
15 O  py              0.2       0.3       0.4       0.6       1.0       0.8
15 O  dz2             0.6       1.2       0.7       3.4       4.6       2.9
15 O  dxz             0.1       0.2       0.2       0.0       0.0       0.0
15 O  dyz             0.1       0.2       0.5       0.1       0.2       0.0
15 O  dx2y2           0.0       0.2       0.2       0.4       0.6       0.0
15 O  dxy             3.0       6.8       5.3       8.5      14.9       9.0
16 O  s               0.0       1.3       1.8       0.0       0.2       0.2
16 O  px              0.0       1.0       1.2       0.0       0.0       0.1
16 O  py              0.0       1.1       1.3       0.0       0.0       0.0
16 O  dz2             0.0       4.6       5.6       0.2       0.3       0.9
16 O  dxz             0.0       0.9       1.1       0.0       0.0       0.0
16 O  dyz             0.0       0.9       0.9       0.0       0.0       0.0
16 O  dx2y2           0.0       6.2       9.3       0.1       0.7       0.7
16 O  dxy             0.0      16.9      20.3       0.1       0.3       0.1
19 H  s               0.4       0.0       0.0       0.1       0.2       0.0
20 H  s               0.1       0.1       0.1       0.1       0.2       0.0
21 H  s               0.1       0.2       0.1       0.2       0.1       0.0
22 H  s               0.0       0.1       0.2       0.1       0.2       0.1
23 H  s               0.0       0.4       0.6       0.0       0.0       0.0



                      *****************************
                      * MAYER POPULATION ANALYSIS *
                      *****************************

  NA   - Mulliken gross atomic population
  ZA   - Total nuclear charge
  QA   - Mulliken gross atomic charge
  VA   - Mayer's total valence
  BVA  - Mayer's bonded valence
  FA   - Mayer's free valence

  ATOM       NA         ZA         QA         VA         BVA        FA
  0 C      5.9030     6.0000     0.0970     3.9861     3.9861    -0.0000
  1 C      6.0106     6.0000    -0.0106     4.0124     4.0124     0.0000
  2 H      0.9226     1.0000     0.0774     0.9787     0.9787     0.0000
  3 C      5.9349     6.0000     0.0651     4.0274     4.0274     0.0000
  4 H      0.9406     1.0000     0.0594     1.0104     1.0104     0.0000
  5 C      5.9613     6.0000     0.0387     4.0109     4.0109    -0.0000
  6 H      0.9364     1.0000     0.0636     0.9958     0.9958    -0.0000
  7 C      5.8992     6.0000     0.1008     3.9505     3.9505    -0.0000
  8 H      0.9296     1.0000     0.0704     0.9871     0.9871     0.0000
  9 C      5.8969     6.0000     0.1031     4.2847     4.2847     0.0000
 10 H      0.9232     1.0000     0.0768     0.9740     0.9740    -0.0000
 11 O      8.3099     8.0000    -0.3099     2.1494     2.1494     0.0000
 12 O      8.3930     8.0000    -0.3930     2.0213     2.0213    -0.0000
 13 O      8.4143     8.0000    -0.4143     2.0140     2.0140    -0.0000
 14 O      8.4190     8.0000    -0.4190     2.0210     2.0210     0.0000
 15 O      8.4263     8.0000    -0.4263     2.0282     2.0282     0.0000
 16 O      8.4420     8.0000    -0.4420     2.0280     2.0280     0.0000
 17 H      0.9136     1.0000     0.0864     0.9591     0.9591     0.0000
 18 H      0.9528     1.0000     0.0472     0.9671     0.9671     0.0000
 19 H      0.6908     1.0000     0.3092     0.8919     0.8919     0.0000
 20 H      0.6997     1.0000     0.3003     0.8935     0.8935    -0.0000
 21 H      0.6943     1.0000     0.3057     0.8846     0.8846     0.0000
 22 H      0.6898     1.0000     0.3102     0.9050     0.9050     0.0000
 23 H      0.6963     1.0000     0.3037     0.9250     0.9250     0.0000

  Mayer bond orders larger than 0.100000
B(  0-C ,  1-C ) :   1.0497 B(  0-C , 16-O ) :   1.0950 B(  0-C , 17-H ) :   0.9211 
B(  0-C , 18-H ) :   0.8993 B(  1-C ,  2-H ) :   0.8849 B(  1-C ,  3-C ) :   0.9872 
B(  1-C , 11-O ) :   0.9529 B(  3-C ,  4-H ) :   0.8450 B(  3-C ,  5-C ) :   1.0688 
B(  3-C , 15-O ) :   1.0316 B(  5-C ,  6-H ) :   0.8590 B(  5-C ,  7-C ) :   0.9596 
B(  5-C , 14-O ) :   1.0112 B(  7-C ,  8-H ) :   0.8699 B(  7-C ,  9-C ) :   1.0325 
B(  7-C , 13-O ) :   1.0488 B(  9-C , 10-H ) :   0.8995 B(  9-C , 11-O ) :   1.0636 
B(  9-C , 12-O ) :   1.0971 B( 12-O , 19-H ) :   0.8344 B( 13-O , 20-H ) :   0.8446 
B( 14-O , 21-H ) :   0.8479 B( 15-O , 22-H ) :   0.8202 B( 16-O , 23-H ) :   0.8198 


-------
TIMINGS
-------

Total SCF time: 0 days 0 hours 26 min 5 sec 

Total time                  ....    1565.771 sec
Sum of individual times     ....    1565.729 sec  (100.0%)

SCF preparation             ....       0.201 sec  (  0.0%)
Fock matrix formation       ....    1565.300 sec  (100.0%)
  Startup                   ....      16.867 sec  (  1.1% of F)
  Split-RI-J                ....       2.988 sec  (  0.2% of F)
  XC integration            ....       2.611 sec  (  0.2% of F)
    XC Preparation          ....       0.000 sec  (  0.0% of XC)
    Basis function eval.    ....       1.080 sec  ( 41.4% of XC)
    Density eval.           ....       0.595 sec  ( 22.8% of XC)
    XC-Functional eval.     ....       0.160 sec  (  6.1% of XC)
    XC-Potential eval.      ....       0.617 sec  ( 23.6% of XC)
Diagonalization             ....       0.000 sec  (  0.0%)
Density matrix formation    ....       0.027 sec  (  0.0%)
Total Energy calculation    ....       0.003 sec  (  0.0%)
Population analysis         ....       0.062 sec  (  0.0%)
Orbital Transformation      ....       0.017 sec  (  0.0%)
Orbital Orthonormalization  ....       0.000 sec  (  0.0%)
DIIS solution               ....       0.083 sec  (  0.0%)
  MO trafo                  ....       0.000 sec  (  0.0 % of DIIS)
  Orb grad                  ....       0.000 sec  (  0.0 % of DIIS)
  Energy W gradient         ....       0.000 sec  (  0.0 % of DIIS)
  DIIS error                ....       0.007 sec  (  8.9 % of DIIS)
  DIIS work                 ....       0.065 sec  ( 79.0 % of DIIS)
  Form Q                    ....       0.000 sec  (  0.0 % of DIIS)
  Form QpQm                 ....       0.000 sec  (  0.0 % of DIIS)
  Exp/Cayley                ....       0.000 sec  (  0.0 % of DIIS)
  Orb update                ....       0.000 sec  (  0.0 % of DIIS)
  Wake-sleep                ....       0.001 sec  (  1.5 % of DIIS)
SOSCF solution              ....       0.036 sec  (  0.0%)
  MO trafo                  ....       0.015 sec  ( 42.6 % of SOSCF)
  Orb grad                  ....       0.000 sec  (  0.6 % of SOSCF)
  Rot update                ....       0.002 sec  (  4.6 % of SOSCF)
  Step                      ....       0.019 sec  ( 51.9 % of SOSCF)
Finished LeanSCF after 1565.8 sec

Maximum memory used throughout the entire LEANSCF-calculation: 19.0 MB


-------------------------------------------------------------------------------
                          DFT DISPERSION CORRECTION                            
                                                                               
                                DFTD4 V3.4.0                                   
-------------------------------------------------------------------------------
The PBE functional is recognized
Active option DFTDOPT                   ...         5   

-------------------------   ----------------
Dispersion correction           -0.024775694
-------------------------   ----------------

------------------   -----------------
gCP correction             0.157321231
------------------   -----------------

-------------------------   --------------------
FINAL SINGLE POINT ENERGY      -685.692578220696
-------------------------   --------------------


------------------------------------------------------------------------------
                              ORCA PROPERTY CALCULATIONS
------------------------------------------------------------------------------

GBWName                                 ... sp.gbw
Number of atoms                         ...     24
Number of basis functions               ...    192
Max core memory                         ...   1024 MB

Electric properties:
Dipole moment                           ... YES
Quadrupole moment                       ...  NO
Static polarizability (Dipole/Dipole)   ...  NO
Static polarizability (Dipole/Quad.)    ...  NO
Static polarizability (Quad./Quad.)     ...  NO
Static polarizability (Velocity)        ...  NO

Atomic electric properties:
Dipole moment                           ...  NO
Quadrupole moment                       ...  NO
Static polarizability                   ...  NO

Choice of electric origin               ... Center of mass
Position of electric origin             ...    -0.000001    -0.000004    -0.000001

General magnetic properties:
Magnetizability                         ...  NO

EPR properties:
g-Tensor (aka g-matrix)                 ...  NO
Zero-Field splitting spin-orbit         ...  NO
Zero-field splitting spin-spin          ...  NO
Hyperfine couplings                     ...  NO (   0 nuclei)
Quadrupole couplings                    ...  NO (   0 nuclei)
Contact density                         ...  NO (   0 nuclei)

NMR properties:
Chemical shifts                         ...  NO (   0 nuclei)
Spin-rotation constants                 ...  NO (   0 nuclei)
Spin-spin couplings                     ...  NO (   0 nuclei,    0 pairs)

Choice of magnetic origin               ... GIAO
Position of magnetic origin             ...     0.000000     0.000000     0.000000

Properties with geometric perturbations:
SCF Hessian                             ...  NO
IR spectrum                             ...  NO
VCD spectrum                            ...  NO
X-ray spectroscopy properties:
SCF XES/XAS/RIXS spectra                ...  NO


-------------
DIPOLE MOMENT
-------------

Method             : SCF
Type of density    : Electron Density
Multiplicity       :   1
Irrep              :   0
Energy             :  -685.8251237585286617 Eh
Relativity type    : 
Basis              : AO
                                X                 Y                 Z
Electronic contribution:      1.583395877       0.762445949       0.673310188
Nuclear contribution   :     -1.022267231      -0.982132279      -1.296180449
                        -----------------------------------------
Total Dipole Moment    :      0.561128646      -0.219686330      -0.622870261
                        -----------------------------------------
Magnitude (a.u.)       :      0.866657258
Magnitude (Debye)      :      2.202867685



--------------------
Rotational spectrum 
--------------------
 
Rotational constants in cm-1:             0.043010             0.025849             0.020056 
Rotational constants in MHz :          1289.418113           774.945326           601.276657 

Dipole components along the rotational axes: 
x,y,z [a.u.] :     0.487939    -0.235959    -0.676264 
x,y,z [Debye]:     1.240243    -0.599761    -1.718927 

 

Dipole moment calculation done in   0.0 sec 

Maximum memory used throughout the entire PROP-calculation: 12.6 MB

--------------------------------
SUGGESTED CITATIONS FOR THIS RUN
--------------------------------

Below you find a list of papers that are relevant to this ORCA run
We neither can nor want to force you to cite these papers, but we appreciate if you do
You receive ORCA, which is the product of decades of hard work by many enthusiastic individuals, for free
The only thing we kindly ask in return is that you cite our papers,
We deeply appreciate it, if you show your appreciation for ORCA by not just citing the generic ORCA reference.

Please note that relegating all ORCA citations to the supporting information does *not* help us.
SI sections are not indexed - citations you put there will not count into any citation statistics
But we need these citations in order to attract the funding resources that allow us to do what we are doing

Therefore, if you are a happy ORCA user, please consider citing a few of the papers listed below in the main body of your paper

In addition to the list printed below, the program has created the file sp.bibtex that contains the list in bibtex format
You can import this file easily into all common literature databanks and citation aid programs


List of essential papers. We consider these as the minimum necessary citations

  1. Neese,F.
     Software update: the ORCA program system, version 5.0
     WIRES Comput. Molec. Sci., 2022 12(1)e1606
     doi.org/10.1002/wcms.1606

List of papers to cite with high priority. The work reported in these papers was absolutely
necessary for this run to complete.
Our perspective: the developers of density functionals and basis sets usually get cited in chemistry papers
Good! But without the algorithms to do something with them, the functionals or basis sets would not do anything.
Hence, in our opinion, the algorithm design and method developments papers are equally worthy of getting cited

  1. Neese,F.
     An improvement of the resolution of the identity approximation for the formation of the Coulomb matrix
     J. Comp. Chem., 2003 24(14)1740-1747
     doi.org/10.1002/jcc.10318
  2. Neese,F.
     The SHARK Integral Generation and Digestion System
     J. Comp. Chem., 2022  1-16
     doi.org/10.1002/jcc.26942
  3. Caldeweyher,E.; Bannwarth,C.; Grimme,S.
     Extension of the D3 dispersion coefficient model
     J. Chem. Phys., 2017 147 034112
     doi.org/10.1063/1.4993215
  4. Caldeweyher,E.; Ehlert,S.; Hansen,A.; Neugebauer,H.; Spicher,S.; Bannwarth,C.; Grimme,S.
     A generally applicable atomic-charge dependent London dispersion correction
     J. Chem. Phys., 2019 150 154122
     doi.org/10.1063/1.5090222
  5. Caldeweyher,E.; Mewes,J.; Ehlert,S.; Grimme,S.
     Extension and evaluation of the D4 London-dispersion model for periodic systems
     Phys. Chem. Chem. Phys., 2020 22(16)8499-8512
     doi.org/10.1039/D0CP00502A
  6. Wittmann,L.; Gordiy,I.; Friede,M.; Helmich-Paris,B.; Grimme,S.; Hansen,A.; Bursch,M.
     Extension of the D3 and D4 London Dispersion Corrections to the full Actinides Series
     Phys. Chem. Chem. Phys., 2024 26(32)21379-21394
     doi.org/https://doi.org/10.1039/D4CP01514B 

List of suggested additional citations. These are papers that are important in the 'surrounding' of 
of this run, or papers that preceded the highly important papers. If you like your results we are grateful for a citation.

  1. Neese,F.
     The ORCA program system
     WIRES Comput. Molec. Sci., 2012 2(1)73-78
     doi.org/10.1002/wcms.81
  2. Neese,F.
     Software update: the ORCA program system, version 4.0
     WIRES Comput. Molec. Sci., 2018 8(1)1-6
     doi.org/10.1002/wcms.1327
  3. Neese,F.; Wennmohs,F.; Becker,U.; Riplinger,C.
     The ORCA quantum chemistry program package
     J. Chem. Phys., 2020 152 Art. No. L224108
     doi.org/10.1063/5.0004608

List of optional additional citations

  1. Neese,F.
     Approximate second-order SCF convergence for spin unrestricted wavefunctions
     Chem. Phys. Lett., 2000 325(1-3)93-98
     doi.org/10.1016/s0009-2614(00)00662-x

Timings for individual modules:

Sum of individual times          ...     1567.684 sec (=  26.128 min)
Startup calculation              ...        1.083 sec (=   0.018 min)   0.1 %
SCF iterations                   ...     1566.533 sec (=  26.109 min)  99.9 %
Property calculations            ...        0.068 sec (=   0.001 min)   0.0 %
                             ****ORCA TERMINATED NORMALLY****
TOTAL RUN TIME: 0 days 0 hours 26 minutes 7 seconds 929 msec
