
                                 *****************
                                 * O   R   C   A *
                                 *****************

                                            #,                                       
                                            ###                                      
                                            ####                                     
                                            #####                                    
                                            ######                                   
                                           ########,                                 
                                     ,,################,,,,,                         
                               ,,#################################,,                 
                          ,,##########################################,,             
                       ,#########################################, ''#####,          
                    ,#############################################,,   '####,        
                  ,##################################################,,,,####,       
                ,###########''''           ''''###############################       
              ,#####''   ,,,,##########,,,,          '''####'''          '####       
            ,##' ,,,,###########################,,,                        '##       
           ' ,,###''''                  '''############,,,                           
         ,,##''                                '''############,,,,        ,,,,,,###''
      ,#''                                            '''#######################'''  
     '                                                          ''''####''''         
             ,#######,   #######,   ,#######,      ##                                
            ,#'     '#,  ##    ##  ,#'     '#,    #''#        ,####,   ,####,        
            ##       ##  ##   ,#'  ##            #'  '#       #'       #'  '#        
            ##       ##  #######   ##           ,######,      #####,   #    #        
            '#,     ,#'  ##    ##  '#,     ,#' ,#      #,     #,   #   #,  ,#        
             '#######'   ##     ##  '#######'  #'      '#     '####' # '####'        



                #########################################################
                #                        -***-                          #
                #          Department of theory and spectroscopy        #
                #                                                       #
                #                      Frank Neese                      #
                #                                                       #
                #     Directorship, Architecture, Infrastructure        #
                #                    SHARK, DRIVERS                     #
                #        Core code/Algorithms in most modules           #
                #                                                       #
                #        Max Planck Institute fuer Kohlenforschung      #
                #                Kaiser Wilhelm Platz 1                 #
                #                 D-45470 Muelheim/Ruhr                 #
                #                      Germany                          #
                #                                                       #
                #                  All rights reserved                  #
                #                        -***-                          #
                #########################################################


                         Program Version 6.0.1  -  RELEASE   -


 With contributions from (in alphabetic order):
[Max-Planck-Institut fuer Kohlenforschung]                               
  Daniel Aravena         : Magnetic Suceptibility                        
  Michael Atanasov       : Ab Initio Ligand Field Theory (pilot matlab implementation)
  Alexander A. Auer      : GIAO ZORA, VPT2 properties, NMR spectrum      
  Ute Becker             : All parallelization in ORCA, NUMFREQ, NUMCALC 
  Giovanni Bistoni       : ED, misc. LED, open-shell LED, HFLD           
  Martin Brehm           : Molecular dynamics                            
  Dmytro Bykov           : pre 5.0 version of the SCF Hessian            
  Marcos Casanova-Páez   : Triplet and SCS-CIS(D). UHF-(DLPNO)-IP/EA/STEOM-CCSD. UHF-CVS-IP/STEOM-CCSD   
  Vijay G. Chilkuri      : MRCI spin determinant printing, contributions to CSF-ICE 
  Pauline Colinet        : FMM embedding                                 
  Dipayan Datta          : RHF DLPNO-CCSD density                        
  Achintya Kumar Dutta   : EOM-CC, STEOM-CC                              
  Nicolas Foglia         : Exact transition moments, OPA infrastructure, MCD improvements    
  Dmitry Ganyushin       : Spin-Orbit,Spin-Spin,Magnetic field MRCI      
  Miquel Garcia-Rates    : C-PCM and meta-GGA Hessian, CCSD/C-PCM, Gaussian charge scheme 
  Tiago L. C. Gouveia    : GS-ROHF, GS-ROCIS                             
  Yang Guo               : DLPNO-NEVPT2, F12-NEVPT2, CIM, IAO-localization        
  Andreas Hansen         : Spin unrestricted coupled pair/coupled cluster methods 
  Ingolf Harden          : AUTO-CI MPn and infrastructure                
  Benjamin Helmich-Paris : MC-RPA, TRAH-(SCF,CASSCF), AVAS, COSX integrals, SCF dyn. polar. 
  Lee Huntington         : MR-EOM, pCC                                   
  Robert Izsak           : Overlap fitted RIJCOSX, COSX-SCS-MP3, EOM     
  Riya Kayal             : Wick's Theorem for AUTO-CI, AUTO-CI UHF-CCSDT 
  Emily Kempfer          : AUTO-CI, RHF CISDT and CCSDT                  
  Christian Kollmar      : KDIIS, OOCD, Brueckner-CCSD(T), CCSD density, CASPT2, CASPT2-K, improved NEVPT2 
  Axel Koslowski         : Symmetry handling                             
  Simone Kossmann        : meta-GGA functionals, TD-DFT gradient, OOMP2, (MP2 Hessian; deprecated post 5.0) 
  Lucas Lang             : DCDCAS                                        
  Marvin Lechner         : AUTO-CI (C++ implementation), FIC-MRCC        
  Spencer Leger          : CASSCF response                               
  Dagmar Lenk            : GEPOL surface, SMD, ORCA-2-JSON               
  Dimitrios Liakos       : Extrapolation schemes; Compound Job, initial MDCI parallelization 
  Dimitrios Manganas     : Further ROCIS development; embedding schemes. LFT, Crystal Embedding 
  Dimitrios Pantazis     : SARC Basis sets                               
  Anastasios Papadopoulos: AUTO-CI, single reference methods and gradients 
  Taras Petrenko         : pre 6.0 DFT Hessian and TD-DFT gradient, (ASA, deprecated), ECA, 1-Electron XAS/XES, NRVS 
  Peter Pinski           : DLPNO-MP2, DLPNO-MP2 Gradient                 
  Christoph Reimann      : Effective Core Potentials                     
  Marius Retegan         : Local ZFS, SOC                                
  Christoph Riplinger    : Optimizer, TS searches, QM/MM, DLPNO-CCSD(T), (RO)-DLPNO pert. Triples 
  Michael Roemelt        : Original ROCIS implementation                 
  Masaaki Saitow         : Open-shell DLPNO-CCSD energy and density      
  Barbara Sandhoefer     : DKH picture change effects                    
  Kantharuban Sivalingam : CASSCF convergence/infrastructure, NEVPT2 and variants, FIC-MRCI 
  Bernardo de Souza      : ESD, SOC TD-DFT                               
  Georgi L. Stoychev     : AutoAux, RI-MP2 NMR, DLPNO-MP2 response, X2C  
  Van Anh Tran           : RI-MP2 g-tensors                              
  Willem Van den Heuvel  : Paramagnetic NMR                              
  Zikuan Wang            : NOTCH, Electric field optimization            
  Frank Wennmohs         : Technical directorship and infrastructure     
  Hang Xu                : AUTO-CI-Response properties                   
                                                                         
[FACCTs GmbH]                                                            
  Markus Bursch, Miquel Garcia-Rates, Christoph Riplinger, Bernardo de Souza, Georgi L. Stoychev 
                                                                 
  APM, Basis sets (HGBS, AHGBS, def-TZVP (Ac-Lr), def2-XVPD (La-Lu)), CI-OPT, improved COSX, DLPNO-Multilevel,           
  DOCKER, DRACO, updates on ESD, GOAT, IRC, LR-CPCM, MBIS, meta-GGA TD-DFT gradient, ML-optimized integration grids, 
  MM, NACMEs, nearIR, NEB, NEB-TS, NL-DFT gradient (VV10), 2- and 3-layer-ONIOM, interface openCOSMO-RS, QMMM,   
  Crystal-QMMM, SF, symmetry and pop. for TD-DFT, r2SCAN hybrids, SOLVATOR                                   
                                                                         
[Other institutions]                                                     
  V. Asgeirsson          : NEB                                           
  Christoph Bannwarth    : sTDA-DFT, sTD-DFT, PBEh-3c, B97-3c, D3        
  Sebastian Ehlert       : rSCAN, r2SCAN, r2SCAN-3c, D4, dhf basis sets  
  Marvin Friede          : D4 for Fr, Ra, Ac-Lr                          
  Lars Goerigk           : TD-DFT with DH, B97 family of functionals     
  Stefan Grimme          : VdW corrections, initial TS optimization, DFT functionals, gCP, sTDA/sTD-DF 
  Waldemar Hujo          : DFT-NL                                        
  H. Jonsson             : NEB                                           
  Holger Kruse           : gCP                                           
  Marcel Mueller         : wB97X-3c, vDZP basis set                      
  Hagen Neugebauer       : wr2SCAN                                       
  Tobias Risthaus        : range-separated hybrid DFT                    
  Lukas Wittmann         : regularized MP2, r2SCAN double-hybrids, wr2SCAN        
                                                                         
We gratefully acknowledge several colleagues who have allowed us to      
interface, adapt or use parts of their codes:                            
  Ed Valeev, F. Pavosevic, A. Kumar             : LibInt (2-el integral package), F12 methods 
  Garnet Chan, S. Sharma, J. Yang, R. Olivares  : DMRG                   
  Ulf Ekstrom                                   : XCFun DFT Library      
  Mihaly Kallay                                 : mrcc  (arbitrary order and MRCC methods)
  Frank Weinhold                                : gennbo (NPA and NBO analysis)           
  Simon Mueller                                 : openCOSMO-RS                            
  Christopher J. Cramer and Donald G. Truhlar   : smd solvation model                     
  S Lehtola, MJT Oliveira, MAL Marques          : LibXC Library                           
  Liviu Ungur et al                             : ANISO software                          


 Your calculation uses the libint2 library for the computation of 2-el integrals
 For citations please refer to: http://libint.valeyev.net

 Your ORCA version has been built with support for libXC version: 6.2.2
 For citations please refer to: https://libxc.gitlab.io

 This ORCA versions uses:
   CBLAS   interface :  Fast vector & matrix operations
   LAPACKE interface :  Fast linear algebra routines
   SCALAPACK package :  Parallel linear algebra routines
   Shared memory     :  Shared parallel matrices
   BLAS/LAPACK       :  OpenBLAS 0.3.27  USE64BITINT DYNAMIC_ARCH NO_AFFINITY Zen SINGLE_THREADED
        Core in use  :  Zen
   Copyright (c) 2011-2014, The OpenBLAS Project


Your calculation utilizes the geometrical counterpoise correction gCP
Please cite in your paper:
H.Kruse, S. Grimme J.Chem.Phys., 136, (2012), 154101 
   

Your calculation utilizes the atom-pairwise dispersion correction
based on EEQ partial charges (D4)


================================================================================

----- Orbital basis set information -----
Your calculation utilizes the basis: def2-SV(P)
   F. Weigend and R. Ahlrichs, Phys. Chem. Chem. Phys. 7, 3297 (2005).

----- AuxJ basis set information -----
Your calculation utilizes the auxiliary basis: def2/J
   F. Weigend, Phys. Chem. Chem. Phys. 8, 1057 (2006).

================================================================================
                                        WARNINGS
                       Please study these warnings very carefully!
================================================================================


================================================================================
                                       INPUT FILE
================================================================================
NAME = sp.inp
|  1> ! pbe def2-sv(p) def2/J RI DEFGRID1 loosescf d4 GCP(DFT/SV(P)) printgap
|  2> %output
|  3>     printlevel normal
|  4> end
|  5> * xyz 0 1
|  6> C -4.7672155017 -0.8511301758 0.1335494817
|  7> N -3.3995214859 -0.9084088246 -0.3146571513
|  8> C -2.4652110031 -0.0224048465 0.0929574978
|  9> O -2.6605296049 0.903887459 0.8344788174
| 10> O -1.2681804173 -0.364498255 -0.4597540592
| 11> C -0.1503744044 0.4358772131 -0.2711611675
| 12> C -0.2044334809 1.8040453395 -0.2973798728
| 13> C 0.9715554655 2.5535261912 -0.1466445034
| 14> C 2.1788399399 1.9365834591 0.0141930744
| 15> C 2.2669294816 0.5288676844 0.0348135156
| 16> C 1.0853678798 -0.2440387344 -0.1068427531
| 17> C 1.1766955279 -1.6503239137 -0.0781665765
| 18> C 2.3860340243 -2.2670255349 0.0823957725
| 19> C 3.5567826236 -1.5063636329 0.2188576428
| 20> C 3.4976607609 -0.1411455234 0.196055362
| 21> H -4.8578616982 0.0112961752 0.7915585083
| 22> H -5.0341561132 -1.7551256238 0.6846271404
| 23> H -5.4459900497 -0.7333602036 -0.7132740455
| 24> H -3.1142500518 -1.6519331879 -0.9309492511
| 25> H -1.148772091 2.308699599 -0.4205527529
| 26> H 0.9050449133 3.6309602995 -0.1639760721
| 27> H 3.0837828475 2.5154944603 0.1281004698
| 28> H 0.271526888 -2.2287476704 -0.1844509463
| 29> H 2.4479690341 -3.3452087442 0.1056643685
| 30> H 4.5045367791 -2.0095549212 0.343525275
| 31> H 4.3963509295 0.4496167367 0.3019918563
| 32> *
| 33> 
| 34>                          ****END OF INPUT****
================================================================================

                       ****************************
                       * Single Point Calculation *
                       ****************************

---------------------------------
CARTESIAN COORDINATES (ANGSTROEM)
---------------------------------
  C     -4.767216   -0.851130    0.133549
  N     -3.399521   -0.908409   -0.314657
  C     -2.465211   -0.022405    0.092957
  O     -2.660530    0.903887    0.834479
  O     -1.268180   -0.364498   -0.459754
  C     -0.150374    0.435877   -0.271161
  C     -0.204433    1.804045   -0.297380
  C      0.971555    2.553526   -0.146645
  C      2.178840    1.936583    0.014193
  C      2.266929    0.528868    0.034814
  C      1.085368   -0.244039   -0.106843
  C      1.176696   -1.650324   -0.078167
  C      2.386034   -2.267026    0.082396
  C      3.556783   -1.506364    0.218858
  C      3.497661   -0.141146    0.196055
  H     -4.857862    0.011296    0.791559
  H     -5.034156   -1.755126    0.684627
  H     -5.445990   -0.733360   -0.713274
  H     -3.114250   -1.651933   -0.930949
  H     -1.148772    2.308700   -0.420553
  H      0.905045    3.630960   -0.163976
  H      3.083783    2.515494    0.128100
  H      0.271527   -2.228748   -0.184451
  H      2.447969   -3.345209    0.105664
  H      4.504537   -2.009555    0.343525
  H      4.396351    0.449617    0.301992

----------------------------
CARTESIAN COORDINATES (A.U.)
----------------------------
  NO LB      ZA    FRAG     MASS         X           Y           Z
   0 C     6.0000    0    12.011   -9.008732   -1.608403    0.252372
   1 N     7.0000    0    14.007   -6.424165   -1.716644   -0.594616
   2 C     6.0000    0    12.011   -4.658574   -0.042339    0.175664
   3 O     8.0000    0    15.999   -5.027672    1.708100    1.576936
   4 O     8.0000    0    15.999   -2.396514   -0.688802   -0.868809
   5 C     6.0000    0    12.011   -0.284166    0.823689   -0.512420
   6 C     6.0000    0    12.011   -0.386323    3.409152   -0.561967
   7 C     6.0000    0    12.011    1.835974    4.825465   -0.277118
   8 C     6.0000    0    12.011    4.117411    3.659612    0.026821
   9 C     6.0000    0    12.011    4.283876    0.999415    0.065788
  10 C     6.0000    0    12.011    2.051048   -0.461166   -0.201904
  11 C     6.0000    0    12.011    2.223632   -3.118660   -0.147713
  12 C     6.0000    0    12.011    4.508951   -4.284057    0.155705
  13 C     6.0000    0    12.011    6.721345   -2.846615    0.413581
  14 C     6.0000    0    12.011    6.609621   -0.266726    0.370491
  15 H     1.0000    0     1.008   -9.180028    0.021347    1.495829
  16 H     1.0000    0     1.008   -9.513176   -3.316707    1.293758
  17 H     1.0000    0     1.008  -10.291430   -1.385850   -1.347893
  18 H     1.0000    0     1.008   -5.885080   -3.121701   -1.759239
  19 H     1.0000    0     1.008   -2.170865    4.362810   -0.794730
  20 H     1.0000    0     1.008    1.710287    6.861521   -0.309870
  21 H     1.0000    0     1.008    5.827505    4.753596    0.242075
  22 H     1.0000    0     1.008    0.513111   -4.211723   -0.348562
  23 H     1.0000    0     1.008    4.625991   -6.321528    0.199677
  24 H     1.0000    0     1.008    8.512341   -3.797508    0.649169
  25 H     1.0000    0     1.008    8.307899    0.849652    0.570682

--------------------------------
INTERNAL COORDINATES (ANGSTROEM)
--------------------------------
 C      0   0   0     0.000000000000     0.00000000     0.00000000
 N      1   0   0     1.440401662846     0.00000000     0.00000000
 C      2   1   0     1.350588327226   122.47028877     0.00000000
 O      3   2   1     1.202505991195   125.38530010   358.60913635
 O      3   2   1     1.362130753166   108.70605482   177.77977208
 C      5   3   2     1.387680961609   120.52311067   175.81461466
 C      6   5   3     1.369486701782   122.80745881   319.80000041
 C      7   6   5     1.402637765322   119.91200401   182.26476649
 C      8   7   6     1.365292226320   120.83633366     0.62825625
 C      9   8   7     1.410619960263   120.52324898   359.86450931
 C     10   9   8     1.418992124549   119.34766141   359.68863504
 C     11  10   9     1.409539310530   119.17293176   180.35399899
 C     12  11  10     1.366967723241   120.65150236   359.93008658
 C     13  12  11     1.402811695832   120.34012530   359.88493661
 C     14  13  12     1.366687903351   120.26046736     0.17855701
 H      1   2   3     1.088564110618   107.37748580     1.45354591
 H      1   2   3     1.091856971398   110.87129142   242.11624846
 H      1   2   3     1.091656878137   110.68976392   120.77220368
 H      2   1   3     1.006987697149   119.26129408   177.90529293
 H      7   6   5     1.077786106122   120.30187369     3.06308547
 H      8   7   6     1.079624145041   118.67736783   180.39514685
 H      9   8   7     1.080293713789   120.73076908   179.87296840
 H     12  11  10     1.079444614715   118.57319489   179.85607199
 H     13  12  11     1.080211278323   120.23536227   179.85955082
 H     14  13  12     1.080269147207   119.39623617   180.08711665
 H     15  14  13     1.080678771847   120.56135956   179.92280508

---------------------------
INTERNAL COORDINATES (A.U.)
---------------------------
 C      0   0   0     0.000000000000     0.00000000     0.00000000
 N      1   0   0     2.721964665623     0.00000000     0.00000000
 C      2   1   0     2.552242058129   122.47028877     0.00000000
 O      3   2   1     2.272406997757   125.38530010   358.60913635
 O      3   2   1     2.574054082076   108.70605482   177.77977208
 C      5   3   2     2.622336978697   120.52311067   175.81461466
 C      6   5   3     2.587954810414   122.80745881   319.80000041
 C      7   6   5     2.650601241554   119.91200401   182.26476649
 C      8   7   6     2.580028400517   120.83633366     0.62825625
 C      9   8   7     2.665685403939   120.52324898   359.86450931
 C     10   9   8     2.681506501589   119.34766141   359.68863504
 C     11  10   9     2.663643271899   119.17293176   180.35399899
 C     12  11  10     2.583194630835   120.65150236   359.93008658
 C     13  12  11     2.650929922584   120.34012530   359.88493661
 C     14  13  12     2.582665847876   120.26046736     0.17855701
 H      1   2   3     2.057088048284   107.37748580     1.45354591
 H      1   2   3     2.063310653355   110.87129142   242.11624846
 H      1   2   3     2.062932531891   110.68976392   120.77220368
 H      2   1   3     1.902930967840   119.26129408   177.90529293
 H      7   6   5     2.036720571516   120.30187369     3.06308547
 H      8   7   6     2.040193961697   118.67736783   180.39514685
 H      9   8   7     2.041459263259   120.73076908   179.87296840
 H     12  11  10     2.039854698547   118.57319489   179.85607199
 H     13  12  11     2.041303482803   120.23536227   179.85955082
 H     14  13  12     2.041412839145   119.39623617   180.08711665
 H     15  14  13     2.042186917534   120.56135956   179.92280508

---------------------
BASIS SET INFORMATION
---------------------
There are 4 groups of distinct atoms

 Group   1 Type C   : 7s4p1d contracted to 3s2p1d pattern {511/31/1}
 Group   2 Type N   : 7s4p1d contracted to 3s2p1d pattern {511/31/1}
 Group   3 Type O   : 7s4p1d contracted to 3s2p1d pattern {511/31/1}
 Group   4 Type H   : 4s contracted to 2s pattern {31}

Atom   0C    basis set group =>   1
Atom   1N    basis set group =>   2
Atom   2C    basis set group =>   1
Atom   3O    basis set group =>   3
Atom   4O    basis set group =>   3
Atom   5C    basis set group =>   1
Atom   6C    basis set group =>   1
Atom   7C    basis set group =>   1
Atom   8C    basis set group =>   1
Atom   9C    basis set group =>   1
Atom  10C    basis set group =>   1
Atom  11C    basis set group =>   1
Atom  12C    basis set group =>   1
Atom  13C    basis set group =>   1
Atom  14C    basis set group =>   1
Atom  15H    basis set group =>   4
Atom  16H    basis set group =>   4
Atom  17H    basis set group =>   4
Atom  18H    basis set group =>   4
Atom  19H    basis set group =>   4
Atom  20H    basis set group =>   4
Atom  21H    basis set group =>   4
Atom  22H    basis set group =>   4
Atom  23H    basis set group =>   4
Atom  24H    basis set group =>   4
Atom  25H    basis set group =>   4
---------------------------------
AUXILIARY/J BASIS SET INFORMATION
---------------------------------
There are 4 groups of distinct atoms

 Group   1 Type C   : 12s5p4d2f1g contracted to 6s4p3d1f1g pattern {711111/2111/211/2/1}
 Group   2 Type N   : 12s5p4d2f1g contracted to 6s4p3d1f1g pattern {711111/2111/211/2/1}
 Group   3 Type O   : 12s5p4d2f1g contracted to 6s4p3d1f1g pattern {711111/2111/211/2/1}
 Group   4 Type H   : 5s2p1d contracted to 3s1p1d pattern {311/2/1}

Atom   0C    basis set group =>   1
Atom   1N    basis set group =>   2
Atom   2C    basis set group =>   1
Atom   3O    basis set group =>   3
Atom   4O    basis set group =>   3
Atom   5C    basis set group =>   1
Atom   6C    basis set group =>   1
Atom   7C    basis set group =>   1
Atom   8C    basis set group =>   1
Atom   9C    basis set group =>   1
Atom  10C    basis set group =>   1
Atom  11C    basis set group =>   1
Atom  12C    basis set group =>   1
Atom  13C    basis set group =>   1
Atom  14C    basis set group =>   1
Atom  15H    basis set group =>   4
Atom  16H    basis set group =>   4
Atom  17H    basis set group =>   4
Atom  18H    basis set group =>   4
Atom  19H    basis set group =>   4
Atom  20H    basis set group =>   4
Atom  21H    basis set group =>   4
Atom  22H    basis set group =>   4
Atom  23H    basis set group =>   4
Atom  24H    basis set group =>   4
Atom  25H    basis set group =>   4
------------------------------------------------------------------------------
                             ORCA STARTUP CALCULATIONS
                           -- RI-GTO INTEGRALS CHOSEN --
------------------------------------------------------------------------------
------------------------------------------------------------------------------
                   ___                                                        
                  /   \      - P O W E R E D   B Y -                         
                 /     \                                                     
                 |  |  |   _    _      __       _____    __    __             
                 |  |  |  | |  | |    /  \     |  _  \  |  |  /  |          
                  \  \/   | |  | |   /    \    | | | |  |  | /  /          
                 / \  \   | |__| |  /  /\  \   | |_| |  |  |/  /          
                |  |  |   |  __  | /  /__\  \  |    /   |      \           
                |  |  |   | |  | | |   __   |  |    \   |  |\   \          
                \     /   | |  | | |  |  |  |  | |\  \  |  | \   \       
                 \___/    |_|  |_| |__|  |__|  |_| \__\ |__|  \__/        
                                                                              
                      - O R C A' S   B I G   F R I E N D -                    
                                      &                                       
                       - I N T E G R A L  F E E D E R -                       
                                                                              
 v1 FN, 2020, v2 2021, v3 2022-2024                                           
------------------------------------------------------------------------------


----------------------
SHARK INTEGRAL PACKAGE
----------------------

Number of atoms                             ...     26
Number of basis functions                   ...    232
Number of shells                            ...    112
Maximum angular momentum                    ...      2
Integral batch strategy                     ... SHARK/LIBINT Hybrid
RI-J (if used) integral strategy            ... SPLIT-RIJ (Revised 2003 algorithm where possible)
Printlevel                                  ...      1
Contraction scheme used                     ... SEGMENTED contraction
Prescreening option                         ... SCHWARTZ
   Thresh                                   ... 1.000e-09
   Tcut                                     ... 1.000e-10
   Tpresel                                  ... 1.000e-10 
Coulomb Range Separation                    ... NOT USED
Exchange Range Separation                   ... NOT USED
Multipole approximations                    ... NOT USED
Finite Nucleus Model                        ... NOT USED
CABS basis                                  ... NOT available
Auxiliary Coulomb fitting basis             ... AVAILABLE
   # of basis functions in Aux-J            ...    856
   # of shells in Aux-J                     ...    280
   Maximum angular momentum in Aux-J        ...      4
Auxiliary J/K fitting basis                 ... NOT available
Auxiliary Correlation fitting basis         ... NOT available
Auxiliary 'external' fitting basis          ... NOT available

Checking pre-screening integrals            ... done (  0.0 sec) Dimension = 112
Check shell pair data                       ... done (  0.0 sec)
Shell pair information
Shell pair cut-off parameter TPreSel        ...   1.0e-10
Total number of shell pairs                 ...      6328
Shell pairs after pre-screening             ...      5151
Total number of primitive shell pairs       ...     25428
Primitive shell pairs kept                  ...     13259
          la=0 lb=0:   1779 shell pairs
          la=1 lb=0:   1731 shell pairs
          la=1 lb=1:    432 shell pairs
          la=2 lb=0:    746 shell pairs
          la=2 lb=1:    380 shell pairs
          la=2 lb=2:     83 shell pairs

Calculating one electron integrals          ... done (  0.0 sec)
Calculating RI/J V-Matrix + Cholesky decomp.... done (  0.1 sec)
Calculating Nuclear repulsion               ... done (  0.0 sec) ENN=    929.999105049256 Eh

Diagonalization of the overlap matrix:
Smallest eigenvalue                        ... 2.253e-04
Time for diagonalization                   ...    0.005 sec
Threshold for overlap eigenvalues          ... 1.000e-07
Number of eigenvalues below threshold      ... 0
Time for construction of square roots      ...    0.005 sec
Total time needed                          ...    0.012 sec

-------------------
DFT GRID GENERATION
-------------------

General Integration Accuracy     IntAcc      ... 4.159
Radial Grid Type                 RadialGrid  ... OptM3 with GC (2021)
Angular Grid (max. ang.)         AngularGrid ... 3 (Lebedev-194)
Angular grid pruning method      GridPruning ... 4 (adaptive)
Weight generation scheme         WeightScheme... mBecke (2022)
Basis function cutoff            BFCut       ... 1.0000e-10
Integration weight cutoff        WCut        ... 1.0000e-14
Partially contracted basis set               ... off
Rotationally invariant grid construction     ... off
Angular grids for H and He will be reduced by one unit

Total number of grid points                  ...    64286
Total number of batches                      ...     1018
Average number of points per batch           ...       63
Average number of grid points per atom       ...     2473
Initializing property integral containers    ... done (  0.0 sec)

SHARK setup successfully completed in   0.8 seconds

Maximum memory used throughout the entire STARTUP-calculation: 33.3 MB
-------------------------------------------------------------------------------
                                 ORCA GUESS
                   Start orbitals & Density for SCF / CASSCF
-------------------------------------------------------------------------------

------------
SCF SETTINGS
------------
Hamiltonian:
 Density Functional     Method          .... DFT(GTOs)
 Exchange Functional    Exchange        .... PBE
   PBE kappa parameter   XKappa         ....  0.804000
   PBE mue parameter    XMuePBE         ....  0.219520
 Correlation Functional Correlation     .... PBE
   PBE beta parameter  CBetaPBE         ....  0.066725
 LDA part of GGA corr.  LDAOpt          .... PW91-LDA
 Gradients option       PostSCFGGA      .... off
   NL short-range parameter             ....  6.400000
 RI-approximation to the Coulomb term is turned on
   Number of AuxJ basis functions       .... 856


General Settings:
 Integral files         IntName         .... sp
 Hartree-Fock type      HFTyp           .... RHF
 Total Charge           Charge          ....    0
 Multiplicity           Mult            ....    1
 Number of Electrons    NEL             ....  106
 Basis Dimension        Dim             ....  232
 Nuclear Repulsion      ENuc            ....    929.9991050493 Eh

Convergence Acceleration:
 AO-DIIS                CNVDIIS         .... on
   Start iteration      DIISMaxIt       ....    12
   Startup error        DIISStart       ....  0.200000
   # of expansion vecs  DIISMaxEq       ....     5
   Bias factor          DIISBfac        ....   1.050
   Max. coefficient     DIISMaxC        ....  10.000
 MO-DIIS                CNVKDIIS        .... off
 Trust-Rad. Augm. Hess. CNVTRAH         .... auto
   Auto Start mean grad. ratio tolernc. ....  1.125000
   Auto Start start iteration           ....    50
   Auto Start num. interpolation iter.  ....    10
   Max. Number of Micro iterations      ....    24
   Max. Number of Macro iterations      .... Maxiter - #DIIS iter
   Number of Davidson start vectors     ....     2
   Converg. threshold    (grad. norm)   ....   1.000e-04
   Grad. Scal. Fac. for Micro threshold ....   0.100
   Minimum threshold for Micro iter.    ....   1.000e-02
   NR start threshold (gradient norm)   ....   1.000e-04
   Initial trust radius                 ....   0.400
   Minimum AH scaling param. (alpha)    ....   1.000
   Maximum AH scaling param. (alpha)    .... 1000.000
   Quad. conv. algorithm                .... NR
   White noise on init. David. guess    .... on
   Maximum white noise                  ....   0.010
   Pseudo random numbers                .... off
   Inactive MOs                         .... canonical
   Orbital update algorithm             .... Taylor
   Preconditioner                       .... Diag
   Full preconditioner red. dimension   ....   250
 SOSCF                  CNVSOSCF        .... on
   Start iteration      SOSCFMaxIt      ....   150
   Startup grad/error   SOSCFStart      ....  0.003300
   Hessian update       SOSCFHessUp     .... L-BFGS
 Level Shifting         CNVShift        .... on
   Level shift para.    LevelShift      ....    0.2500
   Turn off err/grad.   ShiftErr        ....    0.0010
 Zerner damping         CNVZerner       .... off
 Static damping         CNVDamp         .... on
   Fraction old density DampFac         ....    0.7000
   Max. Damping (<1)    DampMax         ....    0.9800
   Min. Damping (>=0)   DampMin         ....    0.0000
   Turn off err/grad.   DampErr         ....    0.1000

SCF Procedure:
 Maximum # iterations   MaxIter         ....   125
 SCF integral mode      SCFMode         .... Direct
   Integral package                     .... SHARK and LIBINT hybrid scheme
 Reset frequency        DirectResetFreq ....    20
 Integral Threshold     Thresh          ....  1.000e-09 Eh
 Primitive CutOff       TCut            ....  1.000e-10 Eh

Convergence Tolerance:
 Convergence Check Mode ConvCheckMode   .... Total+1el-Energy
 Convergence forced     ConvForced      .... 0
 Energy Change          TolE            ....  1.000e-05 Eh
 1-El. energy change                    ....  1.000e-02 Eh
 Orbital Gradient       TolG            ....  1.000e-04
 Orbital Rotation angle TolX            ....  1.000e-04
 DIIS Error             TolErr          ....  5.000e-04

------------------------------
INITIAL GUESS: MODEL POTENTIAL
------------------------------
Loading Hartree-Fock densities                     ... done
Calculating cut-offs                               ... done
Initializing the effective Hamiltonian             ... done
Setting up the integral package (SHARK)            ... done
Starting the Coulomb interaction                   ... done (   0.3 sec)
Making the grid                                    ... done (   0.3 sec)
Mapping shells                                     ... done
Starting the XC term evaluation                    ... done (   0.2 sec)
  promolecular density results
     # of electrons  =    105.992459280
     EX              =    -87.551100329
     EC              =     -3.558703192
     EX+EC           =    -91.109803521
Transforming the Hamiltonian                       ... done (   0.0 sec)
Diagonalizing the Hamiltonian                      ... done (   0.0 sec)
Back transforming the eigenvectors                 ... done (   0.0 sec)
Now organizing SCF variables                       ... done
                      ------------------
                      INITIAL GUESS DONE (   0.8 sec)
                      ------------------
             **** ENERGY FILE WAS UPDATED (sp.en.tmp) ****
Finished Guess after   1.1 sec
Maximum memory used throughout the entire GUESS-calculation: 26.4 MB

-------------------------------------------------------------------------------------------
                                      ORCA LEAN-SCF
                              memory conserving SCF solver
-------------------------------------------------------------------------------------------

----------------------------------------D-I-I-S--------------------------------------------
Iteration    Energy (Eh)           Delta-E    RMSDP     MaxDP     DIISErr   Damp  Time(sec)
-------------------------------------------------------------------------------------------
               ***  Starting incremental Fock matrix formation  ***
    1    -667.4945610454319649     0.00e+00  3.45e-03  9.69e-02  2.54e-01  0.700   1.1
    2    -667.6524102088421841    -1.58e-01  2.17e-03  4.48e-02  7.22e-02  0.700   0.9
                               ***Turning on AO-DIIS***
    3    -667.7036031833645211    -5.12e-02  9.23e-04  1.30e-02  3.00e-02  0.700   0.9
    4    -667.7370818136371327    -3.35e-02  1.56e-03  2.80e-02  1.38e-02  0.000   1.2
    5    -667.8128367051835994    -7.58e-02  4.11e-04  9.59e-03  6.15e-03  0.000   1.0
    6    -667.8135601058236261    -7.23e-04  1.52e-04  3.87e-03  3.30e-03  0.000   0.8
                              *** Initializing SOSCF ***
---------------------------------------S-O-S-C-F--------------------------------------
Iteration    Energy (Eh)           Delta-E    RMSDP     MaxDP     MaxGrad    Time(sec)
--------------------------------------------------------------------------------------
    7    -667.8136324412505473    -7.23e-05  5.54e-05  1.59e-03  5.39e-04     0.8
               *** Restarting incremental Fock matrix formation ***
    8    -667.8136378512847386    -5.41e-06  3.12e-05  5.62e-04  1.24e-04     1.2
    9    -667.8136377415571587     1.10e-07  1.26e-05  2.23e-04  8.19e-05     1.2
                 **** Energy Check signals convergence ****

               *****************************************************
               *                     SUCCESS                       *
               *           SCF CONVERGED AFTER   9 CYCLES          *
               *****************************************************

             **** ENERGY FILE WAS UPDATED (sp.en.tmp) ****

----------------
TOTAL SCF ENERGY
----------------

Total Energy       :       -667.81363774155716 Eh          -18172.13294 eV

Components:
Nuclear Repulsion  :        929.99910504925606 Eh           25306.56221 eV
Electronic Energy  :      -1597.81274279081322 Eh          -43478.69515 eV
One Electron Energy:      -2752.60620716533367 Eh          -74902.22285 eV
Two Electron Energy:       1154.79346437452045 Eh           31423.52771 eV

Virial components:
Potential Energy   :      -1330.12144571357567 Eh          -36194.44463 eV
Kinetic Energy     :        662.30780797201840 Eh           18022.31169 eV
Virial Ratio       :          2.00831309808410

DFT components:
N(Alpha)           :       53.000014596999 electrons
N(Beta)            :       53.000014596999 electrons
N(Total)           :      106.000029193998 electrons
E(X)               :      -88.968139571560 Eh       
E(C)               :       -3.578278852456 Eh       
E(XC)              :      -92.546418424017 Eh       

---------------
SCF CONVERGENCE
---------------

  Last Energy change         ...   -1.0973e-07  Tolerance :   1.0000e-05
  Last MAX-Density change    ...    2.2315e-04  Tolerance :   1.0000e-03
  Last RMS-Density change    ...    1.2616e-05  Tolerance :   1.0000e-04
  Last DIIS Error            ...    5.3853e-04  Tolerance :   5.0000e-04
  Last Orbital Gradient      ...    8.1914e-05  Tolerance :   1.0000e-04
  Last Orbital Rotation      ...    2.1614e-04  Tolerance :   1.0000e-04


----------------
ORBITAL ENERGIES
----------------

  NO   OCC          E(Eh)            E(eV) 
   0   2.0000     -18.809154      -511.8231 
   1   2.0000     -18.726138      -509.5641 
   2   2.0000     -14.023660      -381.6032 
   3   2.0000     -10.028959      -272.9019 
   4   2.0000      -9.956287      -270.9243 
   5   2.0000      -9.924985      -270.0726 
   6   2.0000      -9.904350      -269.5111 
   7   2.0000      -9.903307      -269.4827 
   8   2.0000      -9.893422      -269.2137 
   9   2.0000      -9.893357      -269.2119 
  10   2.0000      -9.893306      -269.2105 
  11   2.0000      -9.893024      -269.2029 
  12   2.0000      -9.892838      -269.1978 
  13   2.0000      -9.889647      -269.1110 
  14   2.0000      -9.889535      -269.1079 
  15   2.0000      -1.016252       -27.6536 
  16   2.0000      -0.925442       -25.1826 
  17   2.0000      -0.848787       -23.0967 
  18   2.0000      -0.794311       -21.6143 
  19   2.0000      -0.744713       -20.2647 
  20   2.0000      -0.703070       -19.1315 
  21   2.0000      -0.668819       -18.1995 
  22   2.0000      -0.663051       -18.0425 
  23   2.0000      -0.634233       -17.2584 
  24   2.0000      -0.579658       -15.7733 
  25   2.0000      -0.557277       -15.1643 
  26   2.0000      -0.552877       -15.0446 
  27   2.0000      -0.532550       -14.4914 
  28   2.0000      -0.501056       -13.6344 
  29   2.0000      -0.467569       -12.7232 
  30   2.0000      -0.449061       -12.2196 
  31   2.0000      -0.438612       -11.9352 
  32   2.0000      -0.435553       -11.8520 
  33   2.0000      -0.425760       -11.5855 
  34   2.0000      -0.401534       -10.9263 
  35   2.0000      -0.395629       -10.7656 
  36   2.0000      -0.384793       -10.4707 
  37   2.0000      -0.381069       -10.3694 
  38   2.0000      -0.374910       -10.2018 
  39   2.0000      -0.361826        -9.8458 
  40   2.0000      -0.356357        -9.6970 
  41   2.0000      -0.352607        -9.5949 
  42   2.0000      -0.343369        -9.3436 
  43   2.0000      -0.328138        -8.9291 
  44   2.0000      -0.307614        -8.3706 
  45   2.0000      -0.298435        -8.1208 
  46   2.0000      -0.292841        -7.9686 
  47   2.0000      -0.280379        -7.6295 
  48   2.0000      -0.245385        -6.6773 
  49   2.0000      -0.233601        -6.3566 
  50   2.0000      -0.223017        -6.0686 
  51   2.0000      -0.222288        -6.0488 
  52   2.0000      -0.189892        -5.1672 
  53   0.0000      -0.066985        -1.8228 
  54   0.0000      -0.038806        -1.0560 
  55   0.0000      -0.004596        -0.1251 
  56   0.0000       0.024235         0.6595 
  57   0.0000       0.029314         0.7977 
  58   0.0000       0.048781         1.3274 
  59   0.0000       0.057433         1.5628 
  60   0.0000       0.061885         1.6840 
  61   0.0000       0.071149         1.9361 
  62   0.0000       0.079960         2.1758 
  63   0.0000       0.098562         2.6820 
*Only the first 10 virtual orbitals were printed.

                    ********************************
                    * MULLIKEN POPULATION ANALYSIS *
                    ********************************

-----------------------
MULLIKEN ATOMIC CHARGES
-----------------------
   0 C :   -0.179089
   1 N :   -0.292755
   2 C :    0.197767
   3 O :   -0.213121
   4 O :   -0.250606
   5 C :    0.198737
   6 C :   -0.135104
   7 C :   -0.043951
   8 C :   -0.113535
   9 C :    0.135940
  10 C :    0.095189
  11 C :   -0.127748
  12 C :   -0.038155
  13 C :   -0.038143
  14 C :   -0.130623
  15 H :    0.140589
  16 H :    0.115949
  17 H :    0.115580
  18 H :    0.232562
  19 H :    0.058543
  20 H :    0.055395
  21 H :    0.036336
  22 H :    0.036722
  23 H :    0.051300
  24 H :    0.052341
  25 H :    0.039879
Sum of atomic charges:    0.0000000

--------------------------------
MULLIKEN REDUCED ORBITAL CHARGES
--------------------------------
  0 C s       :     3.094660  s :     3.094660
      pz      :     1.070800  p :     3.042295
      px      :     0.858877
      py      :     1.112618
      dz2     :     0.003822  d :     0.042134
      dxz     :     0.012948
      dyz     :     0.007532
      dx2y2   :     0.011762
      dxy     :     0.006071

  1 N s       :     3.377869  s :     3.377869
      pz      :     1.462582  p :     3.892860
      px      :     1.136339
      py      :     1.293939
      dz2     :     0.001854  d :     0.022026
      dxz     :     0.004905
      dyz     :     0.004664
      dx2y2   :     0.004528
      dxy     :     0.006076

  2 C s       :     2.967717  s :     2.967717
      pz      :     0.907119  p :     2.681883
      px      :     0.846129
      py      :     0.928636
      dz2     :     0.026404  d :     0.152634
      dxz     :     0.034941
      dyz     :     0.018318
      dx2y2   :     0.032801
      dxy     :     0.040170

  3 O s       :     3.739628  s :     3.739628
      pz      :     1.400877  p :     4.455044
      px      :     1.674308
      py      :     1.379859
      dz2     :     0.004146  d :     0.018449
      dxz     :     0.001855
      dyz     :     0.006005
      dx2y2   :     0.003543
      dxy     :     0.002901

  4 O s       :     3.709296  s :     3.709296
      pz      :     1.682009  p :     4.525873
      px      :     1.207078
      py      :     1.636786
      dz2     :     0.002119  d :     0.015437
      dxz     :     0.003850
      dyz     :     0.002055
      dx2y2   :     0.002695
      dxy     :     0.004718

  5 C s       :     2.982550  s :     2.982550
      pz      :     1.013030  p :     2.751251
      px      :     0.882120
      py      :     0.856100
      dz2     :     0.005114  d :     0.067462
      dxz     :     0.010313
      dyz     :     0.010031
      dx2y2   :     0.018551
      dxy     :     0.023453

  6 C s       :     3.302070  s :     3.302070
      pz      :     1.008851  p :     2.799513
      px      :     0.788706
      py      :     1.001956
      dz2     :     0.003206  d :     0.033521
      dxz     :     0.003395
      dyz     :     0.005913
      dx2y2   :     0.011087
      dxy     :     0.009921

  7 C s       :     3.184547  s :     3.184547
      pz      :     0.993833  p :     2.823761
      px      :     0.978492
      py      :     0.851436
      dz2     :     0.003325  d :     0.035643
      dxz     :     0.007089
      dyz     :     0.002102
      dx2y2   :     0.013936
      dxy     :     0.009191

  8 C s       :     3.274701  s :     3.274701
      pz      :     1.009767  p :     2.804316
      px      :     0.822237
      py      :     0.972312
      dz2     :     0.003167  d :     0.034517
      dxz     :     0.003772
      dyz     :     0.004993
      dx2y2   :     0.010292
      dxy     :     0.012293

  9 C s       :     3.030354  s :     3.030354
      pz      :     0.970492  p :     2.792421
      px      :     0.958400
      py      :     0.863529
      dz2     :     0.002958  d :     0.041284
      dxz     :     0.006025
      dyz     :     0.006987
      dx2y2   :     0.012389
      dxy     :     0.012926

 10 C s       :     3.075451  s :     3.075451
      pz      :     1.001866  p :     2.790375
      px      :     0.970292
      py      :     0.818216
      dz2     :     0.003036  d :     0.038985
      dxz     :     0.005944
      dyz     :     0.006749
      dx2y2   :     0.010750
      dxy     :     0.012506

 11 C s       :     3.298083  s :     3.298083
      pz      :     0.990536  p :     2.795101
      px      :     0.811412
      py      :     0.993153
      dz2     :     0.003158  d :     0.034565
      dxz     :     0.003728
      dyz     :     0.005158
      dx2y2   :     0.010371
      dxy     :     0.012149

 12 C s       :     3.182128  s :     3.182128
      pz      :     0.995214  p :     2.820849
      px      :     0.982492
      py      :     0.843143
      dz2     :     0.003246  d :     0.035179
      dxz     :     0.006621
      dyz     :     0.002085
      dx2y2   :     0.014070
      dxy     :     0.009156

 13 C s       :     3.178764  s :     3.178764
      pz      :     0.992100  p :     2.824232
      px      :     0.869797
      py      :     0.962335
      dz2     :     0.003031  d :     0.035146
      dxz     :     0.003078
      dyz     :     0.005901
      dx2y2   :     0.010444
      dxy     :     0.012693

 14 C s       :     3.281018  s :     3.281018
      pz      :     0.996967  p :     2.815048
      px      :     0.906494
      py      :     0.911587
      dz2     :     0.003115  d :     0.034557
      dxz     :     0.003004
      dyz     :     0.005799
      dx2y2   :     0.009203
      dxy     :     0.013436

 15 H s       :     0.859411  s :     0.859411

 16 H s       :     0.884051  s :     0.884051

 17 H s       :     0.884420  s :     0.884420

 18 H s       :     0.767438  s :     0.767438

 19 H s       :     0.941457  s :     0.941457

 20 H s       :     0.944605  s :     0.944605

 21 H s       :     0.963664  s :     0.963664

 22 H s       :     0.963278  s :     0.963278

 23 H s       :     0.948700  s :     0.948700

 24 H s       :     0.947659  s :     0.947659

 25 H s       :     0.960121  s :     0.960121


------------------------
MULLIKEN OVERLAP CHARGES
------------------------
B(  0-C ,  1-N ) :   0.7077 B(  0-C ,  2-C ) :  -0.0624 B(  0-C , 15-H ) :   0.7341 
B(  0-C , 16-H ) :   0.7808 B(  0-C , 17-H ) :   0.7790 B(  0-C , 18-H ) :  -0.0527 
B(  1-N ,  2-C ) :   0.6944 B(  1-N ,  3-O ) :  -0.1937 B(  1-N ,  4-O ) :  -0.2293 
B(  1-N , 15-H ) :  -0.0574 B(  1-N , 16-H ) :  -0.0641 B(  1-N , 17-H ) :  -0.0667 
B(  1-N , 18-H ) :   0.5962 B(  2-C ,  3-O ) :   1.4044 B(  2-C ,  4-O ) :   0.6323 
B(  2-C ,  5-C ) :  -0.0624 B(  3-O ,  4-O ) :  -0.1376 B(  3-O , 15-H ) :   0.0603 
B(  4-O ,  5-C ) :   0.7629 B(  4-O ,  6-C ) :  -0.1624 B(  4-O , 10-C ) :  -0.2166 
B(  5-C ,  6-C ) :   0.2589 B(  5-C ,  7-C ) :   0.4655 B(  5-C ,  8-C ) :  -0.4341 
B(  5-C ,  9-C ) :   0.1179 B(  5-C , 10-C ) :   0.1378 B(  5-C , 11-C ) :  -0.3256 
B(  5-C , 12-C ) :   0.0521 B(  5-C , 14-C ) :   0.0668 B(  5-C , 19-H ) :  -0.1673 
B(  5-C , 22-H ) :  -0.0748 B(  6-C ,  7-C ) :   0.0624 B(  6-C ,  8-C ) :   0.3945 
B(  6-C ,  9-C ) :  -0.3720 B(  6-C , 10-C ) :   0.1654 B(  6-C , 11-C ) :   0.0572 
B(  6-C , 19-H ) :   0.8685 B(  6-C , 20-H ) :  -0.1770 B(  7-C ,  8-C ) :   0.1996 
B(  7-C ,  9-C ) :   0.3788 B(  7-C , 10-C ) :  -0.3474 B(  7-C , 19-H ) :  -0.1728 
B(  7-C , 20-H ) :   0.8902 B(  7-C , 21-H ) :  -0.1889 B(  8-C ,  9-C ) :   0.3343 
B(  8-C , 10-C ) :   0.0986 B(  8-C , 11-C ) :   0.0546 B(  8-C , 14-C ) :  -0.3147 
B(  8-C , 20-H ) :  -0.1817 B(  8-C , 21-H ) :   0.8813 B(  9-C , 11-C ) :   0.1184 
B(  9-C , 12-C ) :  -0.3880 B(  9-C , 13-C ) :   0.3519 B(  9-C , 14-C ) :   0.3925 
B(  9-C , 21-H ) :  -0.1634 B(  9-C , 25-H ) :  -0.1616 B( 10-C , 11-C ) :   0.2906 
B( 10-C , 12-C ) :   0.3447 B( 10-C , 13-C ) :  -0.3691 B( 10-C , 14-C ) :   0.0885 
B( 10-C , 22-H ) :  -0.1536 B( 11-C , 12-C ) :   0.2819 B( 11-C , 13-C ) :   0.3619 
B( 11-C , 14-C ) :  -0.3901 B( 11-C , 22-H ) :   0.8899 B( 11-C , 23-H ) :  -0.1787 
B( 12-C , 13-C ) :   0.1695 B( 12-C , 14-C ) :   0.3717 B( 12-C , 22-H ) :  -0.1907 
B( 12-C , 23-H ) :   0.8852 B( 12-C , 24-H ) :  -0.1790 B( 13-C , 14-C ) :   0.2934 
B( 13-C , 23-H ) :  -0.1780 B( 13-C , 24-H ) :   0.8819 B( 13-C , 25-H ) :  -0.1879 
B( 14-C , 24-H ) :  -0.1753 B( 14-C , 25-H ) :   0.8785 B( 16-H , 17-H ) :  -0.0683 



                     *******************************
                     * LOEWDIN POPULATION ANALYSIS *
                     *******************************

----------------------
LOEWDIN ATOMIC CHARGES
----------------------
   0 C :   -0.258388
   1 N :   -0.175231
   2 C :    0.033959
   3 O :   -0.182728
   4 O :   -0.053114
   5 C :    0.050348
   6 C :   -0.139865
   7 C :   -0.117601
   8 C :   -0.121376
   9 C :   -0.022797
  10 C :   -0.036230
  11 C :   -0.112159
  12 C :   -0.124152
  13 C :   -0.124847
  14 C :   -0.109452
  15 H :    0.138968
  16 H :    0.117664
  17 H :    0.117659
  18 H :    0.236776
  19 H :    0.136365
  20 H :    0.126763
  21 H :    0.123678
  22 H :    0.123460
  23 H :    0.123725
  24 H :    0.124148
  25 H :    0.124427

-------------------------------
LOEWDIN REDUCED ORBITAL CHARGES
-------------------------------
  0 C s       :     2.938452  s :     2.938452
      pz      :     1.125544  p :     3.221999
      px      :     0.941661
      py      :     1.154794
      dz2     :     0.008017  d :     0.097937
      dxz     :     0.030723
      dyz     :     0.018331
      dx2y2   :     0.028440
      dxy     :     0.012426

  1 N s       :     3.105084  s :     3.105084
      pz      :     1.471653  p :     4.015172
      px      :     1.203190
      py      :     1.340329
      dz2     :     0.004597  d :     0.054975
      dxz     :     0.011319
      dyz     :     0.009699
      dx2y2   :     0.012770
      dxy     :     0.016590

  2 C s       :     2.798625  s :     2.798625
      pz      :     0.939842  p :     2.821206
      px      :     0.896584
      py      :     0.984780
      dz2     :     0.053309  d :     0.346210
      dxz     :     0.080492
      dyz     :     0.044313
      dx2y2   :     0.072631
      dxy     :     0.095463

  3 O s       :     3.541404  s :     3.541404
      pz      :     1.457028  p :     4.608958
      px      :     1.683550
      py      :     1.468380
      dz2     :     0.005456  d :     0.032366
      dxz     :     0.002921
      dyz     :     0.012972
      dx2y2   :     0.006522
      dxy     :     0.004496

  4 O s       :     3.428082  s :     3.428082
      pz      :     1.678114  p :     4.593137
      px      :     1.269412
      py      :     1.645611
      dz2     :     0.003630  d :     0.031895
      dxz     :     0.008482
      dyz     :     0.002751
      dx2y2   :     0.007010
      dxy     :     0.010021

  5 C s       :     2.838891  s :     2.838891
      pz      :     1.000858  p :     2.947631
      px      :     0.911085
      py      :     1.035688
      dz2     :     0.011588  d :     0.163130
      dxz     :     0.020869
      dyz     :     0.020704
      dx2y2   :     0.048900
      dxy     :     0.061069

  6 C s       :     2.893785  s :     2.893785
      pz      :     1.007520  p :     3.156825
      px      :     1.075488
      py      :     1.073817
      dz2     :     0.007434  d :     0.089255
      dxz     :     0.006411
      dyz     :     0.012737
      dx2y2   :     0.032538
      dxy     :     0.030135

  7 C s       :     2.887947  s :     2.887947
      pz      :     0.985509  p :     3.135837
      px      :     1.086840
      py      :     1.063488
      dz2     :     0.007467  d :     0.093817
      dxz     :     0.016066
      dyz     :     0.003641
      dx2y2   :     0.038275
      dxy     :     0.028367

  8 C s       :     2.889737  s :     2.889737
      pz      :     1.004602  p :     3.140499
      px      :     1.074084
      py      :     1.061813
      dz2     :     0.007110  d :     0.091140
      dxz     :     0.007505
      dyz     :     0.010635
      dx2y2   :     0.030900
      dxy     :     0.034990

  9 C s       :     2.836413  s :     2.836413
      pz      :     0.961686  p :     3.073924
      px      :     1.055577
      py      :     1.056661
      dz2     :     0.007679  d :     0.112460
      dxz     :     0.012617
      dyz     :     0.014535
      dx2y2   :     0.038366
      dxy     :     0.039263

 10 C s       :     2.839479  s :     2.839479
      pz      :     0.987153  p :     3.088379
      px      :     1.044156
      py      :     1.057070
      dz2     :     0.007927  d :     0.108372
      dxz     :     0.012361
      dyz     :     0.013898
      dx2y2   :     0.035140
      dxy     :     0.039046

 11 C s       :     2.889666  s :     2.889666
      pz      :     0.986882  p :     3.131346
      px      :     1.079583
      py      :     1.064882
      dz2     :     0.007032  d :     0.091147
      dxz     :     0.007389
      dyz     :     0.011144
      dx2y2   :     0.030916
      dxy     :     0.034666

 12 C s       :     2.890359  s :     2.890359
      pz      :     0.987901  p :     3.140991
      px      :     1.090404
      py      :     1.062686
      dz2     :     0.007355  d :     0.092802
      dxz     :     0.014892
      dyz     :     0.003625
      dx2y2   :     0.038492
      dxy     :     0.028439

 13 C s       :     2.890909  s :     2.890909
      pz      :     0.986538  p :     3.141371
      px      :     1.063318
      py      :     1.091515
      dz2     :     0.007008  d :     0.092567
      dxz     :     0.005939
      dyz     :     0.012894
      dx2y2   :     0.030804
      dxy     :     0.035922

 14 C s       :     2.891572  s :     2.891572
      pz      :     0.988429  p :     3.126921
      px      :     1.056000
      py      :     1.082492
      dz2     :     0.007020  d :     0.090960
      dxz     :     0.005907
      dyz     :     0.012205
      dx2y2   :     0.028393
      dxy     :     0.037434

 15 H s       :     0.861032  s :     0.861032

 16 H s       :     0.882336  s :     0.882336

 17 H s       :     0.882341  s :     0.882341

 18 H s       :     0.763224  s :     0.763224

 19 H s       :     0.863635  s :     0.863635

 20 H s       :     0.873237  s :     0.873237

 21 H s       :     0.876322  s :     0.876322

 22 H s       :     0.876540  s :     0.876540

 23 H s       :     0.876275  s :     0.876275

 24 H s       :     0.875852  s :     0.875852

 25 H s       :     0.875573  s :     0.875573


---------------------------------
LOEWDIN BOND ORDERS (THRESH 0.050000)
---------------------------------
B(  0-C ,  1-N ) :   1.1253 B(  0-C ,  2-C ) :   0.0727 B(  0-C , 15-H ) :   0.9283 
B(  0-C , 16-H ) :   0.9427 B(  0-C , 17-H ) :   0.9428 B(  1-N ,  2-C ) :   1.3711 
B(  1-N ,  3-O ) :   0.1973 B(  1-N ,  4-O ) :   0.0950 B(  1-N , 18-H ) :   0.8546 
B(  2-C ,  3-O ) :   2.1591 B(  2-C ,  4-O ) :   1.2367 B(  2-C ,  5-C ) :   0.0707 
B(  3-O ,  4-O ) :   0.1487 B(  4-O ,  5-C ) :   1.1591 B(  4-O ,  6-C ) :   0.0871 
B(  4-O , 10-C ) :   0.0712 B(  5-C ,  6-C ) :   1.5342 B(  5-C ,  7-C ) :   0.0926 
B(  5-C ,  8-C ) :   0.1114 B(  5-C ,  9-C ) :   0.0784 B(  5-C , 10-C ) :   1.2558 
B(  5-C , 11-C ) :   0.0776 B(  6-C ,  7-C ) :   1.3816 B(  6-C ,  8-C ) :   0.0866 
B(  6-C ,  9-C ) :   0.0660 B(  6-C , 10-C ) :   0.0853 B(  6-C , 19-H ) :   0.8737 
B(  7-C ,  8-C ) :   1.6080 B(  7-C ,  9-C ) :   0.0872 B(  7-C , 10-C ) :   0.0663 
B(  7-C , 20-H ) :   0.8853 B(  8-C ,  9-C ) :   1.3116 B(  8-C , 10-C ) :   0.0738 
B(  8-C , 14-C ) :   0.0814 B(  8-C , 21-H ) :   0.8822 B(  9-C , 10-C ) :   1.2400 
B(  9-C , 11-C ) :   0.0733 B(  9-C , 12-C ) :   0.0710 B(  9-C , 13-C ) :   0.0858 
B(  9-C , 14-C ) :   1.3164 B( 10-C , 11-C ) :   1.3162 B( 10-C , 12-C ) :   0.0866 
B( 10-C , 13-C ) :   0.0709 B( 10-C , 14-C ) :   0.0747 B( 11-C , 12-C ) :   1.6095 
B( 11-C , 13-C ) :   0.0861 B( 11-C , 14-C ) :   0.1246 B( 11-C , 22-H ) :   0.8805 
B( 12-C , 13-C ) :   1.3859 B( 12-C , 14-C ) :   0.0858 B( 12-C , 23-H ) :   0.8878 
B( 13-C , 14-C ) :   1.6115 B( 13-C , 24-H ) :   0.8875 B( 14-C , 25-H ) :   0.8824 


------------------------------------------
LOEWDIN REDUCED ORBITAL POPULATIONS PER MO
-------------------------------------------
THRESHOLD FOR PRINTING IS 0.1%%
                      0         1         2         3         4         5   
                 -18.80915 -18.72614 -14.02366 -10.02896  -9.95629  -9.92499
                   2.00000   2.00000   2.00000   2.00000   2.00000   2.00000
                  --------  --------  --------  --------  --------  --------
 0 C  s               0.0       0.0       0.0       0.0       0.0      99.7
 1 N  s               0.0       0.0      99.8       0.0       0.0       0.0
 1 N  px              0.0       0.0       0.0       0.1       0.0       0.1
 2 C  s               0.0       0.0       0.0      99.3       0.0       0.0
 3 O  s               0.0      99.9       0.0       0.0       0.0       0.0
 3 O  pz              0.0       0.0       0.0       0.1       0.0       0.0
 3 O  py              0.0       0.0       0.0       0.2       0.0       0.0
 4 O  s              99.9       0.0       0.0       0.0       0.0       0.0
 4 O  px              0.0       0.0       0.0       0.1       0.1       0.0
 5 C  s               0.0       0.0       0.0       0.0      99.5       0.0
 6 C  py              0.0       0.0       0.0       0.0       0.2       0.0

                      6         7         8         9        10        11   
                  -9.90435  -9.90331  -9.89342  -9.89336  -9.89331  -9.89302
                   2.00000   2.00000   2.00000   2.00000   2.00000   2.00000
                  --------  --------  --------  --------  --------  --------
 5 C  px              0.1       0.0       0.0       0.0       0.0       0.0
 6 C  px              0.0       0.0       0.0       0.0       0.1       0.0
 7 C  s               0.0       0.0       1.0       0.1      98.2       0.1
 8 C  s               0.0       0.0       0.0       0.0       0.2       0.0
 8 C  px              0.0       0.0       0.0       0.0       0.1       0.0
 8 C  py              0.0       0.1       0.0       0.0       0.0       0.0
 9 C  s               0.3      99.2       0.0       0.0       0.0       0.0
10 C  s              99.2       0.3       0.0       0.0       0.0       0.0
11 C  s               0.0       0.0      17.8      64.2       0.5       6.3
11 C  py              0.1       0.0       0.0       0.0       0.0       0.0
12 C  s               0.0       0.0       0.5      15.2       0.0       4.0
12 C  px              0.0       0.0       0.1       0.0       0.0       0.1
13 C  s               0.0       0.0      18.2      12.6       0.3      59.9
13 C  py              0.0       0.0       0.1       0.0       0.0       0.1
14 C  s               0.0       0.0      62.0       7.6       0.3      29.3
14 C  px              0.0       0.1       0.0       0.0       0.0       0.0

                     12        13        14        15        16        17   
                  -9.89284  -9.88965  -9.88953  -1.01625  -0.92544  -0.84879
                   2.00000   2.00000   2.00000   2.00000   2.00000   2.00000
                  --------  --------  --------  --------  --------  --------
 0 C  s               0.0       0.0       0.0       0.3       0.5       8.5
 0 C  pz              0.0       0.0       0.0       0.0       0.0       0.6
 0 C  px              0.0       0.0       0.0       0.4       0.5       4.5
 0 C  dx2y2           0.0       0.0       0.0       0.0       0.0       0.2
 1 N  s               0.0       0.0       0.0       3.4       2.8      40.2
 1 N  pz              0.0       0.0       0.0       0.1       0.3       0.0
 1 N  px              0.0       0.0       0.0       1.1       0.0       0.1
 1 N  py              0.0       0.0       0.0       0.6       0.6       0.0
 2 C  s               0.0       0.0       0.0      19.4       7.4       1.0
 2 C  pz              0.0       0.0       0.0       0.1       6.9       4.0
 2 C  px              0.0       0.0       0.0       2.8       7.1       4.5
 2 C  py              0.0       0.0       0.0       0.1       6.7      12.0
 2 C  dxz             0.0       0.0       0.0       0.3       0.0       0.1
 2 C  dyz             0.0       0.0       0.0       0.4       0.8       0.0
 2 C  dx2y2           0.0       0.0       0.0       0.1       0.8       0.1
 2 C  dxy             0.0       0.0       0.0       0.1       0.0       0.5
 3 O  s               0.0       0.0       0.0       9.5      36.0       7.5
 3 O  pz              0.0       0.0       0.0       1.0       1.7       0.2
 3 O  px              0.0       0.0       0.0       0.2       0.0       0.2
 3 O  py              0.0       0.0       0.0       1.4       2.9       0.2
 3 O  dyz             0.0       0.0       0.0       0.0       0.1       0.0
 4 O  s               0.0       0.0       0.0      40.4      15.6       0.4
 4 O  pz              0.0       0.0       0.0       0.8       0.1       0.0
 4 O  px              0.0       0.0       0.0       0.5       0.8       1.3
 4 O  py              0.0       0.0       0.0       1.3       0.3       0.4
 5 C  s               0.0       0.0       0.0       5.1       3.1       0.9
 5 C  px              0.0       0.0       0.0       4.4       1.1       0.1
 5 C  py              0.0       0.2       0.0       1.6       0.9       0.0
 5 C  dz2             0.0       0.0       0.0       0.2       0.1       0.0
 5 C  dxy             0.0       0.0       0.0       0.3       0.2       0.0
 6 C  s               0.0      99.4       0.1       0.4       0.2       0.2
 6 C  py              0.0       0.0       0.0       0.7       0.3       0.1
 7 C  s               0.0       0.1       0.2       0.0       0.0       0.0
 7 C  px              0.0       0.1       0.1       0.0       0.0       0.0
 8 C  s               0.0       0.1      99.3       0.0       0.0       0.0
 9 C  py              0.0       0.0       0.1       0.0       0.0       0.0
10 C  s               0.0       0.0       0.0       0.3       0.4       0.2
10 C  px              0.0       0.0       0.0       0.6       0.4       0.1
11 C  s              10.7       0.0       0.0       0.0       0.1       0.0
12 C  s              80.0       0.0       0.0       0.0       0.0       0.0
13 C  s               8.6       0.0       0.0       0.0       0.0       0.0
14 C  s               0.4       0.0       0.0       0.0       0.0       0.0
15 H  s               0.0       0.0       0.0       0.1       0.3       1.0
16 H  s               0.0       0.0       0.0       0.0       0.1       1.1
17 H  s               0.0       0.0       0.0       0.0       0.1       1.1
18 H  s               0.0       0.0       0.0       0.7       0.2       7.6
19 H  s               0.0       0.1       0.0       0.2       0.0       0.1

                     18        19        20        21        22        23   
                  -0.79431  -0.74471  -0.70307  -0.66882  -0.66305  -0.63423
                   2.00000   2.00000   2.00000   2.00000   2.00000   2.00000
                  --------  --------  --------  --------  --------  --------
 0 C  s               0.3       0.3       3.4       0.2      12.2      11.4
 0 C  px              0.1       0.0       0.1       0.0       0.1       0.5
 1 N  s               0.6       0.2       0.3       0.0       0.1       1.1
 1 N  pz              0.0       0.0       0.1       0.0       0.2       0.3
 1 N  px              0.2       0.3       3.6       0.2      10.8       7.1
 1 N  py              0.0       0.0       0.2       0.0       0.4       0.1
 2 C  s               0.1       0.1       1.5       0.0       2.4       0.5
 2 C  pz              0.1       0.1       0.8       0.1       0.8       0.3
 2 C  px              0.6       0.2       1.0       0.0       0.0       1.2
 2 C  py              0.0       0.1       0.8       0.0       1.9       0.8
 2 C  dxy             0.0       0.0       0.0       0.0       0.0       0.1
 3 O  s               0.0       0.0       0.2       0.0       0.2       0.1
 3 O  py              0.0       0.0       0.0       0.0       0.1       0.0
 4 O  s               0.8       0.4       0.3       0.1       0.3       1.6
 4 O  px              0.8       0.9       8.6       0.4       5.6       0.0
 4 O  py              0.0       0.2       0.3       0.1       1.0       0.1
 5 C  s               5.0       4.6       7.9       0.0       1.1       4.5
 5 C  pz              0.0       0.0       0.0       0.0       0.1       0.0
 5 C  px              3.4       0.2       0.4       1.2       2.5       0.9
 5 C  py              0.1       3.0       0.7       5.9       0.2       2.5
 5 C  dx2y2           0.0       0.0       0.0       0.2       0.0       0.0
 5 C  dxy             0.1       0.0       0.0       0.0       0.1       0.1
 6 C  s               4.0      10.4       0.4      10.8       0.3       4.3
 6 C  px              1.0       1.4       0.6       0.4       0.4       0.5
 6 C  py              0.3       0.1       2.4       0.8       0.4       2.3
 6 C  dz2             0.0       0.1       0.0       0.1       0.0       0.0
 7 C  s               4.4      10.1       3.3       8.8       0.4       2.9
 7 C  px              0.1       0.1       2.0       2.1       0.2       5.3
 7 C  py              1.3       1.3       0.1       0.1       0.0       0.1
 7 C  dz2             0.1       0.1       0.0       0.1       0.0       0.0
 7 C  dxy             0.0       0.0       0.1       0.1       0.0       0.2
 8 C  s               6.8       4.6       9.7       0.1       0.3       9.2
 8 C  px              0.5       2.1       0.0       2.1       0.4       0.1
 8 C  py              1.4       0.2       0.2       4.3       0.1       0.6
 8 C  dx2y2           0.0       0.0       0.0       0.2       0.0       0.0
 9 C  s              15.1       0.0       5.6       9.6       0.1       0.0
 9 C  px              0.4       1.7       3.1       0.1       4.1       0.0
 9 C  py              0.2       4.0       2.1       0.1       0.1       3.8
 9 C  dz2             0.2       0.0       0.1       0.1       0.0       0.0
 9 C  dx2y2           0.0       0.0       0.0       0.0       0.0       0.1
 9 C  dxy             0.0       0.0       0.1       0.0       0.1       0.0
10 C  s              14.7       0.0       5.1       6.1       3.4       0.6
10 C  px              0.6       1.6       4.5       0.6       0.1       0.5
10 C  py              0.2       4.2       1.6       0.6       1.8       2.0
10 C  dz2             0.2       0.0       0.1       0.0       0.0       0.0
10 C  dx2y2           0.0       0.0       0.0       0.0       0.1       0.0
10 C  dxy             0.0       0.0       0.1       0.1       0.0       0.0
11 C  s               6.9       5.1       6.5       0.4       8.5       3.2
11 C  px              0.6       2.0       0.1       2.1       0.0       0.3
11 C  py              1.3       0.2       0.4       4.0       0.1       1.0
11 C  dx2y2           0.0       0.0       0.0       0.2       0.0       0.0
12 C  s               4.7      10.5       1.0      11.1       0.8       2.5
12 C  px              0.0       0.1       1.8       0.7       4.8       1.7
12 C  py              1.4       1.4       0.0       0.1       0.0       0.1
12 C  dz2             0.1       0.1       0.0       0.1       0.0       0.0
12 C  dxy             0.0       0.0       0.1       0.0       0.1       0.0
13 C  s               4.8      10.4       1.1       7.2       5.6       1.2
13 C  px              0.9       1.3       0.2       0.7       0.6       0.6
13 C  py              0.5       0.1       1.6       1.9       2.1       1.7
13 C  dz2             0.1       0.1       0.0       0.1       0.0       0.0
14 C  s               7.2       5.1       6.4       0.4       8.8       3.1
14 C  px              1.9       0.1       0.2       1.5       0.2       0.1
14 C  py              0.0       2.2       0.2       4.4       0.6       0.6
14 C  dx2y2           0.0       0.0       0.0       0.1       0.0       0.0
15 H  s               0.1       0.1       0.7       0.0       2.7       2.9
16 H  s               0.1       0.1       0.7       0.0       3.0       3.2
17 H  s               0.1       0.1       0.7       0.0       3.0       3.2
18 H  s               0.1       0.0       0.0       0.0       0.1       0.7
19 H  s               0.4       1.4       0.1       2.3       0.1       0.9
20 H  s               0.5       1.4       0.6       2.0       0.1       0.8
21 H  s               0.9       0.5       2.0       0.0       0.0       2.4
22 H  s               0.9       0.7       1.4       0.0       1.8       0.9
23 H  s               0.6       1.5       0.2       2.5       0.2       0.7
24 H  s               0.6       1.5       0.2       1.6       1.3       0.3
25 H  s               0.9       0.6       1.4       0.1       2.0       0.6

                     24        25        26        27        28        29   
                  -0.57966  -0.55728  -0.55288  -0.53255  -0.50106  -0.46757
                   2.00000   2.00000   2.00000   2.00000   2.00000   2.00000
                  --------  --------  --------  --------  --------  --------
 0 C  s               6.7       0.3       1.0       0.1       0.5       0.0
 0 C  pz              0.3       0.0       0.5       2.0       0.0       0.1
 0 C  px              2.1       0.1       0.5       0.0       1.5       0.3
 0 C  py              0.0       0.0       0.4       3.8       0.5       0.1
 0 C  dxy             0.0       0.0       0.0       0.1       0.0       0.0
 1 N  s               2.7       0.1       0.9       0.4       0.2       0.1
 1 N  pz              0.7       0.1       1.9      11.9       0.8       0.0
 1 N  px              0.5       0.0       0.1       1.0       0.3       0.3
 1 N  py              0.8       0.3       3.3      26.2       1.5       0.5
 1 N  dxy             0.0       0.0       0.0       0.1       0.0       0.0
 2 C  s               1.0       0.2       0.8       1.6       0.2       0.1
 2 C  pz              0.6       0.1       0.0       0.2       0.1       0.8
 2 C  px              4.4       0.2       0.0       9.0       3.2       0.0
 2 C  py              0.1       0.0       0.7       2.0       0.0       0.8
 2 C  dxz             0.1       0.0       0.0       0.0       0.0       0.0
 2 C  dx2y2           0.1       0.0       0.0       0.1       0.0       0.0
 2 C  dxy             0.1       0.0       0.0       0.2       0.0       0.1
 3 O  s               0.5       0.1       0.2       2.1       0.0       0.6
 3 O  pz              0.1       0.0       0.0       0.3       0.0       0.8
 3 O  px              0.4       0.0       0.1       1.8       0.8       0.2
 3 O  py              0.0       0.0       0.3       1.1       0.0       0.0
 4 O  s               0.0       0.2       0.0       0.1       1.1       1.0
 4 O  pz              0.6       0.1       0.2       0.2       1.2       0.0
 4 O  px             18.0       1.6       1.1       1.4       6.8       0.4
 4 O  py              0.0       0.4       1.4       0.1       0.1       6.9
 4 O  dxy             0.1       0.0       0.0       0.0       0.0       0.0
 5 C  s               1.6       0.9       0.0       0.8       0.9       0.1
 5 C  pz              0.2       0.0       0.2       0.2       0.6       0.1
 5 C  px              0.5       0.5       6.3       0.4       3.4       3.9
 5 C  py              6.4       2.5       3.7       0.0       1.9       4.0
 5 C  dxy             0.1       0.0       0.0       0.0       0.4       0.1
 6 C  s               4.8       0.1       3.0       0.2       0.0       0.1
 6 C  px              0.1       0.3       3.3       0.2       0.0       6.0
 6 C  py              0.6       6.1       0.4       0.5       5.2       4.0
 6 C  dxy             0.0       0.1       0.0       0.0       0.1       0.0
 7 C  s               0.0       7.0       1.8       0.3       2.0       0.8
 7 C  pz              0.1       0.0       0.0       0.0       0.1       0.1
 7 C  px              6.5       0.5       0.8       0.0       1.7       6.3
 7 C  py              0.0       2.8       0.2       0.0       2.0       0.0
 7 C  dxy             0.1       0.0       0.0       0.0       0.0       0.0
 8 C  s               5.3       0.4       0.1       0.3       1.7       3.5
 8 C  px              0.2       0.4       3.2       1.0       1.2       1.2
 8 C  py              0.7       4.7       1.9       0.0       0.1       4.5
 9 C  s               0.6       1.7       1.9       0.0       2.4       0.7
 9 C  px              0.1       3.5       6.3       2.5       0.3       0.4
 9 C  py              4.1       2.6       0.6       0.9       4.9       0.2
 9 C  dx2y2           0.0       0.0       0.0       0.0       0.0       0.2
10 C  s               0.4       0.0       4.5       0.9       0.0       0.0
10 C  pz              0.1       0.0       0.0       0.0       0.0       0.0
10 C  px              4.1       0.3       1.1       1.1       7.8       2.1
10 C  py              0.1       9.9       0.5       0.3       0.2       4.2
10 C  dx2y2           0.0       0.0       0.0       0.0       0.2       0.1
10 C  dxy             0.0       0.0       0.0       0.0       0.1       0.0
11 C  s               0.5       4.0       1.8       0.7       3.2       0.4
11 C  px              0.1       3.3       0.8       0.1       4.3       0.7
11 C  py              0.3       1.4       4.9       1.2       1.0       5.1
12 C  s               0.6       6.1       1.4       0.1       0.4       2.0
12 C  px              1.4       3.2       6.2       1.1       1.1       0.0
12 C  py              0.2       1.4       0.5       0.2       0.4      10.5
12 C  dxy             0.0       0.0       0.1       0.0       0.0       0.0
13 C  s               1.9       0.4       6.1       0.4       0.5       0.7
13 C  px              0.1       1.1       1.4       0.0       5.1       0.3
13 C  py              0.9       9.2       0.1       0.2       0.7       0.5
13 C  dx2y2           0.0       0.1       0.0       0.0       0.0       0.0
14 C  s               0.1       5.8       0.6       0.8       1.2       1.4
14 C  pz              0.0       0.0       0.0       0.0       0.2       0.0
14 C  px              0.8       0.9       1.1       0.3       9.1       0.7
14 C  py              0.3       0.1       7.4       1.1       0.0       4.6
15 H  s               2.4       0.1       1.0       1.6       0.0       0.1
16 H  s               2.5       0.1       0.3       0.1       0.7       0.2
17 H  s               2.5       0.1       0.3       0.1       0.7       0.0
18 H  s               2.3       0.3       2.7      13.4       0.6       0.1
19 H  s               1.9       0.2       2.2       0.0       0.2       0.8
20 H  s               0.0       4.4       0.7       0.1       2.3       0.4
21 H  s               2.2       0.0       0.3       0.5       1.8       4.7
22 H  s               0.0       2.2       0.8       0.7       4.3       0.7
23 H  s               0.4       3.4       0.7       0.1       0.0       6.8
24 H  s               1.0       0.3       3.3       0.2       1.5       0.0
25 H  s               0.0       2.5       0.5       0.9       3.7       2.7

                     30        31        32        33        34        35   
                  -0.44906  -0.43861  -0.43555  -0.42576  -0.40153  -0.39563
                   2.00000   2.00000   2.00000   2.00000   2.00000   2.00000
                  --------  --------  --------  --------  --------  --------
 0 C  s               0.0       0.7       0.3       0.1       0.1       0.1
 0 C  pz              0.0       0.8       0.2      10.3       8.7       4.8
 0 C  px              0.2      12.9       9.5       0.5       1.0       9.3
 0 C  py              0.0       0.1       1.3       2.9       3.9       0.1
 0 C  dxz             0.0       0.1       0.1       0.0       0.0       0.1
 0 C  dx2y2           0.0       0.2       0.1       0.1       0.1       0.0
 1 N  s               0.0       0.4       0.3       0.1       0.0       0.0
 1 N  pz              0.0       1.7       6.7       4.9       0.9       2.7
 1 N  px              0.2      11.3       5.0       5.1       4.5       3.1
 1 N  py              0.0       0.2       0.7       4.3       1.2       0.2
 2 C  s               0.1       0.1       0.4       0.2       0.1       1.7
 2 C  pz              0.1       0.2       6.0       8.4       0.1       0.9
 2 C  px              0.2       0.2       3.8       0.2       0.3       0.3
 2 C  py              0.0       0.5       0.8       7.1       0.0       0.6
 2 C  dxz             0.0       0.0       0.0       0.0       0.0       0.3
 2 C  dyz             0.0       0.1       0.1       0.0       0.0       0.0
 2 C  dx2y2           0.0       0.2       0.2       0.1       0.0       0.0
 2 C  dxy             0.0       0.0       0.0       0.0       0.2       0.1
 3 O  s               0.2       0.2       2.3       0.6       0.5       6.1
 3 O  pz              0.0       0.1       0.0       6.0       0.2       5.0
 3 O  px              0.1       0.0       3.1       0.1       0.1       1.3
 3 O  py              0.5       0.1       3.7       0.5       0.6       9.7
 3 O  dyz             0.0       0.0       0.0       0.0       0.0       0.1
 4 O  s               0.1       0.6       1.2       0.3       0.6       2.1
 4 O  pz              0.6       0.0      19.2       1.8       0.0       8.3
 4 O  px              0.1       0.0       0.4       2.1       0.9       3.5
 4 O  py              1.3       0.2       0.5       6.3       5.5       3.9
 5 C  s               1.6       1.9       0.2       0.0       0.0       0.1
 5 C  pz              0.2       0.0       4.8       0.2       0.2       2.2
 5 C  px              0.3       1.1       0.1       0.4       3.8       2.2
 5 C  py              0.9       0.3       0.2       0.1       0.3       0.8
[...]
21 H  s               0.0       0.0       0.1       0.0       0.1       0.3

                    228       229       230       231   
                   3.32159   3.46061   3.59198   3.63118
                   0.00000   0.00000   0.00000   0.00000
                  --------  --------  --------  --------
 0 C  dxz             0.0       0.0       0.1       0.2
 0 C  dx2y2           0.0       0.0       0.0       0.1
 0 C  dxy             0.0       0.0       0.2       0.1
 1 N  s               0.0       0.1       0.4       0.0
 1 N  px              0.1       0.1       0.7       0.1
 1 N  py              0.1       0.1       0.3       0.1
 1 N  dz2             0.0       0.0       0.8       0.4
 1 N  dxz             0.2       0.1       0.6       0.4
 1 N  dyz             0.1       0.0       0.0       0.7
 1 N  dx2y2           0.4       0.0       0.7       3.1
 1 N  dxy             0.4       0.2       2.9       0.0
 2 C  s               0.8       3.6       0.6       2.7
 2 C  pz              0.0       0.8       0.0       1.5
 2 C  px              0.2       0.2       1.0       0.2
 2 C  py              0.0       1.4       0.0       2.2
 2 C  dz2             0.0       0.0       0.0       0.5
 2 C  dxz             0.4       0.2       9.7       0.2
 2 C  dyz             0.0       0.5       0.0       5.8
 2 C  dx2y2           0.4       0.1       3.9       4.6
 2 C  dxy             1.8       0.9      10.7       1.3
 3 O  s               0.4       2.4       0.0       3.0
 3 O  pz              0.0       0.5       0.0       1.0
 3 O  px              0.2       0.3       0.6       0.1
 3 O  py              0.1       0.7       0.1       1.7
 3 O  dz2             0.1       0.1       0.2       0.3
 3 O  dxz             2.2       3.9       7.6       0.7
 3 O  dyz             1.1      15.8       1.1      21.5
 3 O  dx2y2           0.0       4.0       3.8       8.6
 3 O  dxy             2.9       4.9       9.9       1.7
 4 O  s               0.3       0.6       0.5       0.6
 4 O  pz              0.0       0.0       0.1       0.1
 4 O  px              0.6       0.7       2.7       0.9
 4 O  py              0.0       0.2       0.2       0.0
 4 O  dz2             2.0       1.5       0.9       3.4
 4 O  dxz             0.5       0.5       8.0       1.3
 4 O  dyz             0.3       0.0       0.2       0.3
 4 O  dx2y2           0.2       1.9      17.0       4.6
 4 O  dxy             9.2       9.1       6.4      12.5
 5 C  s               0.9       0.0       0.1       0.2
 5 C  px              0.0       0.8       0.1       0.7
 5 C  py              0.7       0.2       0.2       0.2
 5 C  dz2             0.3       0.0       0.0       0.2
 5 C  dxz             0.3       0.1       0.0       0.1
 5 C  dyz             0.0       0.3       0.3       0.2
 5 C  dx2y2           1.2       0.5       3.7       0.0
 5 C  dxy             0.0       9.2       0.1       5.2
 6 C  s               0.0       0.4       0.1       0.0
 6 C  py              0.1       0.0       0.2       0.0
 6 C  dx2y2           0.1       0.8       0.4       0.1
 6 C  dxy             0.1       3.7       0.0       1.3
 7 C  s               0.0       0.3       0.0       0.1
 7 C  dx2y2           0.1       3.1       0.1       0.6
 7 C  dxy             0.4       0.1       0.0       0.0
 8 C  s               0.2       0.4       0.0       0.1
 8 C  py              0.5       0.1       0.0       0.0
 8 C  dz2             0.0       0.1       0.0       0.0
 8 C  dx2y2           1.5       0.9       0.0       0.1
 8 C  dxy             0.1       2.1       0.1       0.3
 9 C  s               0.2       0.0       0.0       0.0
 9 C  py              0.4       0.1       0.0       0.0
 9 C  dxz             0.2       0.1       0.0       0.0
 9 C  dx2y2          11.0       4.3       0.0       0.6
 9 C  dxy             0.2       1.5       0.3       0.1
10 C  s               0.2       0.0       0.0       0.0
10 C  px              0.1       0.1       0.0       0.2
10 C  py              0.0       0.1       0.0       0.0
10 C  dxz             0.0       0.1       0.0       0.0
10 C  dx2y2           2.3       6.6       0.6       1.2
10 C  dxy             8.8       0.5       0.8       0.2
11 C  s               0.7       0.2       0.0       0.0
11 C  py              0.0       0.2       0.0       0.0
11 C  dz2             0.3       0.0       0.0       0.0
11 C  dyz             0.1       0.0       0.0       0.0
11 C  dx2y2           0.9       1.0       0.1       0.1
11 C  dxy             8.7       0.7       0.1       0.1
12 C  s               1.1       0.1       0.0       0.0
12 C  py              0.1       0.0       0.0       0.0
12 C  dz2             0.4       0.0       0.0       0.0
12 C  dxz             0.3       0.0       0.0       0.0
12 C  dx2y2           8.8       1.0       0.0       0.1
12 C  dxy             0.1       0.2       0.0       0.0
13 C  s               0.9       0.1       0.0       0.0
13 C  dz2             0.5       0.1       0.0       0.0
13 C  dx2y2           2.9       0.2       0.0       0.0
13 C  dxy             5.9       1.0       0.0       0.1
14 C  s               0.8       0.2       0.0       0.0
14 C  dz2             0.4       0.0       0.0       0.0
14 C  dyz             0.1       0.0       0.0       0.0
14 C  dx2y2           1.8       0.0       0.0       0.0
14 C  dxy             7.2       1.6       0.0       0.2
19 H  s               0.0       0.2       0.0       0.1
20 H  s               0.0       0.1       0.0       0.0
21 H  s               0.0       0.1       0.0       0.0
22 H  s               0.4       0.1       0.0       0.0
23 H  s               0.4       0.0       0.0       0.0
24 H  s               0.4       0.0       0.0       0.0
25 H  s               0.4       0.1       0.0       0.0


                      *****************************
                      * MAYER POPULATION ANALYSIS *
                      *****************************

  NA   - Mulliken gross atomic population
  ZA   - Total nuclear charge
  QA   - Mulliken gross atomic charge
  VA   - Mayer's total valence
  BVA  - Mayer's bonded valence
  FA   - Mayer's free valence

  ATOM       NA         ZA         QA         VA         BVA        FA
  0 C      6.1791     6.0000    -0.1791     3.9023     3.9023    -0.0000
  1 N      7.2928     7.0000    -0.2928     3.2156     3.2156    -0.0000
  2 C      5.8022     6.0000     0.1978     4.4079     4.4079    -0.0000
  3 O      8.2131     8.0000    -0.2131     2.3132     2.3132     0.0000
  4 O      8.2506     8.0000    -0.2506     2.2459     2.2459     0.0000
  5 C      5.8013     6.0000     0.1987     3.8890     3.8890     0.0000
  6 C      6.1351     6.0000    -0.1351     3.7998     3.7998     0.0000
  7 C      6.0440     6.0000    -0.0440     3.7725     3.7725    -0.0000
  8 C      6.1135     6.0000    -0.1135     3.7300     3.7300    -0.0000
  9 C      5.8641     6.0000     0.1359     3.8646     3.8646    -0.0000
 10 C      5.9048     6.0000     0.0952     3.8287     3.8287     0.0000
 11 C      6.1277     6.0000    -0.1277     3.7746     3.7746     0.0000
 12 C      6.0382     6.0000    -0.0382     3.7841     3.7841     0.0000
 13 C      6.0381     6.0000    -0.0381     3.7923     3.7923     0.0000
 14 C      6.1306     6.0000    -0.1306     3.7853     3.7853    -0.0000
 15 H      0.8594     1.0000     0.1406     0.9953     0.9953    -0.0000
 16 H      0.8841     1.0000     0.1159     0.9526     0.9526    -0.0000
 17 H      0.8844     1.0000     0.1156     0.9527     0.9527    -0.0000
 18 H      0.7674     1.0000     0.2326     0.9240     0.9240    -0.0000
 19 H      0.9415     1.0000     0.0585     0.9797     0.9797     0.0000
 20 H      0.9446     1.0000     0.0554     0.9505     0.9505    -0.0000
 21 H      0.9637     1.0000     0.0363     0.9584     0.9584    -0.0000
 22 H      0.9633     1.0000     0.0367     0.9722     0.9722     0.0000
 23 H      0.9487     1.0000     0.0513     0.9499     0.9499     0.0000
 24 H      0.9477     1.0000     0.0523     0.9494     0.9494    -0.0000
 25 H      0.9601     1.0000     0.0399     0.9578     0.9578    -0.0000

  Mayer bond orders larger than 0.100000
B(  0-C ,  1-N ) :   1.0253 B(  0-C , 15-H ) :   0.9369 B(  0-C , 16-H ) :   0.9580 
B(  0-C , 17-H ) :   0.9580 B(  1-N ,  2-C ) :   1.2188 B(  1-N , 18-H ) :   0.8609 
B(  2-C ,  3-O ) :   2.0381 B(  2-C ,  4-O ) :   1.0547 B(  4-O ,  5-C ) :   1.0453 
B(  5-C ,  6-C ) :   1.4528 B(  5-C , 10-C ) :   1.2431 B(  6-C ,  7-C ) :   1.2250 
B(  6-C , 19-H ) :   0.9535 B(  7-C ,  8-C ) :   1.4403 B(  7-C , 20-H ) :   0.9620 
B(  8-C ,  9-C ) :   1.2347 B(  8-C , 21-H ) :   0.9680 B(  9-C , 10-C ) :   1.2652 
B(  9-C , 14-C ) :   1.2437 B( 10-C , 11-C ) :   1.2642 B( 11-C , 12-C ) :   1.4426 
B( 11-C , 22-H ) :   0.9598 B( 12-C , 13-C ) :   1.2590 B( 12-C , 23-H ) :   0.9631 
B( 13-C , 14-C ) :   1.4600 B( 13-C , 24-H ) :   0.9623 B( 14-C , 25-H ) :   0.9644 


-------
TIMINGS
-------

Total SCF time: 0 days 0 hours 0 min 11 sec 

Total time                  ....      11.328 sec
Sum of individual times     ....      11.287 sec  ( 99.6%)

SCF preparation             ....       0.601 sec  (  5.3%)
Fock matrix formation       ....       8.362 sec  ( 73.8%)
  Startup                   ....       0.009 sec  (  0.1% of F)
  Split-RI-J                ....       4.584 sec  ( 54.8% of F)
  XC integration            ....       3.449 sec  ( 41.2% of F)
    Basis function eval.    ....       1.417 sec  ( 41.1% of XC)
    Density eval.           ....       0.788 sec  ( 22.8% of XC)
    XC-Functional eval.     ....       0.214 sec  (  6.2% of XC)
    XC-Potential eval.      ....       0.809 sec  ( 23.5% of XC)
Diagonalization             ....       0.000 sec  (  0.0%)
Density matrix formation    ....       0.402 sec  (  3.5%)
Total Energy calculation    ....       0.003 sec  (  0.0%)
Population analysis         ....       1.536 sec  ( 13.6%)
Orbital Transformation      ....       0.024 sec  (  0.2%)
Orbital Orthonormalization  ....       0.000 sec  (  0.0%)
DIIS solution               ....       0.125 sec  (  1.1%)
  MO trafo                  ....       0.000 sec  (  0.0 % of DIIS)
  Orb grad                  ....       0.000 sec  (  0.0 % of DIIS)
  Energy W gradient         ....       0.000 sec  (  0.0 % of DIIS)
  DIIS error                ....       0.011 sec  (  8.5 % of DIIS)
  DIIS work                 ....       0.102 sec  ( 81.4 % of DIIS)
  Form Q                    ....       0.000 sec  (  0.0 % of DIIS)
  Form QpQm                 ....       0.000 sec  (  0.0 % of DIIS)
  Exp/Cayley                ....       0.000 sec  (  0.0 % of DIIS)
  Orb update                ....       0.000 sec  (  0.0 % of DIIS)
  Wake-sleep                ....       0.001 sec  (  1.1 % of DIIS)
SOSCF solution              ....       0.234 sec  (  2.1%)
  MO trafo                  ....       0.223 sec  ( 95.3 % of SOSCF)
  Orb grad                  ....       0.000 sec  (  0.1 % of SOSCF)
  Rot update                ....       0.002 sec  (  0.7 % of SOSCF)
  Step                      ....       0.009 sec  (  3.8 % of SOSCF)
Finished LeanSCF after  12.8 sec

Maximum memory used throughout the entire LEANSCF-calculation: 22.4 MB


-------------------------------------------------------------------------------
                          DFT DISPERSION CORRECTION                            
                                                                               
                                DFTD4 V3.4.0                                   
-------------------------------------------------------------------------------
The PBE functional is recognized
Active option DFTDOPT                   ...         5   

-------------------------   ----------------
Dispersion correction           -0.031943434
-------------------------   ----------------

------------------   -----------------
gCP correction             0.108684943
------------------   -----------------

-------------------------   --------------------
FINAL SINGLE POINT ENERGY      -667.736896232865
-------------------------   --------------------


------------------------------------------------------------------------------
                              ORCA PROPERTY CALCULATIONS
------------------------------------------------------------------------------

GBWName                                 ... sp.gbw
Number of atoms                         ...     26
Number of basis functions               ...    232
Max core memory                         ...   1024 MB

Electric properties:
Dipole moment                           ... YES
Quadrupole moment                       ...  NO
Static polarizability (Dipole/Dipole)   ...  NO
Static polarizability (Dipole/Quad.)    ...  NO
Static polarizability (Quad./Quad.)     ...  NO
Static polarizability (Velocity)        ...  NO

Atomic electric properties:
Dipole moment                           ...  NO
Quadrupole moment                       ...  NO
Static polarizability                   ...  NO

Choice of electric origin               ... Center of mass
Position of electric origin             ...     0.000001    -0.000007    -0.000002

General magnetic properties:
Magnetizability                         ...  NO

EPR properties:
g-Tensor (aka g-matrix)                 ...  NO
Zero-Field splitting spin-orbit         ...  NO
Zero-field splitting spin-spin          ...  NO
Hyperfine couplings                     ...  NO (   0 nuclei)
Quadrupole couplings                    ...  NO (   0 nuclei)
Contact density                         ...  NO (   0 nuclei)

NMR properties:
Chemical shifts                         ...  NO (   0 nuclei)
Spin-rotation constants                 ...  NO (   0 nuclei)
Spin-spin couplings                     ...  NO (   0 nuclei,    0 pairs)

Choice of magnetic origin               ... GIAO
Position of magnetic origin             ...     0.000000     0.000000     0.000000

Properties with geometric perturbations:
SCF Hessian                             ...  NO
IR spectrum                             ...  NO
VCD spectrum                            ...  NO
X-ray spectroscopy properties:
SCF XES/XAS/RIXS spectra                ...  NO


-------------
DIPOLE MOMENT
-------------

Method             : SCF
Type of density    : Electron Density
Multiplicity       :   1
Irrep              :   0
Energy             :  -667.8136377415571587 Eh
Relativity type    : 
Basis              : AO
                                X                 Y                 Z
Electronic contribution:      3.414934479       1.833921748      -0.491642537
Nuclear contribution   :     -3.821860775      -2.631256451      -0.050343961
                        -----------------------------------------
Total Dipole Moment    :     -0.406926296      -0.797334704      -0.541986497
                        -----------------------------------------
Magnitude (a.u.)       :      1.046461181
Magnitude (Debye)      :      2.659892937



--------------------
Rotational spectrum 
--------------------
 
Rotational constants in cm-1:             0.042044             0.012531             0.009912 
Rotational constants in MHz :          1260.438263           375.674452           297.155775 

Dipole components along the rotational axes: 
x,y,z [a.u.] :     0.406929    -0.797333    -0.541987 
x,y,z [Debye]:     1.034332    -2.026659    -1.377621 

 

Dipole moment calculation done in   0.5 sec 

Maximum memory used throughout the entire PROP-calculation: 15.1 MB

--------------------------------
SUGGESTED CITATIONS FOR THIS RUN
--------------------------------

Below you find a list of papers that are relevant to this ORCA run
We neither can nor want to force you to cite these papers, but we appreciate if you do
You receive ORCA, which is the product of decades of hard work by many enthusiastic individuals, for free
The only thing we kindly ask in return is that you cite our papers,
We deeply appreciate it, if you show your appreciation for ORCA by not just citing the generic ORCA reference.

Please note that relegating all ORCA citations to the supporting information does *not* help us.
SI sections are not indexed - citations you put there will not count into any citation statistics
But we need these citations in order to attract the funding resources that allow us to do what we are doing

Therefore, if you are a happy ORCA user, please consider citing a few of the papers listed below in the main body of your paper

In addition to the list printed below, the program has created the file sp.bibtex that contains the list in bibtex format
You can import this file easily into all common literature databanks and citation aid programs


List of essential papers. We consider these as the minimum necessary citations

  1. Neese,F.
     Software update: the ORCA program system, version 5.0
     WIRES Comput. Molec. Sci., 2022 12(1)e1606
     doi.org/10.1002/wcms.1606

List of papers to cite with high priority. The work reported in these papers was absolutely
necessary for this run to complete.
Our perspective: the developers of density functionals and basis sets usually get cited in chemistry papers
Good! But without the algorithms to do something with them, the functionals or basis sets would not do anything.
Hence, in our opinion, the algorithm design and method developments papers are equally worthy of getting cited

  1. Neese,F.
     An improvement of the resolution of the identity approximation for the formation of the Coulomb matrix
     J. Comp. Chem., 2003 24(14)1740-1747
     doi.org/10.1002/jcc.10318
  2. Neese,F.
     The SHARK Integral Generation and Digestion System
     J. Comp. Chem., 2022  1-16
     doi.org/10.1002/jcc.26942
  3. Caldeweyher,E.; Bannwarth,C.; Grimme,S.
     Extension of the D3 dispersion coefficient model
     J. Chem. Phys., 2017 147 034112
     doi.org/10.1063/1.4993215
  4. Caldeweyher,E.; Ehlert,S.; Hansen,A.; Neugebauer,H.; Spicher,S.; Bannwarth,C.; Grimme,S.
     A generally applicable atomic-charge dependent London dispersion correction
     J. Chem. Phys., 2019 150 154122
     doi.org/10.1063/1.5090222
  5. Caldeweyher,E.; Mewes,J.; Ehlert,S.; Grimme,S.
     Extension and evaluation of the D4 London-dispersion model for periodic systems
     Phys. Chem. Chem. Phys., 2020 22(16)8499-8512
     doi.org/10.1039/D0CP00502A
  6. Wittmann,L.; Gordiy,I.; Friede,M.; Helmich-Paris,B.; Grimme,S.; Hansen,A.; Bursch,M.
     Extension of the D3 and D4 London Dispersion Corrections to the full Actinides Series
     Phys. Chem. Chem. Phys., 2024 26(32)21379-21394
     doi.org/https://doi.org/10.1039/D4CP01514B 

List of suggested additional citations. These are papers that are important in the 'surrounding' of 
of this run, or papers that preceded the highly important papers. If you like your results we are grateful for a citation.

  1. Neese,F.
     The ORCA program system
     WIRES Comput. Molec. Sci., 2012 2(1)73-78
     doi.org/10.1002/wcms.81
  2. Neese,F.
     Software update: the ORCA program system, version 4.0
     WIRES Comput. Molec. Sci., 2018 8(1)1-6
     doi.org/10.1002/wcms.1327
  3. Neese,F.; Wennmohs,F.; Becker,U.; Riplinger,C.
     The ORCA quantum chemistry program package
     J. Chem. Phys., 2020 152 Art. No. L224108
     doi.org/10.1063/5.0004608

List of optional additional citations

  1. Neese,F.
     Approximate second-order SCF convergence for spin unrestricted wavefunctions
     Chem. Phys. Lett., 2000 325(1-3)93-98
     doi.org/10.1016/s0009-2614(00)00662-x

Timings for individual modules:

Sum of individual times          ...       15.412 sec (=   0.257 min)
Startup calculation              ...        0.838 sec (=   0.014 min)   5.4 %
SCF iterations                   ...       13.969 sec (=   0.233 min)  90.6 %
Property calculations            ...        0.605 sec (=   0.010 min)   3.9 %
                             ****ORCA TERMINATED NORMALLY****
TOTAL RUN TIME: 0 days 0 hours 0 minutes 18 seconds 633 msec
