
                                 *****************
                                 * O   R   C   A *
                                 *****************

                                            #,                                       
                                            ###                                      
                                            ####                                     
                                            #####                                    
                                            ######                                   
                                           ########,                                 
                                     ,,################,,,,,                         
                               ,,#################################,,                 
                          ,,##########################################,,             
                       ,#########################################, ''#####,          
                    ,#############################################,,   '####,        
                  ,##################################################,,,,####,       
                ,###########''''           ''''###############################       
              ,#####''   ,,,,##########,,,,          '''####'''          '####       
            ,##' ,,,,###########################,,,                        '##       
           ' ,,###''''                  '''############,,,                           
         ,,##''                                '''############,,,,        ,,,,,,###''
      ,#''                                            '''#######################'''  
     '                                                          ''''####''''         
             ,#######,   #######,   ,#######,      ##                                
            ,#'     '#,  ##    ##  ,#'     '#,    #''#        ,####,   ,####,        
            ##       ##  ##   ,#'  ##            #'  '#       #'       #'  '#        
            ##       ##  #######   ##           ,######,      #####,   #    #        
            '#,     ,#'  ##    ##  '#,     ,#' ,#      #,     #,   #   #,  ,#        
             '#######'   ##     ##  '#######'  #'      '#     '####' # '####'        



                #########################################################
                #                        -***-                          #
                #          Department of theory and spectroscopy        #
                #                                                       #
                #                      Frank Neese                      #
                #                                                       #
                #     Directorship, Architecture, Infrastructure        #
                #                    SHARK, DRIVERS                     #
                #        Core code/Algorithms in most modules           #
                #                                                       #
                #        Max Planck Institute fuer Kohlenforschung      #
                #                Kaiser Wilhelm Platz 1                 #
                #                 D-45470 Muelheim/Ruhr                 #
                #                      Germany                          #
                #                                                       #
                #                  All rights reserved                  #
                #                        -***-                          #
                #########################################################


                         Program Version 6.0.0  -   RELEASE  -


 With contributions from (in alphabetic order):
   Daniel Aravena         : Magnetic Suceptibility
   Michael Atanasov       : Ab Initio Ligand Field Theory (pilot matlab implementation)
   Alexander A. Auer      : GIAO ZORA, VPT2 properties, NMR spectrum
   Ute Becker             : All parallelization in ORCA, NUMFREQ, NUMCALC
   Giovanni Bistoni       : ED, misc. LED, open-shell LED, HFLD
   Martin Brehm           : Molecular dynamics
   Dmytro Bykov           : pre 5.0 version of the SCF Hessian
   Marcos Casanova-Páez   : Triplet and SCS-CIS(D). UHF-(DLPNO)-IP/EA/STEOM-CCSD. UHF-CVS-IP/STEOM-CCSD
   Vijay G. Chilkuri      : MRCI spin determinant printing, contributions to CSF-ICE
   Pauline Colinet        : FMM embedding
   Dipayan Datta          : RHF DLPNO-CCSD density
   Achintya Kumar Dutta   : EOM-CC, STEOM-CC
   Nicolas Foglia         : Exact transition moments, OPA infrastructure, MCD improvements
   Dmitry Ganyushin       : Spin-Orbit,Spin-Spin,Magnetic field MRCI
   Miquel Garcia          : C-PCM and meta-GGA Hessian, CCSD/C-PCM, Gaussian charge scheme
   Tiago L. C. Gouveia    : GS-ROHF, GS-ROCIS
   Yang Guo               : DLPNO-NEVPT2, F12-NEVPT2, CIM, IAO-localization
   Andreas Hansen         : Spin unrestricted coupled pair/coupled cluster methods
   Ingolf Harden          : AUTO-CI MPn and infrastructure 
   Benjamin Helmich-Paris : MC-RPA, TRAH-(SCF,CASSCF), AVAS, COSX integrals, SCF dyn. polar.
   Lee Huntington         : MR-EOM, pCC
   Robert Izsak           : Overlap fitted RIJCOSX, COSX-SCS-MP3, EOM
   Riya Kayal             : Wick's Theorem for AUTO-CI, AUTO-CI UHF-CCSDT
   Emily Kempfer          : AUTO-CI, RHF CISDT and CCSDT
   Christian Kollmar      : KDIIS, OOCD, Brueckner-CCSD(T), CCSD density, CASPT2, CASPT2-K, improved NEVPT2
   Axel Koslowski         : Symmetry handling
   Simone Kossmann        : Meta GGA functionals, TD-DFT gradient, OOMP2, (MP2 Hessian; deprecated post 5.0)
   Lucas Lang             : DCDCAS
   Marvin Lechner         : AUTO-CI (C++ implementation), FIC-MRCC
   Spencer Leger          : CASSCF response
   Dagmar Lenk            : GEPOL surface, SMD, ORCA-2-JSON
   Dimitrios Liakos       : Extrapolation schemes; Compound Job, initial MDCI parallelization
   Dimitrios Manganas     : Further ROCIS development; embedding schemes. LFT, Crystal Embedding
   Dimitrios Pantazis     : SARC Basis sets
   Anastasios Papadopoulos: AUTO-CI, single reference methods and gradients
   Taras Petrenko         : pre 6.0 DFT Hessian and TD-DFT gradient, (ASA, deprecated), ECA, 1-Electron XAS/XES, NRVS
   Peter Pinski           : DLPNO-MP2, DLPNO-MP2 Gradient
   Christoph Reimann      : Effective Core Potentials
   Marius Retegan         : Local ZFS, SOC
   Christoph Riplinger    : Optimizer, TS searches, QM/MM, DLPNO-CCSD(T), (RO)-DLPNO pert. Triples
   Michael Roemelt        : Original ROCIS implementation
   Masaaki Saitow         : Open-shell DLPNO-CCSD energy and density
   Barbara Sandhoefer     : DKH picture change effects
   Kantharuban Sivalingam : CASSCF convergence/infrastructure, NEVPT2 and variants, FIC-MRCI
   Bernardo de Souza      : ESD, SOC TD-DFT
   Georgi Stoychev        : AutoAux, RI-MP2 NMR, DLPNO-MP2 response, X2C
   Van Anh Tran           : RI-MP2 g-tensors
   Willem Van den Heuvel  : Paramagnetic NMR
   Zikuan Wang            : NOTCH, Electric field optimization 
   Frank Wennmohs         : Technical directorship and infrastructure
   Hang Xu                : AUTO-CI-Response properties 


 We gratefully acknowledge several colleagues who have allowed us to
 interface, adapt or use parts of their codes:
   Stefan Grimme, W. Hujo, H. Kruse, P. Pracht,  : VdW corrections, initial TS optimization,
                  C. Bannwarth, S. Ehlert,         DFT functionals, gCP, sTDA/sTD-DF
                  L. Wittmann, M. Mueller
   Ed Valeev, F. Pavosevic, A. Kumar             : LibInt (2-el integral package), F12 methods
   Garnet Chan, S. Sharma, J. Yang, R. Olivares  : DMRG
   Ulf Ekstrom                                   : XCFun DFT Library
   Mihaly Kallay                                 : mrcc  (arbitrary order and MRCC methods)
   Frank Weinhold                                : gennbo (NPA and NBO analysis)
   Simon Mueller                                 : openCOSMO-RS
   Christopher J. Cramer and Donald G. Truhlar   : smd solvation model
   Lars Goerigk                                  : TD-DFT with DH, B97 family of functionals
   V. Asgeirsson, H. Jonsson                     : NEB implementation
   FAccTs GmbH                                   : IRC, NEB, NEB-TS, DLPNO-Multilevel, CI-OPT
                                                   MM, QMMM, 2- and 3-layer-ONIOM, Crystal-QMMM,
                                                   LR-CPCM, SF, NACMEs, symmetry and pop. for TD-DFT,
                                                   nearIR, NL-DFT gradient (VV10), updates on ESD,
                                                   ML-optimized integration grids, MBIS, APM,
                                                   GOAT, DOCKER, SOLVATOR, interface openCOSMO-RS
   S Lehtola, MJT Oliveira, MAL Marques          : LibXC Library
   Liviu Ungur et al                             : ANISO software


 Your calculation uses the libint2 library for the computation of 2-el integrals
 For citations please refer to: http://libint.valeyev.net

 Your ORCA version has been built with support for libXC version: 6.2.2
 For citations please refer to: https://libxc.gitlab.io

 This ORCA versions uses:
   CBLAS   interface :  Fast vector & matrix operations
   LAPACKE interface :  Fast linear algebra routines
   SCALAPACK package :  Parallel linear algebra routines
   Shared memory     :  Shared parallel matrices
   BLAS/LAPACK       :  OpenBLAS 0.3.27  USE64BITINT DYNAMIC_ARCH NO_AFFINITY SkylakeX SINGLE_THREADED
        Core in use  :  SkylakeX
   Copyright (c) 2011-2014, The OpenBLAS Project




***************************************
The coordinates will be read from file: censo.xyz
***************************************


Your calculation utilizes the geometrical counterpoise correction gCP
Please cite in your paper:
H.Kruse, S. Grimme J.Chem.Phys., 136, (2012), 154101 
   

Your calculation utilizes the atom-pairwise dispersion correction
based on EEQ partial charges (D4)


================================================================================

----- Orbital basis set information -----
Your calculation utilizes the basis: def2-TZVP
   F. Weigend and R. Ahlrichs, Phys. Chem. Chem. Phys. 7, 3297 (2005).

----- AuxJ basis set information -----
Your calculation utilizes the basis: def2-mTZVPP/J
   Stefan Grimme, Andreas Hansen, Sebastian Ehlert, and Jan-Michael Mewes 
   J. Chem. Phys. 154, 000000 (2021). DOI: 10.1063/5.0040021

================================================================================
                                        WARNINGS
                       Please study these warnings very carefully!
================================================================================

Using LibXC functional ID 497 : Re-regularized SCAN exchange by Furness et al
[ 1]  J. W. Furness, A. D. Kaplan, J. Ning, J. P. Perdew, and J. Sun.,  J. Phys. Chem. Lett. 11, 8208-8215 (2020)
[ 2]  J. W. Furness, A. D. Kaplan, J. Ning, J. P. Perdew, and J. Sun.,  J. Phys. Chem. Lett. 11, 9248-9248 (2020)
Using LibXC functional ID 498 : Re-regularized SCAN correlation by Furness et al
[ 1]  J. W. Furness, A. D. Kaplan, J. Ning, J. P. Perdew, and J. Sun.,  J. Phys. Chem. Lett. 11, 8208-8215 (2020)
[ 2]  J. W. Furness, A. D. Kaplan, J. Ning, J. P. Perdew, and J. Sun.,  J. Phys. Chem. Lett. 11, 9248-9248 (2020)
Using LibXC functional ID 497 : Re-regularized SCAN exchange by Furness et al
[ 1]  J. W. Furness, A. D. Kaplan, J. Ning, J. P. Perdew, and J. Sun.,  J. Phys. Chem. Lett. 11, 8208-8215 (2020)
[ 2]  J. W. Furness, A. D. Kaplan, J. Ning, J. P. Perdew, and J. Sun.,  J. Phys. Chem. Lett. 11, 9248-9248 (2020)
Using LibXC functional ID 498 : Re-regularized SCAN correlation by Furness et al
[ 1]  J. W. Furness, A. D. Kaplan, J. Ning, J. P. Perdew, and J. Sun.,  J. Phys. Chem. Lett. 11, 8208-8215 (2020)
[ 2]  J. W. Furness, A. D. Kaplan, J. Ning, J. P. Perdew, and J. Sun.,  J. Phys. Chem. Lett. 11, 9248-9248 (2020)

================================================================================
                                       INPUT FILE
================================================================================
NAME = censo.inp
|  1> ! r2SCAN-3c DEF2-TZVP FREQ
|  2> * xyzfile 0 1 censo.xyz
|  3> 
|  4>                          ****END OF INPUT****
================================================================================

                       ****************************
                       * Single Point Calculation *
                       ****************************

---------------------------------
CARTESIAN COORDINATES (ANGSTROEM)
---------------------------------
  C      0.689659   -1.428252   -0.100260
  C      0.449523    0.010535    0.335683
  C      1.618782    0.910246   -0.017475
  O     -0.709554    0.584217   -0.311275
  C     -1.942207    0.002163    0.109433
  H      0.828579   -1.478788   -1.186067
  H      1.595074   -1.810825    0.381038
  H     -0.137029   -2.086603    0.180222
  H      0.276543    0.038242    1.424025
  H      2.527502    0.557529    0.478426
  H      1.428988    1.939841    0.300265
  H      1.792425    0.902908   -1.099180
  H     -2.063333   -1.025900   -0.256450
  H     -2.744620    0.616458   -0.307715
  H     -2.025957    0.001983    1.206179

----------------------------
CARTESIAN COORDINATES (A.U.)
----------------------------
  NO LB      ZA    FRAG     MASS         X           Y           Z
   0 C     6.0000    0    12.011    1.303267   -2.699005   -0.189465
   1 C     6.0000    0    12.011    0.849475    0.019908    0.634348
   2 C     6.0000    0    12.011    3.059055    1.720115   -0.033023
   3 O     8.0000    0    15.999   -1.340862    1.104010   -0.588225
   4 C     6.0000    0    12.011   -3.670239    0.004087    0.206799
   5 H     1.0000    0     1.008    1.565788   -2.794504   -2.241342
   6 H     1.0000    0     1.008    3.014254   -3.421963    0.720057
   7 H     1.0000    0     1.008   -0.258946   -3.943108    0.340570
   8 H     1.0000    0     1.008    0.522591    0.072267    2.691016
   9 H     1.0000    0     1.008    4.776287    1.053577    0.904095
  10 H     1.0000    0     1.008    2.700396    3.665769    0.567418
  11 H     1.0000    0     1.008    3.387193    1.706250   -2.077150
  12 H     1.0000    0     1.008   -3.899134   -1.938669   -0.484621
  13 H     1.0000    0     1.008   -5.186581    1.164937   -0.581497
  14 H     1.0000    0     1.008   -3.828503    0.003747    2.279349

--------------------------------
INTERNAL COORDINATES (ANGSTROEM)
--------------------------------
 C      0   0   0     0.000000000000     0.00000000     0.00000000
 C      1   0   0     1.522438395040     0.00000000     0.00000000
 C      2   1   0     1.517026154043   111.85478953     0.00000000
 O      2   1   3     1.446071741505   111.91549435   118.98822965
 C      4   2   1     1.426609895135   113.50100801    68.36445100
 H      1   2   3     1.095823272853   110.32267036   299.63104261
 H      1   2   3     1.094434459368   109.56763861    58.83111287
 H      1   2   3     1.093393237115   112.10604432   178.20796369
 H      2   1   3     1.102350996615   109.34228392   238.37732661
 H      3   2   1     1.093663462738   110.09571297   299.85585106
 H      3   2   1     1.094096541753   110.90381142   179.86420695
 H      3   2   1     1.095578161533   110.36729543    59.34736481
 H      5   4   2     1.097931515529   112.27684644   289.63232917
 H      5   4   2     1.093269856073   107.00166882   170.64485828
 H      5   4   2     1.099939262286   111.09404615    51.83999242

---------------------------
INTERNAL COORDINATES (A.U.)
---------------------------
 C      0   0   0     0.000000000000     0.00000000     0.00000000
 C      1   0   0     2.876991622392     0.00000000     0.00000000
 C      2   1   0     2.866763969136   111.85478953     0.00000000
 O      2   1   3     2.732679561448   111.91549435   118.98822965
 C      4   2   1     2.695902001748   113.50100801    68.36445100
 H      1   2   3     2.070805876870   110.32267036   299.63104261
 H      1   2   3     2.068181399731   109.56763861    58.83111287
 H      1   2   3     2.066213774828   112.10604432   178.20796369
 H      2   1   3     2.083141487058   109.34228392   238.37732661
 H      3   2   1     2.066724427252   110.09571297   299.85585106
 H      3   2   1     2.067542827984   110.90381142   179.86420695
 H      3   2   1     2.070342683603   110.36729543    59.34736481
 H      5   4   2     2.074789878150   112.27684644   289.63232917
 H      5   4   2     2.065980618450   107.00166882   170.64485828
 H      5   4   2     2.078583969668   111.09404615    51.83999242

---------------------
BASIS SET INFORMATION
---------------------
There are 3 groups of distinct atoms

 Group   1 Type C   : 11s6p2d1f contracted to 5s3p2d1f pattern {62111/411/11/1}
 Group   2 Type O   : 11s6p2d1f contracted to 5s3p2d1f pattern {62111/411/11/1}
 Group   3 Type H   : 5s1p contracted to 3s1p pattern {311/1}

Atom   0C    basis set group =>   1
Atom   1C    basis set group =>   1
Atom   2C    basis set group =>   1
Atom   3O    basis set group =>   2
Atom   4C    basis set group =>   1
Atom   5H    basis set group =>   3
Atom   6H    basis set group =>   3
Atom   7H    basis set group =>   3
Atom   8H    basis set group =>   3
Atom   9H    basis set group =>   3
Atom  10H    basis set group =>   3
Atom  11H    basis set group =>   3
Atom  12H    basis set group =>   3
Atom  13H    basis set group =>   3
Atom  14H    basis set group =>   3
---------------------------------
AUXILIARY/J BASIS SET INFORMATION
---------------------------------
There are 3 groups of distinct atoms

 Group   1 Type C   : 8s3p3d contracted to 6s3p3d pattern {311111/111/111}
 Group   2 Type O   : 8s3p3d contracted to 6s3p3d pattern {311111/111/111}
 Group   3 Type H   : 5s2p1d contracted to 3s1p1d pattern {311/2/1}

Atom   0C    basis set group =>   1
Atom   1C    basis set group =>   1
Atom   2C    basis set group =>   1
Atom   3O    basis set group =>   2
Atom   4C    basis set group =>   1
Atom   5H    basis set group =>   3
Atom   6H    basis set group =>   3
Atom   7H    basis set group =>   3
Atom   8H    basis set group =>   3
Atom   9H    basis set group =>   3
Atom  10H    basis set group =>   3
Atom  11H    basis set group =>   3
Atom  12H    basis set group =>   3
Atom  13H    basis set group =>   3
Atom  14H    basis set group =>   3
------------------------------------------------------------------------------
                             ORCA STARTUP CALCULATIONS
                           -- RI-GTO INTEGRALS CHOSEN --
------------------------------------------------------------------------------
------------------------------------------------------------------------------
                   ___                                                        
                  /   \      - P O W E R E D   B Y -                         
                 /     \                                                     
                 |  |  |   _    _      __       _____    __    __             
                 |  |  |  | |  | |    /  \     |  _  \  |  |  /  |          
                  \  \/   | |  | |   /    \    | | | |  |  | /  /          
                 / \  \   | |__| |  /  /\  \   | |_| |  |  |/  /          
                |  |  |   |  __  | /  /__\  \  |    /   |      \           
                |  |  |   | |  | | |   __   |  |    \   |  |\   \          
                \     /   | |  | | |  |  |  |  | |\  \  |  | \   \       
                 \___/    |_|  |_| |__|  |__|  |_| \__\ |__|  \__/        
                                                                              
                      - O R C A' S   B I G   F R I E N D -                    
                                      &                                       
                       - I N T E G R A L  F E E D E R -                       
                                                                              
 v1 FN, 2020, v2 2021, v3 2022-2024                                           
------------------------------------------------------------------------------


----------------------
SHARK INTEGRAL PACKAGE
----------------------

Number of atoms                             ...     15
Number of basis functions                   ...    215
Number of shells                            ...     95
Maximum angular momentum                    ...      3
Integral batch strategy                     ... SHARK/LIBINT Hybrid
RI-J (if used) integral strategy            ... SPLIT-RIJ (Revised 2003 algorithm where possible)
Printlevel                                  ...      1
Contraction scheme used                     ... SEGMENTED contraction
Prescreening option                         ... SCHWARTZ
   Thresh                                   ... 1.000e-10
   Tcut                                     ... 1.000e-11
   Tpresel                                  ... 1.000e-11 
Coulomb Range Separation                    ... NOT USED
Exchange Range Separation                   ... NOT USED
Multipole approximations                    ... NOT USED
Finite Nucleus Model                        ... NOT USED
CABS basis                                  ... NOT available
Auxiliary Coulomb fitting basis             ... AVAILABLE
   # of basis functions in Aux-J            ...    260
   # of shells in Aux-J                     ...    110
   Maximum angular momentum in Aux-J        ...      2
Auxiliary J/K fitting basis                 ... NOT available
Auxiliary Correlation fitting basis         ... NOT available
Auxiliary 'external' fitting basis          ... NOT available

Checking pre-screening integrals            ... done (  0.0 sec) Dimension = 95
Check shell pair data                       ... done (  0.0 sec)
Shell pair information
Shell pair cut-off parameter TPreSel        ...   1.0e-11
Total number of shell pairs                 ...      4560
Shell pairs after pre-screening             ...      4359
Total number of primitive shell pairs       ...     13020
Primitive shell pairs kept                  ...      9838
          la=0 lb=0:   1438 shell pairs
          la=1 lb=0:   1308 shell pairs
          la=1 lb=1:    317 shell pairs
          la=2 lb=0:    532 shell pairs
          la=2 lb=1:    248 shell pairs
          la=2 lb=2:     55 shell pairs
          la=3 lb=0:    271 shell pairs
          la=3 lb=1:    125 shell pairs
          la=3 lb=2:     50 shell pairs
          la=3 lb=3:     15 shell pairs

Calculating one electron integrals          ... done (  0.0 sec)
Calculating RI/J V-Matrix + Cholesky decomp.... done (  0.0 sec)
Calculating Nuclear repulsion               ... done (  0.0 sec) ENN=    195.798658449967 Eh

Diagonalization of the overlap matrix:
Smallest eigenvalue                        ... 3.202e-04
Time for diagonalization                   ...    0.006 sec
Threshold for overlap eigenvalues          ... 1.000e-07
Number of eigenvalues below threshold      ... 0
Time for construction of square roots      ...    0.018 sec
Total time needed                          ...    0.033 sec

-------------------
DFT GRID GENERATION
-------------------

General Integration Accuracy     IntAcc      ... 4.388
Radial Grid Type                 RadialGrid  ... OptM3 with GC (2021)
Angular Grid (max. ang.)         AngularGrid ... 4 (Lebedev-302)
Angular grid pruning method      GridPruning ... 4 (adaptive)
Weight generation scheme         WeightScheme... mBecke (2022)
Basis function cutoff            BFCut       ... 1.0000e-10
Integration weight cutoff        WCut        ... 1.0000e-14
Partially contracted basis set               ... off
Rotationally invariant grid construction     ... off
Angular grids for H and He will be reduced by one unit

Total number of grid points                  ...    62414
Total number of batches                      ...      984
Average number of points per batch           ...       63
Average number of grid points per atom       ...     4161
Initializing property integral containers    ... done (  0.0 sec)

SHARK setup successfully completed in   1.0 seconds

Maximum memory used throughout the entire STARTUP-calculation: 31.4 MB
-------------------------------------------------------------------------------
                                 ORCA GUESS
                   Start orbitals & Density for SCF / CASSCF
-------------------------------------------------------------------------------

------------
SCF SETTINGS
------------
Hamiltonian:
 Density Functional     Method          .... DFT(GTOs)
  Functional kind                       .... Exchange
  Functional name                       .... Re-regularized SCAN exchange by Furness et al
  Functional family                     .... MGGA
  Functional refs                              
    [ 0] J. W. Furness, A. D. Kaplan, J. Ning, J. P. Perdew, and J. Sun.,  J. Phys. Chem. Lett. 11, 8208-8215 (2020), doi: 10.1021/acs.jpclett.0c02405
    [ 1] J. W. Furness, A. D. Kaplan, J. Ning, J. P. Perdew, and J. Sun.,  J. Phys. Chem. Lett. 11, 9248-9248 (2020), doi: 10.1021/acs.jpclett.0c03077
  Functional external parameters        .... 6
    Parameter  0 _c1        =  6.670000e-01 : c1 parameter        
    Parameter  1 _c2        =  8.000000e-01 : c2 parameter        
    Parameter  2 _d         =  1.240000e+00 : d parameter         
    Parameter  3 _k1        =  6.500000e-02 : k1 parameter        
    Parameter  4 _eta       =  1.000000e-03 : eta parameter       
    Parameter  5 _dp2       =  3.610000e-01 : dp2 parameter       
  Functional kind                       .... Correlation
  Functional name                       .... Re-regularized SCAN correlation by Furness et al
  Functional family                     .... MGGA
  Functional refs                              
    [ 0] J. W. Furness, A. D. Kaplan, J. Ning, J. P. Perdew, and J. Sun.,  J. Phys. Chem. Lett. 11, 8208-8215 (2020), doi: 10.1021/acs.jpclett.0c02405
    [ 1] J. W. Furness, A. D. Kaplan, J. Ning, J. P. Perdew, and J. Sun.,  J. Phys. Chem. Lett. 11, 9248-9248 (2020), doi: 10.1021/acs.jpclett.0c03077
  Functional external parameters        .... 1
    Parameter  0 _eta       =  1.000000e-03 : Regularization parameter
 Gradients option       PostSCFGGA      .... off
 RI-approximation to the Coulomb term is turned on
   Number of AuxJ basis functions       .... 260


General Settings:
 Integral files         IntName         .... censo
 Hartree-Fock type      HFTyp           .... RHF
 Total Charge           Charge          ....    0
 Multiplicity           Mult            ....    1
 Number of Electrons    NEL             ....   42
 Basis Dimension        Dim             ....  215
 Nuclear Repulsion      ENuc            ....    195.7986584500 Eh

Convergence Acceleration:
 AO-DIIS                CNVDIIS         .... on
   Start iteration      DIISMaxIt       ....    12
   Startup error        DIISStart       ....  0.200000
   # of expansion vecs  DIISMaxEq       ....     5
   Bias factor          DIISBfac        ....   1.050
   Max. coefficient     DIISMaxC        ....  10.000
 MO-DIIS                CNVKDIIS        .... off
 Trust-Rad. Augm. Hess. CNVTRAH         .... auto
   Auto Start mean grad. ratio tolernc. ....  1.125000
   Auto Start start iteration           ....    50
   Auto Start num. interpolation iter.  ....    10
   Max. Number of Micro iterations      ....    24
   Max. Number of Macro iterations      .... Maxiter - #DIIS iter
   Number of Davidson start vectors     ....     2
   Converg. threshold    (grad. norm)   ....   5.000e-05
   Grad. Scal. Fac. for Micro threshold ....   0.100
   Minimum threshold for Micro iter.    ....   1.000e-02
   NR start threshold (gradient norm)   ....   1.000e-04
   Initial trust radius                 ....   0.400
   Minimum AH scaling param. (alpha)    ....   1.000
   Maximum AH scaling param. (alpha)    .... 1000.000
   Quad. conv. algorithm                .... NR
   White noise on init. David. guess    .... on
   Maximum white noise                  ....   0.010
   Pseudo random numbers                .... off
   Inactive MOs                         .... canonical
   Orbital update algorithm             .... Taylor
   Preconditioner                       .... Diag
   Full preconditioner red. dimension   ....   250
   COSX micro iterations for RIJONX calc.... off
 SOSCF                  CNVSOSCF        .... on
   Start iteration      SOSCFMaxIt      ....   150
   Startup grad/error   SOSCFStart      ....  0.003300
   Hessian update       SOSCFHessUp     .... L-BFGS
 Level Shifting         CNVShift        .... on
   Level shift para.    LevelShift      ....    0.2500
   Turn off err/grad.   ShiftErr        ....    0.0010
 Zerner damping         CNVZerner       .... off
 Static damping         CNVDamp         .... on
   Fraction old density DampFac         ....    0.7000
   Max. Damping (<1)    DampMax         ....    0.9800
   Min. Damping (>=0)   DampMin         ....    0.0000
   Turn off err/grad.   DampErr         ....    0.1000

SCF Procedure:
 Maximum # iterations   MaxIter         ....   125
 SCF integral mode      SCFMode         .... Direct
   Integral package                     .... SHARK and LIBINT hybrid scheme
 Reset frequency        DirectResetFreq ....    20
 Integral Threshold     Thresh          ....  1.000e-10 Eh
 Primitive CutOff       TCut            ....  1.000e-11 Eh

Convergence Tolerance:
 Convergence Check Mode ConvCheckMode   .... Total+1el-Energy
 Convergence forced     ConvForced      .... 0
 Energy Change          TolE            ....  1.000e-06 Eh
 1-El. energy change                    ....  1.000e-03 Eh
 Orbital Gradient       TolG            ....  5.000e-05
 Orbital Rotation angle TolX            ....  5.000e-05
 DIIS Error             TolErr          ....  1.000e-06

------------------------------
INITIAL GUESS: MODEL POTENTIAL
------------------------------
Loading Hartree-Fock densities                     ... done
Calculating cut-offs                               ... done
Initializing the effective Hamiltonian             ... done
Setting up the integral package (SHARK)            ... done
Starting the Coulomb interaction                   ... done (   0.2 sec)
Making the grid                                    ... done (   0.2 sec)
Mapping shells                                     ... done
Starting the XC term evaluation                    ... done (   0.2 sec)
  promolecular density results
     # of electrons  =     41.997967718
     EX              =    -31.539048796
     EC              =     -1.361924666
     EX+EC           =    -32.900973461
Transforming the Hamiltonian                       ... done (   0.0 sec)
Diagonalizing the Hamiltonian                      ... done (   0.0 sec)
Back transforming the eigenvectors                 ... done (   0.0 sec)
Now organizing SCF variables                       ... done
                      ------------------
                      INITIAL GUESS DONE (   0.6 sec)
                      ------------------
             **** ENERGY FILE WAS UPDATED (censo.en.tmp) ****
Finished Guess after   0.9 sec
Maximum memory used throughout the entire GUESS-calculation: 18.3 MB

-------------------------------------------------------------------------------------------
                                      ORCA LEAN-SCF
                              memory conserving SCF solver
-------------------------------------------------------------------------------------------

----------------------------------------D-I-I-S--------------------------------------------
Iteration    Energy (Eh)           Delta-E    RMSDP     MaxDP     DIISErr   Damp  Time(sec)
-------------------------------------------------------------------------------------------
               ***  Starting incremental Fock matrix formation  ***
    1    -233.4387869255550356     0.00e+00  1.59e-03  3.44e-02  1.81e-01  0.700   2.6
    2    -233.5209872204403894    -8.22e-02  1.20e-03  2.23e-02  9.25e-02  0.700   2.4
                               ***Turning on AO-DIIS***
    3    -233.5521373420062616    -3.12e-02  4.91e-04  8.90e-03  3.25e-02  0.700   2.3
    4    -233.5702671103690307    -1.81e-02  7.74e-04  2.02e-02  1.39e-02  0.000   2.3
    5    -233.6103873318259900    -4.01e-02  2.20e-04  5.63e-03  7.34e-03  0.000   2.3
                              *** Initializing SOSCF ***
---------------------------------------S-O-S-C-F--------------------------------------
Iteration    Energy (Eh)           Delta-E    RMSDP     MaxDP     MaxGrad    Time(sec)
--------------------------------------------------------------------------------------
    6    -233.6107464407005807    -3.59e-04  8.56e-05  1.89e-03  2.21e-03     2.3
               *** Restarting incremental Fock matrix formation ***
    7    -233.6107749599493957    -2.85e-05  7.78e-05  1.70e-03  2.44e-04     2.6
    8    -233.6107705515087503     4.41e-06  2.46e-05  7.12e-04  4.94e-04     2.1
    9    -233.6107787919006853    -8.24e-06  6.36e-06  1.25e-04  4.30e-05     2.1
   10    -233.6107786858982251     1.06e-07  3.31e-06  7.61e-05  6.24e-05     2.2
                 **** Energy Check signals convergence ****

               *****************************************************
               *                     SUCCESS                       *
               *           SCF CONVERGED AFTER  10 CYCLES          *
               *****************************************************

             **** ENERGY FILE WAS UPDATED (censo.en.tmp) ****

----------------
TOTAL SCF ENERGY
----------------

Total Energy       :       -233.61077868589823 Eh           -6356.87247 eV

Components:
Nuclear Repulsion  :        195.79865844996735 Eh            5327.95236 eV
Electronic Energy  :       -429.40943713586557 Eh          -11684.82483 eV
One Electron Energy:       -703.43766545854817 Eh          -19141.51201 eV
Two Electron Energy:        274.02822832268259 Eh            7456.68718 eV

Virial components:
Potential Energy   :       -466.02222541134506 Eh          -12681.10945 eV
Kinetic Energy     :        232.41144672544687 Eh            6324.23698 eV
Virial Ratio       :          2.00516038249126

DFT components:
N(Alpha)           :       20.999971754439 electrons
N(Beta)            :       20.999971754439 electrons
N(Total)           :       41.999943508878 electrons
E(X)               :      -32.613947291179 Eh       
E(C)               :       -1.305363147624 Eh       
E(XC)              :      -33.919310438803 Eh       

---------------
SCF CONVERGENCE
---------------

  Last Energy change         ...   -1.0600e-07  Tolerance :   1.0000e-06
  Last MAX-Density change    ...    7.6054e-05  Tolerance :   1.0000e-05
  Last RMS-Density change    ...    3.3107e-06  Tolerance :   1.0000e-06
  Last DIIS Error            ...    2.2060e-03  Tolerance :   1.0000e-06
  Last Orbital Gradient      ...    6.2395e-05  Tolerance :   5.0000e-05
  Last Orbital Rotation      ...    3.7338e-05  Tolerance :   5.0000e-05


----------------
ORBITAL ENERGIES
----------------

  NO   OCC          E(Eh)            E(eV) 
   0   2.0000     -18.948331      -515.6103 
   1   2.0000     -10.081713      -274.3374 
   2   2.0000     -10.068929      -273.9895 
   3   2.0000     -10.021731      -272.7052 
   4   2.0000     -10.018874      -272.6274 
   5   2.0000      -0.982338       -26.7308 
   6   2.0000      -0.746829       -20.3222 
   7   2.0000      -0.660124       -17.9629 
   8   2.0000      -0.636945       -17.3322 
   9   2.0000      -0.542811       -14.7707 
  10   2.0000      -0.459334       -12.4991 
  11   2.0000      -0.431115       -11.7312 
  12   2.0000      -0.418929       -11.3996 
  13   2.0000      -0.393005       -10.6942 
  14   2.0000      -0.364451        -9.9172 
  15   2.0000      -0.358312        -9.7502 
  16   2.0000      -0.345235        -9.3943 
  17   2.0000      -0.321363        -8.7447 
  18   2.0000      -0.315011        -8.5719 
  19   2.0000      -0.278617        -7.5815 
  20   2.0000      -0.221129        -6.0172 
  21   0.0000       0.042805         1.1648 
  22   0.0000       0.072550         1.9742 
  23   0.0000       0.077303         2.1035 
  24   0.0000       0.094904         2.5825 
  25   0.0000       0.110268         3.0005 
  26   0.0000       0.113959         3.1010 
  27   0.0000       0.119553         3.2532 
  28   0.0000       0.128841         3.5059 
  29   0.0000       0.138780         3.7764 
  30   0.0000       0.147312         4.0086 
  31   0.0000       0.157800         4.2939 
*Only the first 10 virtual orbitals were printed.

                    ********************************
                    * MULLIKEN POPULATION ANALYSIS *
                    ********************************

-----------------------
MULLIKEN ATOMIC CHARGES
-----------------------
   0 C :   -0.326053
   1 C :    0.121770
   2 C :   -0.283478
   3 O :   -0.319113
   4 C :   -0.155297
   5 H :    0.107838
   6 H :    0.101872
   7 H :    0.107833
   8 H :    0.039171
   9 H :    0.095865
  10 H :    0.110405
  11 H :    0.103698
  12 H :    0.093069
  13 H :    0.115464
  14 H :    0.086956
Sum of atomic charges:   -0.0000000

--------------------------------
MULLIKEN REDUCED ORBITAL CHARGES
--------------------------------
  0 C s       :     3.262505  s :     3.262505
      pz      :     1.040869  p :     3.017269
      px      :     1.038883
      py      :     0.937516
      dz2     :     0.011022  d :     0.042550
      dxz     :     0.003150
      dyz     :     0.009267
      dx2y2   :     0.005178
      dxy     :     0.013933
      f0      :     0.001118  f :     0.003730
      f+1     :     0.000118
      f-1     :     0.000438
      f+2     :     0.000200
      f-2     :     0.000071
      f+3     :     0.000769
      f-3     :     0.001016

  1 C s       :     3.195510  s :     3.195510
      pz      :     0.886255  p :     2.499952
      px      :     0.743326
      py      :     0.870370
      dz2     :     0.040069  d :     0.169651
      dxz     :     0.026262
      dyz     :     0.020160
      dx2y2   :     0.040405
      dxy     :     0.042754
      f0      :     0.001535  f :     0.013117
      f+1     :     0.001977
      f-1     :     0.001029
      f+2     :     0.001525
      f-2     :     0.001628
      f+3     :     0.003008
      f-3     :     0.002415

  2 C s       :     3.241003  s :     3.241003
      pz      :     1.037926  p :     2.996363
      px      :     0.951673
      py      :     1.006764
      dz2     :     0.009402  d :     0.042230
      dxz     :     0.010029
      dyz     :     0.003941
      dx2y2   :     0.014089
      dxy     :     0.004768
      f0      :     0.001123  f :     0.003882
      f+1     :     0.000413
      f-1     :     0.000121
      f+2     :     0.000022
      f-2     :     0.000303
      f+3     :     0.000849
      f-3     :     0.001050

  3 O s       :     3.804203  s :     3.804203
      pz      :     1.665221  p :     4.472968
      px      :     1.162297
      py      :     1.645450
      dz2     :     0.005194  d :     0.039952
      dxz     :     0.010785
      dyz     :     0.004305
      dx2y2   :     0.007144
      dxy     :     0.012523
      f0      :     0.000231  f :     0.001989
      f+1     :     0.000331
      f-1     :     0.000094
      f+2     :     0.000234
      f-2     :     0.000346
      f+3     :     0.000359
      f-3     :     0.000394

  4 C s       :     3.245948  s :     3.245948
      pz      :     1.013447  p :     2.812304
      px      :     0.797050
      py      :     1.001808
      dz2     :     0.018342  d :     0.089405
      dxz     :     0.022419
      dyz     :     0.004234
      dx2y2   :     0.020709
      dxy     :     0.023701
      f0      :     0.001606  f :     0.007639
      f+1     :     0.000937
      f-1     :     0.000212
      f+2     :     0.000780
      f-2     :     0.000692
      f+3     :     0.001652
      f-3     :     0.001760

  5 H s       :     0.869314  s :     0.869314
      pz      :     0.012517  p :     0.022848
      px      :     0.005247
      py      :     0.005085

  6 H s       :     0.874862  s :     0.874862
      pz      :     0.006449  p :     0.023266
      px      :     0.010231
      py      :     0.006587

  7 H s       :     0.868609  s :     0.868609
      pz      :     0.005637  p :     0.023558
      px      :     0.009575
      py      :     0.008346

  8 H s       :     0.938371  s :     0.938371
      pz      :     0.013498  p :     0.022457
      px      :     0.004175
      py      :     0.004784

  9 H s       :     0.881154  s :     0.881154
      pz      :     0.006573  p :     0.022981
      px      :     0.010629
      py      :     0.005779

 10 H s       :     0.866622  s :     0.866622
      pz      :     0.005675  p :     0.022974
      px      :     0.005216
      py      :     0.012082

 11 H s       :     0.873468  s :     0.873468
      pz      :     0.012412  p :     0.022833
      px      :     0.005291
      py      :     0.005131

 12 H s       :     0.884918  s :     0.884918
      pz      :     0.005716  p :     0.022014
      px      :     0.004162
      py      :     0.012136

 13 H s       :     0.862393  s :     0.862393
      pz      :     0.006130  p :     0.022144
      px      :     0.008834
      py      :     0.007180

 14 H s       :     0.891425  s :     0.891425
      pz      :     0.012875  p :     0.021620
      px      :     0.003974
      py      :     0.004771



                     *******************************
                     * LOEWDIN POPULATION ANALYSIS *
                     *******************************

----------------------
LOEWDIN ATOMIC CHARGES
----------------------
   0 C :   -0.291399
   1 C :   -0.374921
   2 C :   -0.283537
   3 O :    0.130225
   4 C :   -0.347645
   5 H :    0.124239
   6 H :    0.124709
   7 H :    0.118030
   8 H :    0.127796
   9 H :    0.122791
  10 H :    0.122912
  11 H :    0.123821
  12 H :    0.095876
  13 H :    0.109647
  14 H :    0.097455

-------------------------------
LOEWDIN REDUCED ORBITAL CHARGES
-------------------------------
  0 C s       :     2.841089  s :     2.841089
      pz      :     1.070106  p :     3.172755
      px      :     1.061852
      py      :     1.040797
      dz2     :     0.064785  d :     0.253120
      dxz     :     0.021041
      dyz     :     0.045124
      dx2y2   :     0.044446
      dxy     :     0.077724
      f0      :     0.003939  f :     0.024435
      f+1     :     0.000606
      f-1     :     0.003252
      f+2     :     0.004451
      f-2     :     0.003584
      f+3     :     0.003715
      f-3     :     0.004888

  1 C s       :     2.769744  s :     2.769744
      pz      :     0.965847  p :     2.856846
      px      :     0.881623
      py      :     1.009375
      dz2     :     0.158170  d :     0.664713
      dxz     :     0.106742
      dyz     :     0.082550
      dx2y2   :     0.145618
      dxy     :     0.171634
      f0      :     0.007377  f :     0.083619
      f+1     :     0.011211
      f-1     :     0.006150
      f+2     :     0.013122
      f-2     :     0.015417
      f+3     :     0.016670
      f-3     :     0.013672

  2 C s       :     2.840406  s :     2.840406
      pz      :     1.069021  p :     3.165640
      px      :     1.044336
      py      :     1.052284
      dz2     :     0.060935  d :     0.252754
      dxz     :     0.048701
      dyz     :     0.022492
      dx2y2   :     0.074820
      dxy     :     0.045806
      f0      :     0.004173  f :     0.024736
      f+1     :     0.001949
      f-1     :     0.001658
      f+2     :     0.003315
      f-2     :     0.004624
      f+3     :     0.004528
      f-3     :     0.004488

  3 O s       :     3.307372  s :     3.307372
      pz      :     1.622777  p :     4.452863
      px      :     1.231456
      py      :     1.598630
      dz2     :     0.014429  d :     0.103438
      dxz     :     0.027137
      dyz     :     0.006795
      dx2y2   :     0.025839
      dxy     :     0.029238
      f0      :     0.000425  f :     0.006102
      f+1     :     0.001092
      f-1     :     0.000298
      f+2     :     0.000744
      f-2     :     0.001304
      f+3     :     0.001288
      f-3     :     0.000950

  4 C s       :     2.871240  s :     2.871240
      pz      :     1.075179  p :     3.025096
      px      :     0.886560
      py      :     1.063357
      dz2     :     0.089963  d :     0.397048
      dxz     :     0.083431
      dyz     :     0.026710
      dx2y2   :     0.091376
      dxy     :     0.105568
      f0      :     0.007044  f :     0.054260
      f+1     :     0.006390
      f-1     :     0.001863
      f+2     :     0.008715
      f-2     :     0.009432
      f+3     :     0.009665
      f-3     :     0.011152

  5 H s       :     0.812931  s :     0.812931
      pz      :     0.035565  p :     0.062830
      px      :     0.014110
      py      :     0.013155

  6 H s       :     0.812321  s :     0.812321
      pz      :     0.018122  p :     0.062970
      px      :     0.028673
      py      :     0.016175

  7 H s       :     0.818378  s :     0.818378
      pz      :     0.015484  p :     0.063592
      px      :     0.026983
      py      :     0.021125

  8 H s       :     0.814760  s :     0.814760
      pz      :     0.034642  p :     0.057445
      px      :     0.010436
      py      :     0.012366

  9 H s       :     0.814563  s :     0.814563
      pz      :     0.018563  p :     0.062646
      px      :     0.027932
      py      :     0.016150

 10 H s       :     0.814297  s :     0.814297
      pz      :     0.015616  p :     0.062791
      px      :     0.014040
      py      :     0.033134

 11 H s       :     0.813447  s :     0.813447
      pz      :     0.035413  p :     0.062733
      px      :     0.013856
      py      :     0.013464

 12 H s       :     0.841276  s :     0.841276
      pz      :     0.016140  p :     0.062848
      px      :     0.010859
      py      :     0.035849

 13 H s       :     0.828869  s :     0.828869
      pz      :     0.017008  p :     0.061484
      px      :     0.023480
      py      :     0.020996

 14 H s       :     0.840391  s :     0.840391
      pz      :     0.038674  p :     0.062154
      px      :     0.010308
      py      :     0.013172



                      *****************************
                      * MAYER POPULATION ANALYSIS *
                      *****************************

  NA   - Mulliken gross atomic population
  ZA   - Total nuclear charge
  QA   - Mulliken gross atomic charge
  VA   - Mayer's total valence
  BVA  - Mayer's bonded valence
  FA   - Mayer's free valence

  ATOM       NA         ZA         QA         VA         BVA        FA
  0 C      6.3261     6.0000    -0.3261     3.8407     3.8407    -0.0000
  1 C      5.8782     6.0000     0.1218     3.9123     3.9123    -0.0000
  2 C      6.2835     6.0000    -0.2835     3.8553     3.8553     0.0000
  3 O      8.3191     8.0000    -0.3191     1.9540     1.9540     0.0000
  4 C      6.1553     6.0000    -0.1553     3.9385     3.9385     0.0000
  5 H      0.8922     1.0000     0.1078     0.9929     0.9929    -0.0000
  6 H      0.8981     1.0000     0.1019     0.9865     0.9865    -0.0000
  7 H      0.8922     1.0000     0.1078     0.9784     0.9784    -0.0000
  8 H      0.9608     1.0000     0.0392     0.9756     0.9756    -0.0000
  9 H      0.9041     1.0000     0.0959     0.9830     0.9830     0.0000
 10 H      0.8896     1.0000     0.1104     0.9911     0.9911     0.0000
 11 H      0.8963     1.0000     0.1037     0.9945     0.9945    -0.0000
 12 H      0.9069     1.0000     0.0931     0.9601     0.9601     0.0000
 13 H      0.8845     1.0000     0.1155     0.9772     0.9772    -0.0000
 14 H      0.9130     1.0000     0.0870     0.9728     0.9728     0.0000

  Mayer bond orders larger than 0.100000
B(  0-C ,  1-C ) :   0.9553 B(  0-C ,  5-H ) :   0.9683 B(  0-C ,  6-H ) :   0.9675 
B(  0-C ,  7-H ) :   0.9704 B(  1-C ,  2-C ) :   0.9720 B(  1-C ,  3-O ) :   0.9788 
B(  1-C ,  8-H ) :   0.9662 B(  2-C ,  9-H ) :   0.9690 B(  2-C , 10-H ) :   0.9719 
B(  2-C , 11-H ) :   0.9724 B(  3-O ,  4-C ) :   0.9820 B(  4-C , 12-H ) :   0.9678 
B(  4-C , 13-H ) :   0.9767 B(  4-C , 14-H ) :   0.9667 

-------
TIMINGS
-------

Total SCF time: 0 days 0 hours 0 min 23 sec 

Total time                  ....      23.553 sec
Sum of individual times     ....      23.083 sec  ( 98.0%)

SCF preparation             ....       0.187 sec  (  0.8%)
Fock matrix formation       ....      22.000 sec  ( 93.4%)
  Startup                   ....       0.064 sec  (  0.3% of F)
  Split-RI-J                ....       2.225 sec  ( 10.1% of F)
  XC integration            ....      18.912 sec  ( 86.0% of F)
    XC Preparation          ....       0.000 sec  (  0.0% of XC)
    Basis function eval.    ....       3.302 sec  ( 17.5% of XC)
    Density eval.           ....       5.741 sec  ( 30.4% of XC)
    XC-Functional eval.     ....       1.891 sec  ( 10.0% of XC)
    XC-Potential eval.      ....       6.896 sec  ( 36.5% of XC)
Diagonalization             ....       0.000 sec  (  0.0%)
Density matrix formation    ....       0.232 sec  (  1.0%)
Total Energy calculation    ....       0.038 sec  (  0.2%)
Population analysis         ....       0.037 sec  (  0.2%)
Orbital Transformation      ....       0.063 sec  (  0.3%)
Orbital Orthonormalization  ....       0.000 sec  (  0.0%)
DIIS solution               ....       0.343 sec  (  1.5%)
SOSCF solution              ....       0.183 sec  (  0.8%)
Finished LeanSCF after  23.7 sec

Maximum memory used throughout the entire LEANSCF-calculation: 21.9 MB

------------------------------------------------------------------------------
                         ORCA PROPERTY INTEGRAL CALCULATIONS
------------------------------------------------------------------------------

GBWName                                   ... censo.gbw
Number of atoms                           ...     15
Number of basis functions                 ...    215
Max core memory                           ...   1024 MB

Dipole integrals                          ... YES
Quadrupole integrals                      ...  NO
Linear momentum integrals                 ...  NO
Angular momentum integrals                ...  NO
Higher moments length integrals           ...  NO
Higher moments velocity integrals         ...  NO
Kinetic energy integrals                  ...  NO
GIAO right hand sides                     ...  NO
GIAO dipole derivative integrals          ...  NO
SOC integrals                             ...  NO
EPR diamagnetic integrals (GIAO)          ...  NO
EPR gauge integrals                       ...  NO
Field gradient integrals                  ...  NO (   0 nuclei)
Spin-dipole/Fermi contact integrals       ...  NO (   0 nuclei)
Contact density integrals                 ...  NO (   0 nuclei)
Nucleus-orbit integrals                   ...  NO (   0 nuclei)
Geometric perturbations                   ... YES (  15 nuclei)

Choice of electric origin   ... Center of mass
Position of electric origin ... ( -0.0016,  0.0233,  0.0021) 
Choice of magnetic origin   ... GIAO
Position of magnetic origin ... (  0.0000,  0.0000,  0.0000) 

Calculating integrals                     ... Electric Dipole (Length)     done (  0.0 sec)
Calculating integrals                     ... Geometrical perturbation right hand sides

-----------------------
GEOMETRIC PERTURBATIONS (15 nuclei)
-----------------------

MaxCore                            ...   1024 MB
Number of batches                  ...      1

BATCH   0: Atoms    0 -   14 ( 45 perturbations)
   => H(core) and overlap derivative integrals     ... done (     0.3 sec)
   => Making and storing internal U-coefficients   ... done (     0.4 sec)
   => RI-J derivative integrals                    ... done (     2.6 sec)
   => RI-J response operators                      ... done (     0.7 sec)
   => XC derivative integrals                      ... done (   326.5 sec)
   => XC response operators                        ... done (    52.0 sec)
   => Completing and storing right hand sides      ... done (     0.3 sec)
   => Total time for right hand sides = 385.1 sec

  geometrical perturbations done (385.1 sec)

Property integrals calculated in 385.2 sec

Maximum memory used throughout the entire PROPINT-calculation: 100.6 MB


-------------------------------------------------------------------------------
                          DFT DISPERSION CORRECTION                            
                                                                               
                                DFTD4 V3.4.0                                   
-------------------------------------------------------------------------------
The R2SCAN3C composite method is recognized
Using three-body term ABC
Active option DFTDOPT                   ...         5   

-------------------------   ----------------
Dispersion correction           -0.003127259
-------------------------   ----------------

------------------   -----------------
gCP correction             0.009791408
------------------   -----------------

-------------------------   --------------------
FINAL SINGLE POINT ENERGY      -233.604114537258
-------------------------   --------------------

------------------------------------------------------------------------------
                            ORCA SCF RESPONSE CALCULATION
------------------------------------------------------------------------------

GBWName                                 ... censo.gbw
Number of atoms                         ...     15
Number of basis functions               ...    215
Max core memory                         ...   1024 MB

Electric field perturbation             ...  NO
Quadrupolar field perturbation          ...  NO
Magnetic field perturbation (no GIAO)   ...  NO
Magnetic field perturbation (with GIAO) ...  NO
Linear momentum (velocity) perturbation ...  NO
Spin-orbit coupling perturbation        ...  NO
Choice of electric origin               ... Center of mass
Position of electric origin             ...    -0.001634     0.023295     0.002085
Choice of magnetic origin               ... GIAO
Position of magnetic origin             ...     0.000000     0.000000     0.000000
Nuclear geometric perturbations         ... YES (  45 perturbations)
Nucleus-orbit perturbations             ...  NO (   0 perturbations)
Spin-dipole/Fermi contact perturbations ...  NO (   0 perturbations)

Total number of real perturbations      ...     45
Total number of imaginary perturbations ...      0
Total number of triplet perturbations   ...      0
Total number of SOC perturbations       ...      0


                                **********************
                                * REAL PERTURBATIONS *
                                **********************



-------------------
SHARK CP-SCF DRIVER
-------------------

Dimension of the orbital basis          ...    215
Dimension of the CPSCF-problem          ...   4074
Number of operators                     ...      1
Max. number of iterations               ...    128
Convergence Tolerance                   ... 1.0e-03
Number of perturbations                 ...     45
Perturbation type                       ... REAL

----------------------------
POPLE LINEAR EQUATION SOLVER
----------------------------

  ITERATION   0:   ||err||_max =   2.4279e-01 (  15.8 sec   0/ 45 done)
  ITERATION   1:   ||err||_max =   2.7507e-02 (  16.2 sec   0/ 45 done)
  ITERATION   2:   ||err||_max =   8.1471e-03 (  16.3 sec   2/ 45 done)
  ITERATION   3:   ||err||_max =   1.8983e-03 (  18.1 sec  24/ 45 done)
  ITERATION   4:   ||err||_max =   6.3677e-04 (   9.3 sec  45/ 45 done)

CP-SCF equations solved in  77.8 sec
Response densities calculated in   0.1 sec

Maximum memory used throughout the entire SCFRESP-calculation: 53.8 MB

------------------------------------------------------------------------------
                              ORCA PROPERTY CALCULATIONS
------------------------------------------------------------------------------

GBWName                                 ... censo.gbw
Number of atoms                         ...     15
Number of basis functions               ...    215
Max core memory                         ...   1024 MB

Electric properties:
Dipole moment                           ... YES
Quadrupole moment                       ...  NO
Static polarizability (Dipole/Dipole)   ...  NO
Static polarizability (Dipole/Quad.)    ...  NO
Static polarizability (Quad./Quad.)     ...  NO
Static polarizability (Velocity)        ...  NO

Atomic electric properties:
Dipole moment                           ...  NO
Quadrupole moment                       ...  NO
Static polarizability                   ...  NO

Choice of electric origin               ... Center of mass
Position of electric origin             ...    -0.001634     0.023295     0.002085

General magnetic properties:
Magnetizability                         ...  NO

EPR properties:
g-Tensor (aka g-matrix)                 ...  NO
Zero-Field splitting spin-orbit         ...  NO
Zero-field splitting spin-spin          ...  NO
Hyperfine couplings                     ...  NO (   0 nuclei)
Quadrupole couplings                    ...  NO (   0 nuclei)
Contact density                         ...  NO (   0 nuclei)

NMR properties:
Chemical shifts                         ...  NO (   0 nuclei)
Spin-rotation constants                 ...  NO (   0 nuclei)
Spin-spin couplings                     ...  NO (   0 nuclei,    0 pairs)

Choice of magnetic origin               ... GIAO
Position of magnetic origin             ...     0.000000     0.000000     0.000000

Properties with geometric perturbations:
SCF Hessian                             ... YES
IR spectrum                             ... YES
VCD spectrum                            ...  NO
X-ray spectroscopy properties:
SCF XES/XAS/RIXS spectra                ...  NO


-------------
DIPOLE MOMENT
-------------

Method             : SCF
Type of density    : Electron Density
Multiplicity       :   1
Irrep              :   0
Energy             :  -233.6107786858982251 Eh
Relativity type    : 
Basis              : AO
                                X                 Y                 Z
Electronic contribution:     -1.360581571       1.941644801      -0.711690543
Nuclear contribution   :      1.384418802      -2.307357830       1.036483003
                        -----------------------------------------
Total Dipole Moment    :      0.023837231      -0.365713028       0.324792460
                        -----------------------------------------
Magnitude (a.u.)       :      0.489698248
Magnitude (Debye)      :      1.244714028



--------------------
Rotational spectrum 
--------------------
 
Rotational constants in cm-1:             0.254974             0.125710             0.093512 
Rotational constants in MHz :          7643.920264          3768.694552          2803.414851 

Dipole components along the rotational axes: 
x,y,z [a.u.] :     0.015414    -0.370797     0.319493 
x,y,z [Debye]:     0.039180    -0.942492     0.812088 

 

Dipole moment calculation done in   0.0 sec 

-----------
SCF HESSIAN
-----------

Occupied/Occupied contributions to the Hessian:
   => Occupied/Occupied contributions              ... done (  0.0 sec)
Perturbed density contributions to the Hessian:
   => Perturbed density contributions              ... done (  0.0 sec)
Explicit contributions to the Hessian:
   => Nuclear repulsion Hessian                    ... done (  0.0 sec)
   => HCore and overlap Hessian                    ... done (  7.9 sec)
   => RI-J Hessian                                 ... done (  6.1 sec)
   => XC-Hessian                                   ... done ( 74.0 sec)
   => Van der Waals-Hessian                        ... done (  5.6 sec)
   => GCP-Hessian                                  ... done (  0.1 sec)
   => Explicit contributions done
Dipole derivatives                                 ... done (  0.1 sec)
Mass weighting the Hessian           ... done
Calculating normal modes             ... done
Scaling frequencies                  ... done

-----------------------
VIBRATIONAL FREQUENCIES
-----------------------

Scaling factor for frequencies =  1.000000000  (already applied!)

     0:       0.00 cm**-1
     1:       0.00 cm**-1
     2:       0.00 cm**-1
     3:       0.00 cm**-1
     4:       0.00 cm**-1
     5:       0.00 cm**-1
     6:      89.44 cm**-1
     7:     205.34 cm**-1
     8:     231.03 cm**-1
     9:     279.09 cm**-1
    10:     306.91 cm**-1
    11:     372.96 cm**-1
    12:     457.69 cm**-1
    13:     501.98 cm**-1
    14:     787.82 cm**-1
    15:     902.08 cm**-1
    16:     928.21 cm**-1
    17:     943.11 cm**-1
    18:    1054.32 cm**-1
    19:    1122.79 cm**-1
    20:    1144.43 cm**-1
    21:    1162.69 cm**-1
    22:    1186.59 cm**-1
    23:    1222.69 cm**-1
    24:    1353.03 cm**-1
    25:    1356.44 cm**-1
    26:    1389.45 cm**-1
    27:    1405.09 cm**-1
    28:    1457.20 cm**-1
    29:    1470.77 cm**-1
    30:    1473.57 cm**-1
    31:    1481.19 cm**-1
    32:    1487.40 cm**-1
    33:    1501.61 cm**-1
    34:    1505.80 cm**-1
    35:    2954.61 cm**-1
    36:    2963.88 cm**-1
    37:    3007.76 cm**-1
    38:    3012.35 cm**-1
    39:    3026.76 cm**-1
    40:    3085.77 cm**-1
    41:    3092.21 cm**-1
    42:    3093.08 cm**-1
    43:    3097.28 cm**-1
    44:    3101.36 cm**-1


------------
NORMAL MODES
------------

These modes are the Cartesian displacements weighted by the diagonal matrix
M(i,i)=1/sqrt(m[i]) where m[i] is the mass of the displaced atom
Thus, these vectors are normalized but *not* orthogonal

                  0          1          2          3          4          5    
      0       0.000000   0.000000   0.000000   0.000000   0.000000   0.000000
      1       0.000000   0.000000   0.000000   0.000000   0.000000   0.000000
      2       0.000000   0.000000   0.000000   0.000000   0.000000   0.000000
      3       0.000000   0.000000   0.000000   0.000000   0.000000   0.000000
      4       0.000000   0.000000   0.000000   0.000000   0.000000   0.000000
      5       0.000000   0.000000   0.000000   0.000000   0.000000   0.000000
      6       0.000000   0.000000   0.000000   0.000000   0.000000   0.000000
      7       0.000000   0.000000   0.000000   0.000000   0.000000   0.000000
      8       0.000000   0.000000   0.000000   0.000000   0.000000   0.000000
      9       0.000000   0.000000   0.000000   0.000000   0.000000   0.000000
     10       0.000000   0.000000   0.000000   0.000000   0.000000   0.000000
     11       0.000000   0.000000   0.000000   0.000000   0.000000   0.000000
     12       0.000000   0.000000   0.000000   0.000000   0.000000   0.000000
     13       0.000000   0.000000   0.000000   0.000000   0.000000   0.000000
     14       0.000000   0.000000   0.000000   0.000000   0.000000   0.000000
     15       0.000000   0.000000   0.000000   0.000000   0.000000   0.000000
     16       0.000000   0.000000   0.000000   0.000000   0.000000   0.000000
     17       0.000000   0.000000   0.000000   0.000000   0.000000   0.000000
     18       0.000000   0.000000   0.000000   0.000000   0.000000   0.000000
     19       0.000000   0.000000   0.000000   0.000000   0.000000   0.000000
     20       0.000000   0.000000   0.000000   0.000000   0.000000   0.000000
     21       0.000000   0.000000   0.000000   0.000000   0.000000   0.000000
     22       0.000000   0.000000   0.000000   0.000000   0.000000   0.000000
     23       0.000000   0.000000   0.000000   0.000000   0.000000   0.000000
     24       0.000000   0.000000   0.000000   0.000000   0.000000   0.000000
     25       0.000000   0.000000   0.000000   0.000000   0.000000   0.000000
     26       0.000000   0.000000   0.000000   0.000000   0.000000   0.000000
     27       0.000000   0.000000   0.000000   0.000000   0.000000   0.000000
     28       0.000000   0.000000   0.000000   0.000000   0.000000   0.000000
     29       0.000000   0.000000   0.000000   0.000000   0.000000   0.000000
     30       0.000000   0.000000   0.000000   0.000000   0.000000   0.000000
     31       0.000000   0.000000   0.000000   0.000000   0.000000   0.000000
     32       0.000000   0.000000   0.000000   0.000000   0.000000   0.000000
     33       0.000000   0.000000   0.000000   0.000000   0.000000   0.000000
     34       0.000000   0.000000   0.000000   0.000000   0.000000   0.000000
     35       0.000000   0.000000   0.000000   0.000000   0.000000   0.000000
     36       0.000000   0.000000   0.000000   0.000000   0.000000   0.000000
     37       0.000000   0.000000   0.000000   0.000000   0.000000   0.000000
     38       0.000000   0.000000   0.000000   0.000000   0.000000   0.000000
     39       0.000000   0.000000   0.000000   0.000000   0.000000   0.000000
     40       0.000000   0.000000   0.000000   0.000000   0.000000   0.000000
     41       0.000000   0.000000   0.000000   0.000000   0.000000   0.000000
     42       0.000000   0.000000   0.000000   0.000000   0.000000   0.000000
     43       0.000000   0.000000   0.000000   0.000000   0.000000   0.000000
     44       0.000000   0.000000   0.000000   0.000000   0.000000   0.000000
                  6          7          8          9         10         11    
      0      -0.071054   0.041211  -0.000465  -0.011042   0.144961  -0.165429
      1       0.015107  -0.013060  -0.000162   0.030570  -0.067988  -0.091502
      2       0.058747   0.024235  -0.025482  -0.026029  -0.006461  -0.005041
      3       0.014789  -0.003997  -0.009086  -0.003151   0.033996   0.075863
      4       0.038300  -0.008328  -0.000941   0.020631  -0.100348  -0.050285
      5       0.026912  -0.024159  -0.029622   0.005204   0.068510   0.003411
      6       0.029428  -0.019212   0.008514   0.030346  -0.101628  -0.084211
      7      -0.019165   0.020634   0.003380  -0.040071   0.016309   0.156024
      8      -0.070394   0.002924   0.043278  -0.041555  -0.086850  -0.001181
      9       0.002512  -0.003767  -0.006891  -0.023187   0.035863   0.102516
     10       0.081304  -0.041235  -0.021710   0.051043  -0.019446  -0.025899
     11       0.091384  -0.052340  -0.050173   0.064501   0.142597   0.010144
     12       0.023578  -0.012008   0.006641   0.000801  -0.104021   0.111987
     13      -0.104269   0.038099   0.016772  -0.051852   0.140334  -0.007853
     14      -0.097671   0.038175   0.048731  -0.000259  -0.089574  -0.009173
     15      -0.208747   0.427513  -0.149189   0.427976   0.138129  -0.140941
     16      -0.038696  -0.016006  -0.009573   0.102497  -0.010534  -0.133651
     17       0.042986   0.073819  -0.043720   0.026822  -0.009546   0.000445
     18      -0.016373  -0.169104   0.084808  -0.251199   0.196217  -0.304398
     19       0.022679  -0.101247   0.047680  -0.112615   0.012604  -0.351376
     20      -0.038871   0.351047  -0.147005   0.313049  -0.036142   0.049340
     21      -0.046935  -0.124366   0.062056  -0.190647   0.209685  -0.361242
     22       0.043371   0.062019  -0.026944   0.093113  -0.159630   0.139960
     23       0.196816  -0.284372   0.099058  -0.417156  -0.018597  -0.041180
     24       0.082925  -0.039558  -0.044952   0.036524   0.116339   0.093839
     25       0.072532   0.002442   0.001349   0.011265  -0.145727  -0.062044
     26       0.037954  -0.030190  -0.035187   0.012240   0.081988   0.009288
     27       0.035319   0.008865  -0.127016  -0.042204  -0.018246   0.018193
     28      -0.015767  -0.037334   0.267836   0.085211   0.302284   0.442194
     29      -0.079152  -0.089027   0.480843   0.181997  -0.037777   0.013820
     30       0.070047   0.008157  -0.219196  -0.025142  -0.311308  -0.414435
     31       0.004987  -0.009475   0.082483   0.033418   0.043023   0.099210
     32      -0.124079   0.117076  -0.350658  -0.314259  -0.302502  -0.011440
     33      -0.008135  -0.085014   0.395138   0.198394  -0.136189  -0.090849
     34      -0.087933   0.126952  -0.324738  -0.300260  -0.169569   0.214807
     35      -0.075869  -0.007965   0.106842  -0.012943  -0.091299  -0.001969
     36       0.001033  -0.251352  -0.116897   0.152654  -0.217208   0.118061
     37       0.067709   0.159809   0.070076  -0.102481   0.189082  -0.028558
     38      -0.573830  -0.228921  -0.063351   0.098202  -0.199546   0.049691
     39       0.000154  -0.004167  -0.012584  -0.024313   0.075940   0.119746
     40       0.094151   0.284659   0.127960  -0.192293   0.315819  -0.042897
     41       0.238387   0.383988   0.248738  -0.156706  -0.182115  -0.075282
     42       0.089677   0.217391   0.170430  -0.116033  -0.304522   0.071142
     43      -0.619079  -0.262327  -0.118538   0.057204   0.070613   0.057351
     44      -0.092861   0.054659   0.061042  -0.008614  -0.104912  -0.010926
                 12         13         14         15         16         17    
      0      -0.070802  -0.002240   0.042355  -0.030130   0.073645  -0.083917
      1       0.152858   0.087939  -0.162286  -0.184022  -0.003422   0.055846
      2      -0.034467  -0.014287   0.006843  -0.028227  -0.057813  -0.048525
      3       0.080893  -0.104810   0.076930  -0.190660   0.024565  -0.056123
      4       0.064546  -0.007645  -0.030164   0.110075   0.047685  -0.054713
      5       0.150934   0.159206   0.173633   0.034065   0.002534   0.004508
      6       0.100051  -0.170119   0.109795   0.047990  -0.061596   0.114863
      7       0.026472  -0.113138   0.058025   0.158096   0.029904   0.030606
      8      -0.018774  -0.013580   0.025126  -0.032048   0.058425   0.041756
      9       0.024826   0.089844  -0.081113   0.003539  -0.003222   0.014842
     10      -0.226907   0.015940   0.138741  -0.074736   0.002630  -0.022996
     11      -0.009331  -0.070464  -0.133305   0.065593  -0.000121   0.001874
     12      -0.098343   0.167494  -0.104098   0.091528   0.004329  -0.006528
     13      -0.013372   0.013226  -0.022358   0.031761  -0.002018  -0.009070
     14      -0.026713   0.004183   0.015195  -0.018058  -0.000691   0.004176
     15      -0.214261   0.011264  -0.054026   0.070643  -0.094756   0.157125
     16       0.460569   0.411193   0.170650   0.008740  -0.414066  -0.244180
     17      -0.067236  -0.028159  -0.021871  -0.028932  -0.055978   0.001572
     18      -0.111395   0.063285   0.064000   0.063937  -0.093998  -0.037427
     19      -0.200142   0.098111  -0.401872  -0.038457  -0.240415   0.500021
     20      -0.243807  -0.132088  -0.220425  -0.088799   0.067103   0.235583
     21      -0.212455   0.090335  -0.002781   0.127473  -0.146889   0.122106
     22       0.269336  -0.105145  -0.188215  -0.466722   0.390282  -0.125128
     23      -0.177933  -0.204593  -0.186270  -0.220295   0.236949   0.133029
     24       0.095282  -0.240146  -0.173137  -0.176554  -0.116648  -0.181156
     25       0.147329   0.019332   0.056832   0.151537  -0.257054  -0.334440
     26       0.147049   0.133937   0.109396   0.045025  -0.012633  -0.005366
     27       0.119350  -0.056455   0.331616  -0.114668  -0.069968   0.354085
     28      -0.002453  -0.028730   0.298150  -0.207845  -0.196559   0.299553
     29      -0.070971  -0.169791  -0.211145   0.018457  -0.086896  -0.219939
     30       0.223389  -0.112068   0.032227   0.535961   0.320478  -0.010406
     31       0.078788  -0.048308   0.104357   0.278312   0.176759   0.080303
     32      -0.113364  -0.194210  -0.170820  -0.125849  -0.207098  -0.191206
     33      -0.000828  -0.437303  -0.229943   0.170866  -0.228185  -0.246515
     34      -0.114639  -0.326618  -0.106684  -0.056698  -0.366528  -0.100367
     35      -0.033490  -0.055653  -0.029812  -0.012603   0.030089  -0.021885
     36      -0.336826   0.182000   0.046862   0.054757  -0.013586  -0.034218
     37       0.014250   0.005259  -0.045917   0.038167  -0.002045  -0.008264
     38      -0.031543   0.019403   0.043667  -0.034671   0.005288   0.009919
     39       0.067693   0.075286  -0.291413   0.148998   0.005259   0.021840
     40       0.176311  -0.030919  -0.173955   0.085422  -0.002214   0.024088
     41      -0.071822   0.119283   0.148877  -0.048713  -0.003662   0.001635
     42      -0.164573   0.304645   0.074767   0.030813   0.001568  -0.003215
     43       0.025502  -0.013426  -0.047276   0.012589   0.010400   0.003281
     44      -0.034551   0.015447   0.023267  -0.017223  -0.000500   0.004082
                 18         19         20         21         22         23    
      0      -0.057269   0.061621  -0.048582   0.016888  -0.080796   0.022411
      1      -0.057198  -0.018434  -0.072952  -0.009270  -0.005046   0.016947
      2      -0.041905   0.048292  -0.109747   0.005411   0.080139  -0.037132
      3      -0.065798  -0.082978   0.109491  -0.023513   0.145695  -0.031201
      4       0.128384   0.071900   0.191419   0.017280  -0.074877  -0.056045
      5      -0.026032  -0.126628   0.066076  -0.006345  -0.098673   0.122931
      6      -0.091758   0.053099  -0.033725   0.012105  -0.067881   0.002971
      7       0.022073  -0.059675  -0.090269  -0.013677   0.065743   0.011955
      8      -0.000241   0.062583   0.052203  -0.002127   0.070634  -0.096513
      9       0.470019   0.019200  -0.063685  -0.002501  -0.040358  -0.018511
     10       0.112042  -0.001276  -0.018183   0.045396   0.041704   0.063317
     11      -0.074602   0.026125  -0.025272   0.048629  -0.023248  -0.067617
     12      -0.392590   0.016903   0.046932   0.008896   0.040539   0.059017
     13      -0.198326  -0.032825  -0.013924  -0.096432  -0.049615  -0.078549
     14       0.146505   0.063142   0.011418  -0.096640   0.033176   0.082948
     15       0.119012  -0.147744   0.216091  -0.028974   0.097509  -0.016916
     16      -0.113126   0.135720  -0.387480   0.002577   0.374365  -0.131850
     17      -0.019432   0.005014  -0.057926  -0.001935   0.077940  -0.026432
     18       0.008725   0.039875  -0.019037   0.011069   0.109939  -0.052540
     19       0.200043  -0.295563   0.214613  -0.051749   0.214531  -0.011813
     20       0.054504  -0.155897   0.097104  -0.020475  -0.099681   0.087833
     21       0.125803  -0.104975   0.146909  -0.018859   0.054723  -0.005230
     22      -0.296918   0.118153  -0.242394   0.024604  -0.254568   0.111584
     23      -0.057572  -0.111556   0.065847  -0.013574  -0.158631   0.123369
     24       0.193607  -0.347419   0.327677  -0.032834   0.082776  -0.262796
     25       0.130160   0.204654   0.447707  -0.002782  -0.066360  -0.179641
     26       0.036436  -0.173485   0.088399  -0.000686  -0.117582   0.080807
     27      -0.226435   0.265557   0.034848   0.034440  -0.080506  -0.105112
     28      -0.214664   0.243024   0.079885   0.051036  -0.233726   0.011110
     29       0.078847  -0.143283   0.027901  -0.002292  -0.110829   0.123143
     30       0.119759  -0.250178  -0.247957  -0.049488   0.273854   0.058128
     31       0.064504  -0.056949  -0.123419  -0.024751   0.179533  -0.053560
     32      -0.013204  -0.112591   0.043343   0.004982  -0.142783   0.163447
     33      -0.015138  -0.275407  -0.234429  -0.015805  -0.129212   0.311697
     34      -0.084978   0.000211  -0.044395   0.039699  -0.344882   0.200579
     35       0.012544   0.000609   0.024990  -0.006683   0.054673  -0.039651
     36      -0.208384  -0.051121  -0.132516  -0.586735  -0.260128  -0.284688
     37      -0.133570   0.049977   0.021557  -0.187396   0.007928   0.041977
     38       0.048650  -0.129725  -0.048483   0.345645  -0.048158  -0.145504
     39      -0.125975   0.290203   0.195297   0.121686   0.277768   0.444032
     40       0.004717   0.141249   0.130032   0.233671   0.165337   0.234519
     41      -0.000293  -0.195469  -0.074588   0.174835  -0.116109  -0.199277
     42      -0.213362  -0.303174  -0.159221   0.433885  -0.233663  -0.426645
     43      -0.082545  -0.055118   0.022414   0.411138   0.056090   0.031502
     44       0.110284   0.037056  -0.003180  -0.063661   0.014038   0.044770
                 24         25         26         27         28         29    
      0      -0.025377  -0.035952  -0.011187   0.028405  -0.004298   0.015117
      1      -0.002548   0.007797   0.130861  -0.061238  -0.003801   0.004727
      2      -0.035482   0.056538   0.021515  -0.023823  -0.020019  -0.019283
      3       0.097153   0.064592  -0.034804  -0.030653   0.026716   0.011159
      4      -0.025721   0.134881  -0.081974  -0.014664  -0.000588   0.030915
      5       0.005036  -0.002146   0.001376   0.007057   0.004745  -0.000628
      6      -0.007952   0.026130   0.053877   0.103966  -0.007174  -0.011241
      7       0.017702  -0.013990   0.061214   0.071852   0.005352   0.011686
      8      -0.027351  -0.048683  -0.000785  -0.023898  -0.001047   0.025442
      9       0.021009  -0.004231  -0.003170  -0.003001  -0.028079   0.001255
     10      -0.010738  -0.017184   0.009885   0.005227  -0.004020  -0.006375
     11       0.043212   0.002879  -0.004468  -0.007227   0.005594  -0.002539
     12      -0.009943  -0.008801  -0.000388   0.008513  -0.089125   0.007556
     13       0.015778   0.008241  -0.009113  -0.003730  -0.015350  -0.019749
     14      -0.021442  -0.005357   0.003091   0.006843   0.024654  -0.025571
     15       0.116809   0.110638   0.064183  -0.157622   0.019321  -0.218900
     16      -0.032308  -0.058696  -0.498296   0.271348   0.141105   0.164636
     17      -0.012212   0.067066   0.050652  -0.056680  -0.017275  -0.048025
     18      -0.002774   0.065230  -0.111535   0.002750  -0.092284  -0.209302
     19       0.103900  -0.125777  -0.435489   0.225276  -0.059794  -0.130222
     20       0.016985  -0.219927  -0.216495   0.234124   0.110244   0.299531
     21       0.023127   0.072893   0.260430  -0.133128   0.085325   0.185330
     22       0.009255  -0.217657  -0.305074   0.191464  -0.041465  -0.184287
     23       0.106664  -0.149038  -0.140764   0.082936   0.163972   0.082646
     24      -0.810501  -0.282168   0.116062   0.116421  -0.093198  -0.035229
     25       0.414003  -0.750676   0.266813   0.017023   0.005262  -0.108138
     26      -0.164936  -0.030715   0.013590   0.034741  -0.009583  -0.006037
     27      -0.087239  -0.146299  -0.092551  -0.231762   0.013486   0.091496
     28      -0.103689  -0.085962  -0.245999  -0.382992  -0.038409  -0.245371
     29       0.036329   0.195522   0.042852   0.245895  -0.064702  -0.349288
     30      -0.052784  -0.208552  -0.214048  -0.418578  -0.040536  -0.279152
     31      -0.038943  -0.112328  -0.015206  -0.078189  -0.012275  -0.002313
     32       0.102599   0.125955   0.056399   0.121951   0.024423  -0.121360
     33       0.030035  -0.125495  -0.159320  -0.403107   0.075529   0.303892
     34      -0.074830   0.009614  -0.205875  -0.246911  -0.041263  -0.016568
     35      -0.016002  -0.062533  -0.028827  -0.094068   0.011578   0.065082
     36      -0.030350   0.041229   0.028497  -0.035966   0.400699   0.191011
     37      -0.035398  -0.003374  -0.006587   0.015036  -0.022033  -0.043740
     38       0.110393   0.013633  -0.004764  -0.033665  -0.088824   0.036779
     39      -0.131770  -0.021090   0.061167   0.008175   0.388966  -0.044866
     40      -0.067743   0.003725   0.063643  -0.019806   0.304703   0.174546
     41       0.085394   0.011863  -0.004620  -0.019562  -0.378950   0.353815
     42      -0.030036   0.013017   0.008092  -0.013046   0.568708  -0.273377
     43      -0.065908  -0.017725   0.021835   0.017481  -0.000607   0.164024
     44      -0.006891  -0.001719   0.002650   0.002023   0.061033  -0.034050
                 30         31         32         33         34         35    
[...]
     20       0.014618   0.217460  -0.107943  -0.042971  -0.267066   0.059765
     21      -0.034597  -0.336780   0.181769   0.026835   0.071628   0.175743
     22      -0.025744  -0.251849   0.139170   0.017397   0.044342   0.138044
     23       0.011837   0.117207  -0.062547  -0.010151  -0.005492  -0.060242
     24       0.036114   0.003666  -0.001153   0.007225   0.003037   0.003912
     25      -0.006372   0.002551   0.000550  -0.001539  -0.002731  -0.000598
     26      -0.260503  -0.014121   0.020374  -0.015437  -0.022483  -0.007427
     27       0.011231  -0.202020  -0.370300   0.000904   0.257283  -0.036882
     28      -0.006746   0.081960   0.150878  -0.000508  -0.104153   0.014523
     29       0.007128  -0.114309  -0.209209   0.000485   0.133479  -0.020133
     30      -0.001645   0.048467   0.092646   0.002156  -0.035596  -0.003818
     31       0.007002  -0.226779  -0.456066  -0.011209   0.162733   0.021542
     32       0.001639  -0.074390  -0.147112  -0.003796   0.039673   0.007594
     33      -0.001344  -0.043312  -0.085535  -0.002153  -0.061622   0.003188
     34       0.000929   0.006090   0.009773  -0.000278   0.004518  -0.000638
     35       0.018969   0.303321   0.578721   0.008008   0.379420  -0.017411
     36       0.045842   0.007594  -0.004264   0.062623  -0.001217  -0.026062
     37       0.475479   0.079569  -0.048575   0.756367   0.006489  -0.178146
     38       0.187121   0.027943  -0.017068   0.262168   0.001882  -0.084205
     39       0.219277  -0.005051   0.001835   0.049820   0.030706   0.661383
     40      -0.172660   0.001094   0.001182  -0.056115  -0.024095  -0.520539
     41       0.119951  -0.005396   0.002211   0.005831   0.015951   0.354102
     42       0.049326  -0.005695   0.002821  -0.028545  -0.000598  -0.018907
     43      -0.013854  -0.000908   0.000527  -0.009476   0.000214   0.017796
     44      -0.752421   0.099401  -0.060276   0.558746   0.007322   0.199872
                 42         43         44    
      0       0.025047  -0.074377  -0.019497
      1      -0.008783  -0.029869  -0.000534
      2       0.036511   0.033229  -0.008643
      3      -0.001419  -0.002426  -0.001456
      4       0.000702  -0.000299   0.001808
      5       0.011125   0.005167  -0.001699
      6       0.002784   0.009270  -0.057837
      7       0.033760  -0.007780   0.066304
      8       0.071865   0.008565  -0.016387
      9      -0.000072   0.000150   0.000341
     10      -0.000083  -0.000061  -0.000288
     11      -0.000362   0.000053   0.000285
     12      -0.001750   0.013908   0.000465
     13       0.001358  -0.020092   0.000183
     14      -0.000952   0.008362  -0.000252
     15       0.043357   0.026945  -0.011219
     16      -0.015999  -0.019445   0.001773
     17      -0.292769  -0.337412   0.049657
     18      -0.325624   0.246820   0.160945
     19       0.135581  -0.115600  -0.070027
     20      -0.168184   0.148345   0.086535
     21      -0.019192   0.623511   0.087538
     22      -0.020264   0.490124   0.070470
     23       0.015644  -0.209516  -0.032153
     24       0.018949   0.010080  -0.000606
     25      -0.003888  -0.002392  -0.001041
     26      -0.104242  -0.053694   0.010345
     27      -0.226334  -0.109826   0.613463
     28       0.095002   0.043278  -0.232956
     29      -0.108872  -0.059418   0.340161
     30       0.097406  -0.009447   0.103145
     31      -0.496046   0.055470  -0.583350
     32      -0.141909   0.019889  -0.190588
     33       0.098537   0.013703  -0.021653
     34       0.001058  -0.000841   0.015156
     35      -0.616818  -0.067704   0.050394
     36      -0.000969   0.011324  -0.001187
     37      -0.001647   0.103279  -0.004255
     38      -0.000903   0.042319  -0.001398
     39       0.019757  -0.182288  -0.001646
     40      -0.015349   0.144903   0.001461
     41       0.010108  -0.099249  -0.000908
     42       0.001408   0.005765  -0.000894
     43       0.000700  -0.006229  -0.000063
     44       0.001104  -0.043635   0.004925


-----------
IR SPECTRUM
-----------

 Mode   freq       eps      Int      T**2         TX        TY        TZ
       cm**-1   L/(mol*cm) km/mol    a.u.
----------------------------------------------------------------------------
  6:     89.44   0.000387    1.96  0.001351  ( 0.003094 -0.026612 -0.025156)
  7:    205.34   0.000315    1.59  0.000478  (-0.004480  0.013098  0.016926)
  8:    231.03   0.000233    1.18  0.000315  ( 0.002454  0.008578  0.015327)
  9:    279.09   0.000230    1.16  0.000257  ( 0.005177 -0.011777 -0.009565)
 10:    306.91   0.000351    1.78  0.000357  (-0.010152  0.002565 -0.015736)
 11:    372.96   0.000066    0.33  0.000055  (-0.005440  0.003540 -0.003624)
 12:    457.69   0.001031    5.21  0.000703  (-0.005751  0.024971  0.006824)
 13:    501.98   0.000083    0.42  0.000052  (-0.005853  0.003486  0.002310)
 14:    787.82   0.002779   14.04  0.001101  ( 0.019872 -0.019472  0.018074)
 15:    902.08   0.002638   13.33  0.000913  (-0.012845  0.022215 -0.015943)
 16:    928.21   0.000081    0.41  0.000027  (-0.003251 -0.004037 -0.000702)
 17:    943.11   0.000220    1.11  0.000073  (-0.008051  0.000754 -0.002730)
 18:   1054.32   0.023669  119.61  0.007006  (-0.082733 -0.007823  0.009983)
 19:   1122.79   0.005154   26.04  0.001432  (-0.033720  0.010081 -0.013918)
 20:   1144.43   0.004993   25.23  0.001362  ( 0.030062  0.018971  0.009896)
 21:   1162.69   0.000565    2.85  0.000152  (-0.005146 -0.001232 -0.011119)
 22:   1186.59   0.005424   27.41  0.001427  ( 0.035534 -0.012680  0.001743)
 23:   1222.69   0.001255    6.34  0.000320  ( 0.008871 -0.010082  0.011828)
 24:   1353.03   0.003595   18.17  0.000829  ( 0.027377 -0.005563 -0.006982)
 25:   1356.44   0.000870    4.40  0.000200  ( 0.003301  0.013724 -0.000936)
 26:   1389.45   0.004455   22.51  0.001001  (-0.002034 -0.031480 -0.002314)
 27:   1405.09   0.003144   15.89  0.000698  (-0.025329  0.000908  0.007470)
 28:   1457.20   0.000128    0.65  0.000027  ( 0.002152 -0.003815 -0.002866)
 29:   1470.77   0.000210    1.06  0.000045  (-0.002591 -0.001000  0.006068)
 30:   1473.57   0.000425    2.15  0.000090  ( 0.005117 -0.006955 -0.003940)
 31:   1481.19   0.001913    9.67  0.000403  (-0.002919  0.006947  0.018608)
 32:   1487.40   0.000506    2.56  0.000106  (-0.006612  0.004494 -0.006496)
 33:   1501.61   0.001481    7.48  0.000308  (-0.014296  0.001060 -0.010111)
 34:   1505.80   0.001430    7.23  0.000296  ( 0.003762 -0.008234  0.014643)
 35:   2954.61   0.007484   37.82  0.000791  ( 0.007934  0.005640  0.026377)
 36:   2963.88   0.015137   76.49  0.001594  (-0.028452 -0.010890  0.025799)
 37:   3007.76   0.003123   15.78  0.000324  ( 0.003344  0.017666 -0.000860)
 38:   3012.35   0.002838   14.34  0.000294  ( 0.015724  0.003209 -0.006039)
 39:   3026.76   0.012604   63.69  0.001299  (-0.004037 -0.023591 -0.026956)
 40:   3085.77   0.000712    3.60  0.000072  ( 0.003389 -0.005902  0.005070)
 41:   3092.21   0.006065   30.65  0.000612  (-0.020942  0.010977 -0.007279)
 42:   3093.08   0.008412   42.51  0.000849  ( 0.007496  0.006989  0.027271)
 43:   3097.28   0.005908   29.86  0.000595  (-0.013289 -0.016141  0.012577)
 44:   3101.36   0.005927   29.95  0.000596  (-0.017567  0.015814 -0.006143)

* The epsilon (eps) is given for a Dirac delta lineshape.
** The dipole moment derivative (T) already includes vibrational overlap.

The first frequency considered to be a vibration is 6
The total number of vibrations considered is 39


--------------------------
THERMOCHEMISTRY AT 298.15K
--------------------------

Temperature         ...   298.15 K
Pressure            ...     1.00 atm
Total Mass          ...    74.12 AMU
Quasi RRHO          ...     True
Cut-Off Frequency   ...     1.00 cm^-1

Throughout the following assumptions are being made:
  (1) The electronic state is orbitally nondegenerate
  (2) There are no thermally accessible electronically excited states
  (3) Hindered rotations indicated by low frequency modes are not
      treated as such but are treated as vibrations and this may
      cause some error
  (4) All equations used are the standard statistical mechanics
      equations for an ideal gas
  (5) All vibrations are strictly harmonic

freq.      89.44  E(vib)   ...       0.47 
freq.     205.34  E(vib)   ...       0.35 
freq.     231.03  E(vib)   ...       0.32 
freq.     279.09  E(vib)   ...       0.28 
freq.     306.91  E(vib)   ...       0.26 
freq.     372.96  E(vib)   ...       0.21 
freq.     457.69  E(vib)   ...       0.16 
freq.     501.98  E(vib)   ...       0.14 
freq.     787.82  E(vib)   ...       0.05 
freq.     902.08  E(vib)   ...       0.03 
freq.     928.21  E(vib)   ...       0.03 
freq.     943.11  E(vib)   ...       0.03 
freq.    1054.32  E(vib)   ...       0.02 
freq.    1122.79  E(vib)   ...       0.01 
freq.    1144.43  E(vib)   ...       0.01 
freq.    1162.69  E(vib)   ...       0.01 
freq.    1186.59  E(vib)   ...       0.01 
freq.    1222.69  E(vib)   ...       0.01 
freq.    1353.03  E(vib)   ...       0.01 
freq.    1356.44  E(vib)   ...       0.01 
freq.    1389.45  E(vib)   ...       0.00 
freq.    1405.09  E(vib)   ...       0.00 
freq.    1457.20  E(vib)   ...       0.00 
freq.    1470.77  E(vib)   ...       0.00 
freq.    1473.57  E(vib)   ...       0.00 
freq.    1481.19  E(vib)   ...       0.00 
freq.    1487.40  E(vib)   ...       0.00 
freq.    1501.61  E(vib)   ...       0.00 
freq.    1505.80  E(vib)   ...       0.00 
freq.    2954.61  E(vib)   ...       0.00 
freq.    2963.88  E(vib)   ...       0.00 
freq.    3007.76  E(vib)   ...       0.00 
freq.    3012.35  E(vib)   ...       0.00 
freq.    3026.76  E(vib)   ...       0.00 
freq.    3085.77  E(vib)   ...       0.00 
freq.    3092.21  E(vib)   ...       0.00 
freq.    3093.08  E(vib)   ...       0.00 
freq.    3097.28  E(vib)   ...       0.00 
freq.    3101.36  E(vib)   ...       0.00 

------------
INNER ENERGY
------------

The inner energy is: U= E(el) + E(ZPE) + E(vib) + E(rot) + E(trans)
    E(el)   - is the total energy from the electronic structure calculation
              = E(kin-el) + E(nuc-el) + E(el-el) + E(nuc-nuc)
    E(ZPE)  - the the zero temperature vibrational energy from the frequency calculation
    E(vib)  - the the finite temperature correction to E(ZPE) due to population
              of excited vibrational states
    E(rot)  - is the rotational thermal energy
    E(trans)- is the translational thermal energy

Summary of contributions to the inner energy U:
Electronic energy                ...   -233.60411454 Eh
Zero point energy                ...      0.13490346 Eh      84.65 kcal/mol
Thermal vibrational correction   ...      0.00392247 Eh       2.46 kcal/mol
Thermal rotational correction    ...      0.00141627 Eh       0.89 kcal/mol
Thermal translational correction ...      0.00141627 Eh       0.89 kcal/mol
-----------------------------------------------------------------------
Total thermal energy                   -233.46245607 Eh


Summary of corrections to the electronic energy:
(perhaps to be used in another calculation)
Total thermal correction                  0.00675501 Eh       4.24 kcal/mol
Non-thermal (ZPE) correction              0.13490346 Eh      84.65 kcal/mol
-----------------------------------------------------------------------
Total correction                          0.14165847 Eh      88.89 kcal/mol


--------
ENTHALPY
--------

The enthalpy is H = U + kB*T
                kB is Boltzmann's constant
Total thermal energy              ...   -233.46245607 Eh 
Thermal Enthalpy correction       ...      0.00094421 Eh       0.59 kcal/mol
-----------------------------------------------------------------------
Total Enthalpy                    ...   -233.46151186 Eh


Note: Only C1 symmetry has been detected, increase convergence thresholds 
      if your molecule has a higher symmetry. Symmetry factor of 1.0 is   
      used for the rotational entropy correction. 
 

Note: Rotational entropy computed according to Herzberg 
Infrared and Raman Spectra, Chapter V,1, Van Nostrand Reinhold, 1945 
Point Group:  C1, Symmetry Number:   1  
Rotational constants in cm-1:     0.254974     0.125710     0.093512 

Vibrational entropy computed according to the QRRHO of S. Grimme
Chem.Eur.J. 2012 18 9955 using a reference frequency of 100.0 cm-1


-------
ENTROPY
-------

The entropy contributions are T*S = T*(S(el)+S(vib)+S(rot)+S(trans))
     S(el)   - electronic entropy
     S(vib)  - vibrational entropy
     S(rot)  - rotational entropy
     S(trans)- translational entropy
The entropies will be listed as multiplied by the temperature to get
units of energy

Electronic entropy                ...      0.00000000 Eh      0.00 kcal/mol
Vibrational entropy               ...      0.00651471 Eh      4.09 kcal/mol
Rotational entropy                ...      0.01225367 Eh      7.69 kcal/mol
Translational entropy             ...      0.01844715 Eh     11.58 kcal/mol
-----------------------------------------------------------------------
Final entropy term                ...      0.03721553 Eh     23.35 kcal/mol

In case the symmetry of your molecule has not been determined correctly
or in case you have a reason to use a different symmetry number we print 
out the resulting rotational entropy values for sn=1,12:

 non-linear molecules -----------------------------------
|  sn= 1 | S(rot)=       0.01225367 Eh      7.69 kcal/mol|
|  sn= 2 | S(rot)=       0.01159922 Eh      7.28 kcal/mol|
|  sn= 3 | S(rot)=       0.01121639 Eh      7.04 kcal/mol|
|  sn= 4 | S(rot)=       0.01094476 Eh      6.87 kcal/mol|
|  sn= 5 | S(rot)=       0.01073407 Eh      6.74 kcal/mol|
|  sn= 6 | S(rot)=       0.01056193 Eh      6.63 kcal/mol|
|  sn= 7 | S(rot)=       0.01041638 Eh      6.54 kcal/mol|
|  sn= 8 | S(rot)=       0.01029030 Eh      6.46 kcal/mol|
|  sn= 9 | S(rot)=       0.01017910 Eh      6.39 kcal/mol|
|  sn=10 | S(rot)=       0.01007962 Eh      6.33 kcal/mol|
|  sn=11 | S(rot)=       0.00998963 Eh      6.27 kcal/mol|
|  sn=12 | S(rot)=       0.00990747 Eh      6.22 kcal/mol|
 linear molecules ---------------------------------------
|  Dinfh | S(rot)=       0.00756320 Eh      4.75 kcal/mol|
|  Cinfv | S(rot)=       0.00821766 Eh      5.16 kcal/mol|
 --------------------------------------------------------


-------------------
GIBBS FREE ENERGY
-------------------

The Gibbs free energy is G = H - T*S

Total enthalpy                    ...   -233.46151186 Eh 
Total entropy correction          ...     -0.03721553 Eh    -23.35 kcal/mol
-----------------------------------------------------------------------
Final Gibbs free energy         ...   -233.49872739 Eh

For completeness - the Gibbs free energy minus the electronic energy
G-E(el)                           ...      0.10538715 Eh     66.13 kcal/mol


Maximum memory used throughout the entire PROP-calculation: 44.2 MB

--------------------------------
SUGGESTED CITATIONS FOR THIS RUN
--------------------------------

Below you find a list of papers that are relevant to this ORCA run
We neither can nor want to force you to cite these papers, but we appreciate if you do
You receive ORCA, which is the product of decades of hard work by many enthusiastic individuals, for free
The only thing we kindly ask in return is that you cite our papers,
We deeply appreciate it, if you show your appreciation for ORCA by not just citing the generic ORCA reference.

Please note that relegating all ORCA citations to the supporting information does *not* help us.
SI sections are not indexed - citations you put there will not count into any citation statistics
But we need these citations in order to attract the funding resources that allow us to do what we are doing

Therefore, if you are a happy ORCA user, please consider citing a few of the papers listed below in the main body of your paper

In addition to the list printed below, the program has created the file censo.bibtex that contains the list in bibtex format
You can import this file easily into all common literature databanks and citation aid programs


List of essential papers. We consider these as the minimum necessary citations

  1. Neese,F.
     Software update: the ORCA program system, version 5.0
     WIRES Comput. Molec. Sci., 2022 12(1)e1606
     doi.org/10.1002/wcms.1606
  2. Grimme,S.; Hansen,A.; Ehlert,S.; Mewes,J.
     r2SCAN-3c: A 'Swiss army knife' composite electronic-structure method
     J. Chem. Phys., 2021 154 064103
     doi.org/10.1063/5.0040021

List of papers to cite with high priority. The work reported in these papers was absolutely
necessary for this run to complete.
Our perspective: the developers of density functionals and basis sets usually get cited in chemistry papers
Good! But without the algorithms to do something with them, the functionals or basis sets would not do anything.
Hence, in our opinion, the algorithm design and method developments papers are equally worthy of getting cited

  1. Neese,F.
     An improvement of the resolution of the identity approximation for the formation of the Coulomb matrix
     J. Comp. Chem., 2003 24(14)1740-1747
     doi.org/10.1002/jcc.10318
  2. Bykov,D.; Petrenko,T.; Izsak,R.; Kossmann,S.; Becker,U.; Valeev,E.; Neese,F.
     Efficient implementation of the analytic second derivatives of Hartree-Fock and hybrid DFT energies: a detailed analysis of different approximations
     Molec. Phys., 2015 113 1961-1977
     doi.org/10.1080/00268976.2015.1025114
  3. Neese,F.
     The SHARK Integral Generation and Digestion System
     J. Comp. Chem., 2022  1-16
     doi.org/10.1002/jcc.26942
  4. Lehtola,S.; Steigemann,C.; Oliveira,M.; Marques,M.
     Recent developments in Libxc - A comprehensive library of functionals for density functional theory
     Software X, 2018 7 
     doi.org/10.1016/j.softx.2017.11.002
  5. Caldeweyher,E.; Bannwarth,C.; Grimme,S.
     Extension of the D3 dispersion coefficient model
     J. Chem. Phys., 2017 147 034112-XXXX
     doi.org/10.1063/1.4993215
  6. Caldeweyher,E.; Ehlert,S.; Hansen,A.; Neugebauer,H.; Spicher,S.; Bannwarth,C.; Grimme,S.
     A generally applicable atomic-charge dependent London dispersion correction
     J. Chem. Phys., 2019 150 154122-XXXX
     doi.org/10.1063/1.5090222
  7. Caldeweyher,E.; Mewes,J.; Ehlert,S.; Grimme,S.
     Extension and evaluation of the D4 London-dispersion model for periodic systems
     Phys. Chem. Chem. Phys., 2020 22(16)8499-8512
     doi.org/10.1039/D0CP00502A

List of suggested additional citations. These are papers that are important in the 'surrounding' of 
of this run, or papers that preceded the highly important papers. If you like your results we are grateful for a citation.

  1. Neese,F.
     The ORCA program system
     WIRES Comput. Molec. Sci., 2012 2(1)73-78
     doi.org/10.1002/wcms.81
  2. Neese,F.
     Software update: the ORCA program system, version 4.0
     WIRES Comput. Molec. Sci., 2018 8(1)1-6
     doi.org/10.1002/wcms.1327
  3. Neese,F.; Wennmohs,F.; Becker,U.; Riplinger,C.
     The ORCA quantum chemistry program package
     J. Chem. Phys., 2020 152 Art. No. L224108
     doi.org/10.1063/5.0004608

List of optional additional citations

  1. Neese,F.
     Approximate second-order SCF convergence for spin unrestricted wavefunctions
     Chem. Phys. Lett., 2000 325(1-3)93-98
     doi.org/10.1016/s0009-2614(00)00662-x

Timings for individual modules:

Sum of individual times          ...      583.996 sec (=   9.733 min)
Startup calculation              ...        1.121 sec (=   0.019 min)   0.2 %
SCF iterations                   ...       24.596 sec (=   0.410 min)   4.2 %
Property integrals               ...      385.286 sec (=   6.421 min)  66.0 %
SCF Response                     ...       78.957 sec (=   1.316 min)  13.5 %
Property calculations            ...       94.036 sec (=   1.567 min)  16.1 %
                             ****ORCA TERMINATED NORMALLY****
TOTAL RUN TIME: 0 days 0 hours 9 minutes 44 seconds 827 msec
