      -----------------------------------------------------------      
     |                   =====================                   |     
     |                           x T B                           |     
     |                   =====================                   |     
     |                         S. Grimme                         |     
     |          Mulliken Center for Theoretical Chemistry        |     
     |                    University of Bonn                     |     
      -----------------------------------------------------------      

   * xtb version 6.7.1 (edcfbbe) compiled by 'albert@albert-system' on 2024-07-22

   xtb is free software: you can redistribute it and/or modify it under
   the terms of the GNU Lesser General Public License as published by
   the Free Software Foundation, either version 3 of the License, or
   (at your option) any later version.
   
   xtb is distributed in the hope that it will be useful,
   but WITHOUT ANY WARRANTY; without even the implied warranty of
   MERCHANTABILITY or FITNESS FOR A PARTICULAR PURPOSE.  See the
   GNU Lesser General Public License for more details.
   
   Cite this work as:
   * C. Bannwarth, E. Caldeweyher, S. Ehlert, A. Hansen, P. Pracht,
     J. Seibert, S. Spicher, S. Grimme, WIREs Comput. Mol. Sci., 2020, 11,
     e01493. DOI: 10.1002/wcms.1493
   
   for GFN2-xTB:
   * C. Bannwarth, S. Ehlert and S. Grimme., J. Chem. Theory Comput., 2019,
     15, 1652-1671. DOI: 10.1021/acs.jctc.8b01176
   for GFN1-xTB:
   * S. Grimme, C. Bannwarth, P. Shushkov, J. Chem. Theory Comput., 2017,
     13, 1989-2009. DOI: 10.1021/acs.jctc.7b00118
   for GFN0-xTB:
   * P. Pracht, E. Caldeweyher, S. Ehlert, S. Grimme, ChemRxiv, 2019, preprint.
     DOI: 10.26434/chemrxiv.8326202.v1
   for GFN-FF:
   * S. Spicher and S. Grimme, Angew. Chem. Int. Ed., 2020, 59, 15665-15673.
     DOI: 10.1002/anie.202004239
   
   for ALPB and GBSA implicit solvation:
   * S. Ehlert, M. Stahn, S. Spicher, S. Grimme, J. Chem. Theory Comput.,
     2021, 17, 4250-4261. DOI: 10.1021/acs.jctc.1c00471
   
   for ddCOSMO and CPCM-X implicit solvation:
   * M. Stahn, S. Ehlert, S. Grimme, J. Phys. Chem. A,
     2023, XX, XXXX-XXXX. DOI: 10.1021/acs.jpca.3c04382
   
   for DFT-D4:
   * E. Caldeweyher, C. Bannwarth and S. Grimme, J. Chem. Phys., 2017,
     147, 034112. DOI: 10.1063/1.4993215
   * E. Caldeweyher, S. Ehlert, A. Hansen, H. Neugebauer, S. Spicher,
     C. Bannwarth and S. Grimme, J. Chem. Phys., 2019, 150, 154122.
     DOI: 10.1063/1.5090222
   * E. Caldeweyher, J.-M. Mewes, S. Ehlert and S. Grimme, Phys. Chem. Chem. Phys.
     2020, 22, 8499-8512. DOI: 10.1039/D0CP00502A
   
   for sTDA-xTB:
   * S. Grimme and C. Bannwarth, J. Chem. Phys., 2016, 145, 054103.
     DOI: 10.1063/1.4959605
   
   in the mass-spec context:
   * V. Asgeirsson, C. Bauer and S. Grimme, Chem. Sci., 2017, 8, 4879.
     DOI: 10.1039/c7sc00601b
   * J. Koopman and S. Grimme, ACS Omega 2019, 4, 12, 15120-15133.
     DOI: 10.1021/acsomega.9b02011
   
   for metadynamics refer to:
   * S. Grimme, J. Chem. Theory Comput., 2019, 155, 2847-2862
     DOI: 10.1021/acs.jctc.9b00143
   
   for SPH calculations refer to:
   * S. Spicher and S. Grimme, J. Chem. Theory Comput., 2021, 17, 1701-1714
     DOI: 10.1021/acs.jctc.0c01306
   
   for ONIOM refer to:
   * C. Plett, A. Katbashev, S. Ehlert, S. Grimme, M. Bursch,
     Phys. Chem. Chem. Phys., 2023, 25, 17860-17868. DOI: 10.1039/D3CP02178E
   
   for DIPRO refer to:
   * J. Kohn, N. Gildemeister, S. Grimme, D. Fazzi, A. Hansen,
     J. Chem. Phys., 2023, just accepted.
   
   for PTB refer to:
   * S. Grimme, M. Mueller, A. Hansen, J. Chem. Phys., 2023, 158, 124111.
     DOI: 10.1063/5.0137838
   
   with help from (in alphabetical order)
   P. Atkinson, C. Bannwarth, F. Bohle, G. Brandenburg, E. Caldeweyher
   M. Checinski, S. Dohm, S. Ehlert, S. Ehrlich, I. Gerasimov, C. Hölzer
   A. Katbashev, J. Kohn, J. Koopman, C. Lavigne, S. Lehtola, F. März, M. Müller,
   F. Musil, H. Neugebauer, J. Pisarek, C. Plett, P. Pracht, F. Pultar,
   J. Seibert, P. Shushkov, S. Spicher, M. Stahn, M. Steiner, T. Strunk,
   J. Stückrath, T. Rose, and J. Unsleber
   
 * started run on 2025/04/15 at 20:09:03.521     
   ID    Z sym.   atoms
    1    6 C      1, 2, 4-7, 9
    2    8 O      3
    3    7 N      8
    4    1 H      10-16

           -------------------------------------------------
          |                Calculation Setup                |
           -------------------------------------------------

          program call               : /software/projects/pawsey0265/mwang1/xtb/bin/xtb xtb_rrho.coord --gfn2 --bhess vtight --chrg 0 --enso --norestart -I rrho-xcontrol-inp --parallel 1
          hostname                   : nid002793
          coordinate file            : xtb_rrho.coord
          omp threads                :                     1


           -------------------------------------------------
          |                 G F N 2 - x T B                 |
           -------------------------------------------------

        Reference                      10.1021/acs.jctc.8b01176
      * Hamiltonian:
        H0-scaling (s, p, d)           1.850000    2.230000    2.230000
        zeta-weighting                 0.500000
      * Dispersion:
        s8                             2.700000
        a1                             0.520000
        a2                             5.000000
        s9                             5.000000
      * Repulsion:
        kExp                           1.500000    1.000000
        rExp                           1.000000
      * Coulomb:
        alpha                          2.000000
        third order                    shell-resolved
        anisotropic                    true
        a3                             3.000000
        a5                             4.000000
        cn-shift                       1.200000
        cn-exp                         4.000000
        max-rad                        5.000000


          ...................................................
          :                      SETUP                      :
          :.................................................:
          :  # basis functions                  43          :
          :  # atomic orbitals                  43          :
          :  # shells                           25          :
          :  # electrons                        46          :
          :  max. iterations                   250          :
          :  Hamiltonian                  GFN2-xTB          :
          :  restarted?                      false          :
          :  GBSA solvation                  false          :
          :  PC potential                    false          :
          :  electronic temp.          300.0000000     K    :
          :  accuracy                    1.0000000          :
          :  -> integral cutoff          0.2500000E+02      :
          :  -> integral neglect         0.1000000E-07      :
          :  -> SCF convergence          0.1000000E-05 Eh   :
          :  -> wf. convergence          0.1000000E-03 e    :
          :  Broyden damping             0.4000000          :
          :  net charge                          0          :
          :  unpaired electrons                  0          :
          ...................................................

 iter      E             dE          RMSdq      gap      omega  full diag
   1    -25.8335249 -0.258335E+02  0.460E+00    2.53       0.0  T
   2    -25.8703776 -0.368526E-01  0.254E+00    2.45       1.0  T
   3    -25.8702615  0.116075E-03  0.147E+00    2.52       1.0  T
   4    -25.8783067 -0.804519E-02  0.231E-01    2.24       1.0  T
   5    -25.8788802 -0.573495E-03  0.107E-01    2.31       1.0  T
   6    -25.8790142 -0.134019E-03  0.430E-02    2.30       1.0  T
   7    -25.8790212 -0.695563E-05  0.202E-02    2.30       1.2  T
   8    -25.8790218 -0.671247E-06  0.712E-03    2.30       3.5  T
   9    -25.8790220 -0.160825E-06  0.285E-03    2.30       8.8  T
  10    -25.8790221 -0.808109E-07  0.106E-03    2.30      23.6  T
  11    -25.8790221 -0.183033E-08  0.471E-04    2.30      53.1  T
  12    -25.8790221 -0.104136E-08  0.124E-04    2.30     201.8  T

   *** convergence criteria satisfied after 12 iterations ***

         #    Occupation            Energy/Eh            Energy/eV
      -------------------------------------------------------------
         1        2.0000           -0.7115741             -19.3629
       ...           ...                  ...                  ...
        17        2.0000           -0.4804226             -13.0730
        18        2.0000           -0.4782599             -13.0141
        19        2.0000           -0.4567905             -12.4299
        20        2.0000           -0.4517761             -12.2935
        21        2.0000           -0.4318754             -11.7519
        22        2.0000           -0.4087875             -11.1237
        23        2.0000           -0.3796602             -10.3311 (HOMO)
        24                         -0.2952398              -8.0339 (LUMO)
        25                         -0.2633661              -7.1666
        26                         -0.2191313              -5.9629
        27                         -0.1200644              -3.2671
        28                          0.0488374               1.3289
       ...                                ...                  ...
        43                          0.6237957              16.9743
      -------------------------------------------------------------
                  HL-Gap            0.0844204 Eh            2.2972 eV
             Fermi-level           -0.3374500 Eh           -9.1825 eV

 SCC (total)                   0 d,  0 h,  0 min,  0.045 sec
 SCC setup                      ...        0 min,  0.000 sec (  0.530%)
 Dispersion                     ...        0 min,  0.000 sec (  0.240%)
 classical contributions        ...        0 min,  0.000 sec (  0.075%)
 integral evaluation            ...        0 min,  0.002 sec (  3.354%)
 iterations                     ...        0 min,  0.025 sec ( 54.629%)
 molecular gradient             ...        0 min,  0.019 sec ( 40.803%)
 printout                       ...        0 min,  0.000 sec (  0.315%)

         :::::::::::::::::::::::::::::::::::::::::::::::::::::
         ::                     SUMMARY                     ::
         :::::::::::::::::::::::::::::::::::::::::::::::::::::
         :: total energy             -25.512284515961 Eh    ::
         :: gradient norm              0.030847048812 Eh/a0 ::
         :: HOMO-LUMO gap              2.297195179872 eV    ::
         ::.................................................::
         :: SCC energy               -25.879001202378 Eh    ::
         :: -> isotropic ES            0.032986090884 Eh    ::
         :: -> anisotropic ES          0.002538430590 Eh    ::
         :: -> anisotropic XC          0.018344132576 Eh    ::
         :: -> dispersion             -0.012322817753 Eh    ::
         :: repulsion energy           0.366716686418 Eh    ::
         :: add. restraining           0.000000000000 Eh    ::
         :: total charge               0.000000000000 e     ::
         :::::::::::::::::::::::::::::::::::::::::::::::::::::

metadynamics with 1 initial structures loaded
           -------------------------------------------------
          |           Optimal kpush determination           |
           -------------------------------------------------
      ----------------------------------------------------------- 
     |                   =====================                   |
     |                        A N C O P T                        |
     |                   =====================                   |
     |               Approximate Normal Coordinate               |
     |                Rational Function Optimizer                |
      ----------------------------------------------------------- 
target rmsd / Å         0.100000
unbiased initial rmsd   0.426859
 
iter. min.        max.        rmsd       kpush
      ----------------------------------------------------------- 
     |                   =====================                   |
     |                        A N C O P T                        |
     |                   =====================                   |
     |               Approximate Normal Coordinate               |
     |                Rational Function Optimizer                |
      ----------------------------------------------------------- 
 1    0.000000    0.727273    0.011161   -0.363636
      ----------------------------------------------------------- 
     |                   =====================                   |
     |                        A N C O P T                        |
     |                   =====================                   |
     |               Approximate Normal Coordinate               |
     |                Rational Function Optimizer                |
      ----------------------------------------------------------- 
 2    0.000000    0.363636    0.013986   -0.181818
      ----------------------------------------------------------- 
     |                   =====================                   |
     |                        A N C O P T                        |
     |                   =====================                   |
     |               Approximate Normal Coordinate               |
     |                Rational Function Optimizer                |
      ----------------------------------------------------------- 
 3    0.000000    0.181818    0.017269   -0.090909
      ----------------------------------------------------------- 
     |                   =====================                   |
     |                        A N C O P T                        |
     |                   =====================                   |
     |               Approximate Normal Coordinate               |
     |                Rational Function Optimizer                |
      ----------------------------------------------------------- 
 4    0.000000    0.090909    0.021909   -0.045455
      ----------------------------------------------------------- 
     |                   =====================                   |
     |                        A N C O P T                        |
     |                   =====================                   |
     |               Approximate Normal Coordinate               |
     |                Rational Function Optimizer                |
      ----------------------------------------------------------- 
 5    0.000000    0.045455    0.031330   -0.022727
      ----------------------------------------------------------- 
     |                   =====================                   |
     |                        A N C O P T                        |
     |                   =====================                   |
     |               Approximate Normal Coordinate               |
     |                Rational Function Optimizer                |
      ----------------------------------------------------------- 
 6    0.000000    0.022727    0.051506   -0.011364
      ----------------------------------------------------------- 
     |                   =====================                   |
     |                        A N C O P T                        |
     |                   =====================                   |
     |               Approximate Normal Coordinate               |
     |                Rational Function Optimizer                |
      ----------------------------------------------------------- 
 7    0.000000    0.011364    0.090922   -0.005682
      ----------------------------------------------------------- 
     |                   =====================                   |
     |                        A N C O P T                        |
     |                   =====================                   |
     |               Approximate Normal Coordinate               |
     |                Rational Function Optimizer                |
      ----------------------------------------------------------- 
 8    0.000000    0.005682    0.365899   -0.002841
      ----------------------------------------------------------- 
     |                   =====================                   |
     |                        A N C O P T                        |
     |                   =====================                   |
     |               Approximate Normal Coordinate               |
     |                Rational Function Optimizer                |
      ----------------------------------------------------------- 
 9    0.002841    0.005682    0.327773   -0.004261
      ----------------------------------------------------------- 
     |                   =====================                   |
     |                        A N C O P T                        |
     |                   =====================                   |
     |               Approximate Normal Coordinate               |
     |                Rational Function Optimizer                |
      ----------------------------------------------------------- 
10    0.004261    0.005682    0.300732   -0.004972
final kpush: -0.004972
           -------------------------------------------------
          |            Biased Numerical Hessian             |
           -------------------------------------------------
kpush                :  -0.00497
alpha                :   1.00000
step length          :   0.00500
SCC accuracy         :   0.30000
Hessian scale factor :   1.00000
frozen atoms in %    :   0.00000    0
RMS gradient         :   0.00013
estimated CPU  time      0.01 min
estimated wall time      0.01 min

writing file <hessian>.

 projected vibrational frequencies (cm⁻¹)
eigval :       -0.00    -0.00    -0.00     0.00     0.00     0.00
eigval :       43.42   109.12   134.57   208.04   323.51   357.12
eigval :      377.48   467.90   569.42   589.89   600.74   684.36
eigval :      756.87   779.35   904.28   920.81   926.52   974.21
eigval :      989.61  1003.17  1090.22  1097.50  1144.46  1192.43
eigval :     1241.55  1256.95  1285.05  1363.55  1394.89  1442.31
eigval :     1451.79  1465.60  1563.49  1568.70  1730.79  3011.56
eigval :     3052.79  3058.34  3060.92  3069.81  3078.34  3094.41
           -------------------------------------------------
          |                Property Printout                |
           -------------------------------------------------

    * Orbital Energies and Occupations

         #    Occupation            Energy/Eh            Energy/eV
      -------------------------------------------------------------
         1        2.0000           -0.7148641             -19.4524
       ...           ...                  ...                  ...
        11        2.0000           -0.5394949             -14.6804
        12        2.0000           -0.5331337             -14.5073
        13        2.0000           -0.5180871             -14.0979
        14        2.0000           -0.5127795             -13.9534
        15        2.0000           -0.5038906             -13.7116
        16        2.0000           -0.4900073             -13.3338
        17        2.0000           -0.4851600             -13.2019
        18        2.0000           -0.4795647             -13.0496
        19        2.0000           -0.4568007             -12.4302
        20        2.0000           -0.4525192             -12.3137
        21        2.0000           -0.4322545             -11.7622
        22        2.0000           -0.4084330             -11.1140
        23        2.0000           -0.3774116             -10.2699 (HOMO)
        24                         -0.2932786              -7.9805 (LUMO)
        25                         -0.2602253              -7.0811
        26                         -0.2159811              -5.8771
        27                         -0.1149011              -3.1266
        28                          0.0665944               1.8121
        29                          0.1008387               2.7440
        30                          0.1234324               3.3588
        31                          0.1502235               4.0878
        32                          0.1631644               4.4399
        33                          0.1687815               4.5928
        34                          0.1799182               4.8958
       ...                                ...                  ...
        43                          0.6565125              17.8646
      -------------------------------------------------------------
                  HL-Gap            0.0841329 Eh            2.2894 eV
             Fermi-level           -0.3353451 Eh           -9.1252 eV

     #   Z          covCN         q      C6AA      α(0)
     1   6 C        3.753    -0.137    23.192     6.867
     2   6 C        2.817     0.234    23.095     7.874
     3   8 O        0.858    -0.358    20.856     6.123
     4   6 C        2.966    -0.024    28.602     8.772
     5   6 C        2.929    -0.011    28.295     8.724
     6   6 C        2.913    -0.037    28.924     8.819
     7   6 C        2.916     0.065    26.548     8.449
     8   7 N        1.835    -0.206    26.315     7.602
     9   6 C        2.921     0.071    26.409     8.427
    10   1 H        0.925     0.072     2.061     2.245
    11   1 H        0.925     0.072     2.067     2.248
    12   1 H        0.925     0.056     2.246     2.343
    13   1 H        0.926     0.044     2.394     2.420
    14   1 H        0.926     0.043     2.410     2.428
    15   1 H        0.925     0.048     2.340     2.392
    16   1 H        0.925     0.067     2.114     2.273

 Mol. C6AA /au·bohr⁶  :       3136.978101
 Mol. C8AA /au·bohr⁸  :      75008.076689
 Mol. α(0) /au        :         88.007250


Wiberg/Mayer (AO) data.
largest (>0.10) Wiberg bond orders for each atom

 ---------------------------------------------------------------------------
     #   Z sym  total        # sym  WBO       # sym  WBO       # sym  WBO
 ---------------------------------------------------------------------------
     1   6 C    3.994 --     2 C    1.002    12 H    0.977    11 H    0.977
                            10 H    0.951
     2   6 C    3.925 --     3 O    1.834     4 C    1.016     1 C    1.002
     3   8 O    2.070 --     2 C    1.834
     4   6 C    3.988 --     5 C    1.393     9 C    1.365     2 C    1.016
                             7 C    0.108
     5   6 C    3.990 --     6 C    1.455     4 C    1.393    13 H    0.966
     6   6 C    3.992 --     5 C    1.455     7 C    1.418    14 H    0.969
                             9 C    0.111
     7   6 C    3.979 --     8 N    1.432     6 C    1.418    15 H    0.964
                             4 C    0.108
     8   7 N    3.071 --     9 C    1.460     7 C    1.432
     9   6 C    3.974 --     8 N    1.460     4 C    1.365    16 H    0.959
                             6 C    0.111
    10   1 H    0.994 --     1 C    0.951
    11   1 H    0.994 --     1 C    0.977
    12   1 H    0.997 --     1 C    0.977
    13   1 H    0.998 --     5 C    0.966
    14   1 H    0.998 --     6 C    0.969
    15   1 H    0.998 --     7 C    0.964
    16   1 H    0.995 --     9 C    0.959
 ---------------------------------------------------------------------------

Topologies differ in total number of bonds
Writing topology from bond orders to xtbtopo.mol

molecular dipole:
                 x           y           z       tot (Debye)
 q only:       -0.411       0.951       0.822
   full:       -0.291       1.386       1.115       4.581
molecular quadrupole (traceless):
                xx          xy          yy          xz          yz          zz
 q only:       -0.334       2.484       0.319       3.356       0.043       0.015
  q+dip:        0.046       1.288       0.888       3.000       0.573      -0.934
   full:       -1.496       1.342       0.650       2.698      -1.770       0.845

           -------------------------------------------------
          |                Geometry Summary                 |
           -------------------------------------------------

      molecular mass/u    :      121.1368447
   center of mass at/Å    :       -0.0044453      -0.0636931       0.0362021
  moments of inertia/u·Å² :        0.1330513E+03   0.4075771E+03   0.5324957E+03
rotational constants/cm⁻¹ :        0.1267003E+00   0.4136059E-01   0.3165778E-01

 * 14 selected distances

     #   Z          #   Z                                           value/Å
     2   6 C        3   8 O                                       1.2093585
     4   6 C        5   6 C                                       1.3939563
     5   6 C        6   6 C                                       1.3843566
     6   6 C        7   6 C                                       1.3879752
     7   6 C        8   7 N                                       1.3226832
     4   6 C        9   6 C                                       1.3988528 (max)
     8   7 N        9   6 C                                       1.3170098
     1   6 C       10   1 H                                       1.0896132
     1   6 C       11   1 H                                       1.0869687
     1   6 C       12   1 H                                       1.0852723
     5   6 C       13   1 H                                       1.0800748
     6   6 C       14   1 H                                       1.0790973 (min)
     7   6 C       15   1 H                                       1.0821403
     9   6 C       16   1 H                                       1.0819932

 * 4 distinct bonds (by element types)

   Z      Z             #   av. dist./Å        max./Å        min./Å
   1 H    6 C           7     1.0835942     1.0896132     1.0790973
   6 C    6 C           4     1.3912852     1.3988528     1.3843566
   6 C    7 N           2     1.3198465     1.3226832     1.3170098
   6 C    8 O           1     1.2093585     1.2093585     1.2093585

           -------------------------------------------------
          |               Frequency Printout                |
           -------------------------------------------------
 projected vibrational frequencies (cm⁻¹)
eigval :       -0.00    -0.00    -0.00     0.00     0.00     0.00
eigval :       43.42   109.12   134.57   208.04   323.51   357.12
eigval :      377.48   467.90   569.42   589.89   600.74   684.36
eigval :      756.87   779.35   904.28   920.81   926.52   974.21
eigval :      989.61  1003.17  1090.22  1097.50  1144.46  1192.43
eigval :     1241.55  1256.95  1285.05  1363.55  1394.89  1442.31
eigval :     1451.79  1465.60  1563.49  1568.70  1730.79  3011.56
eigval :     3052.79  3058.34  3060.92  3069.81  3078.34  3094.41
 reduced masses (amu)
   1: 12.57   2: 12.48   3: 11.72   4: 10.99   5: 11.29   6: 12.02   7: 11.18   8:  2.61
   9: 10.57  10: 10.54  11:  9.16  12: 10.88  13: 10.97  14: 11.49  15: 10.49  16: 10.17
  17: 11.72  18:  8.96  19: 11.21  20:  4.76  21:  3.43  22:  4.10  23:  4.12  24:  7.43
  25:  8.42  26:  8.19  27:  9.86  28:  5.77  29:  3.60  30:  2.59  31:  9.58  32:  4.01
  33: 11.51  34:  3.24  35:  9.73  36:  9.18  37:  1.69  38:  1.86  39: 11.55  40: 11.89
  41: 13.42  42:  1.75  43:  1.46  44:  1.94  45:  1.79  46:  1.81  47:  1.80  48:  1.89
 IR intensities (km·mol⁻¹)
   1:  5.06   2:  0.72   3:  0.30   4:  1.11   5:  0.48   6:  0.50   7:  2.08   8:  0.59
   9:  1.35  10:  2.20  11:  1.01  12:  1.09  13:  5.50  14:  1.21  15:  7.58  16:  6.02
  17:  6.30  18: 17.28  19:  8.13  20:  7.46  21:  1.61  22:  1.04  23:  0.84  24: 39.44
  25: 23.63  26:  2.83  27: 29.25  28: 24.56  29:  0.78  30: 15.91  31:151.74  32:  2.58
  33: 17.85  34: 28.79  35: 12.31  36: 11.71  37: 10.53  38:  6.71  39: 42.31  40: 78.00
  41:297.38  42:  4.68  43:  4.19  44: 17.81  45: 15.86  46:  4.74  47: 14.29  48: 36.86
 Raman intensities (Ä⁴*amu⁻¹)
   1:  0.00   2:  0.00   3:  0.00   4:  0.00   5:  0.00   6:  0.00   7:  0.00   8:  0.00
   9:  0.00  10:  0.00  11:  0.00  12:  0.00  13:  0.00  14:  0.00  15:  0.00  16:  0.00
  17:  0.00  18:  0.00  19:  0.00  20:  0.00  21:  0.00  22:  0.00  23:  0.00  24:  0.00
  25:  0.00  26:  0.00  27:  0.00  28:  0.00  29:  0.00  30:  0.00  31:  0.00  32:  0.00
  33:  0.00  34:  0.00  35:  0.00  36:  0.00  37:  0.00  38:  0.00  39:  0.00  40:  0.00
  41:  0.00  42:  0.00  43:  0.00  44:  0.00  45:  0.00  46:  0.00  47:  0.00  48:  0.00
 output can be read by thermo (or use thermo option).
 writing <g98.out> molden fake output.
 recommended (thermochemical) frequency scaling factor: 1.0
           -------------------------------------------------
          |             Thermodynamic Functions             |
           -------------------------------------------------

Molecule has no symmetry elements
It seems to be the C1 point group
c1  symmetry found (for desy threshold:  0.10E+00) used in thermo

          ...................................................
          :                      SETUP                      :
          :.................................................:
          :  # frequencies                          42      :
          :  # imaginary freq.                       0      :
          :  linear?                             false      :
          :  only rotor calc.                    false      :
          :  symmetry                               c1      :
          :  rotational number                       1      :
          :  scaling factor                  1.0000000      :
          :  rotor cutoff                    0.0000000 cm⁻¹ :
          :  imag. cutoff                 -100.0000000 cm⁻¹ :
          :.................................................:

    mode    ω/cm⁻¹     T·S(HO)/kcal·mol⁻¹    T·S(FR)/kcal·mol⁻¹   T·S(vib)
   ------------------------------------------------------------------------
       1     43.42    -1.51949 (100.00%)    -1.09800 (  0.00%)    -1.51949
       2    109.12    -0.97926 (100.00%)    -0.82522 (  0.00%)    -0.97926
       3    134.57    -0.85857 (100.00%)    -0.76315 (  0.00%)    -0.85857
       4    208.04    -0.61443 (100.00%)    -0.63413 (  0.00%)    -0.61443
   ------------------------------------------------------------------------

   temp. (K)  partition function   enthalpy   heat capacity  entropy
                                   cal/mol     cal/K/mol   cal/K/mol   J/K/mol
 298.15  VIB   126.                 3356.286     23.923     20.867
         ROT  0.411E+06              888.752      2.981     28.666
         INT  0.517E+08             4245.038     26.904     49.533
         TR   0.129E+28             1481.254      4.968     40.271
         TOT                        5726.2918    31.8718    89.8045   375.7420

       T/K    H(0)-H(T)+PV         H(T)/Eh          T*S/Eh         G(T)/Eh
   ------------------------------------------------------------------------
    298.15    0.912543E-02    0.130861E+00    0.426690E-01    0.881923E-01
   ------------------------------------------------------------------------

         :::::::::::::::::::::::::::::::::::::::::::::::::::::
         ::                  THERMODYNAMIC                  ::
         :::::::::::::::::::::::::::::::::::::::::::::::::::::
         :: total free energy         -25.430744492826 Eh   ::
         ::.................................................::
         :: total energy              -25.518936774670 Eh   ::
         :: zero point energy           0.121735863168 Eh   ::
         :: G(RRHO) w/o ZPVE           -0.033543581324 Eh   ::
         :: G(RRHO) contrib.            0.088192281844 Eh   ::
         :::::::::::::::::::::::::::::::::::::::::::::::::::::

optimized geometry written to: xtbopt.coord


           -------------------------------------------------
          | TOTAL ENERGY              -25.518936774670 Eh   |
          | TOTAL ENTHALPY            -25.388075484616 Eh   |
          | TOTAL FREE ENERGY         -25.430744492826 Eh   |
          | GRADIENT NORM               0.000126822207 Eh/α |
          | HOMO-LUMO GAP               2.289373039549 eV   |
           -------------------------------------------------

------------------------------------------------------------------------
 * finished run on 2025/04/15 at 20:09:06.706     
------------------------------------------------------------------------
 total:
 * wall-time:     0 d,  0 h,  0 min,  3.184 sec
 *  cpu-time:     0 d,  0 h,  0 min,  3.121 sec
 * ratio c/w:     0.980 speedup
 SCF:
 * wall-time:     0 d,  0 h,  0 min,  0.046 sec
 *  cpu-time:     0 d,  0 h,  0 min,  0.023 sec
 * ratio c/w:     0.502 speedup
 analytical hessian:
 * wall-time:     0 d,  0 h,  0 min,  0.637 sec
 *  cpu-time:     0 d,  0 h,  0 min,  0.635 sec
 * ratio c/w:     0.998 speedup

