 Entering Gaussian System
 *********************************************
 Gaussian 98:
 frequency output generated by the xtb code
 *********************************************
                         Standard orientation:
 --------------------------------------------------------------------
  Center     Atomic     Atomic              Coordinates (Angstroms)
  Number     Number      Type              X           Y           Z
 --------------------------------------------------------------------
    1          6             0       -1.581089    0.902244    0.273816
    2          6             0       -1.331712   -0.511658   -0.233316
    3          6             0        0.081010   -0.997253   -0.390161
    4          6             0        1.266526   -0.460449   -0.141837
    5          6             0        1.651150    0.874731    0.409038
    6          1             0       -1.091055    1.635802   -0.360996
    7          1             0       -1.235324    1.018586    1.297831
    8          1             0       -2.651264    1.104209    0.259130
    9          1             0       -1.842959   -1.217554    0.431529
   10          1             0       -1.808328   -0.615671   -1.215060
   11          1             0        0.090624   -2.002876   -0.800317
   12          1             0        2.131012   -1.071121   -0.381866
   13          1             0        0.817554    1.424754    0.823857
   14          1             0        2.107125    1.474926   -0.380006
   15          1             0        2.401588    0.739456    1.187976
 --------------------------------------------------------------------
     1 basis functions        1 primitive gaussians
     1 alpha electrons        1 beta electrons
 
 Harmonic frequencies (cm**-1), IR intensities (km*mol⁻¹),
 Raman scattering activities (A**4/amu), Raman depolarization ratios,
 reduced masses (AMU), force constants (mDyne/A) and normal coordinates:
                      1                      2                      3
                        a                      a                      a 
 Frequencies --   -24.3113                49.2423               255.0935
 Red. masses --     2.0502                 5.7935                 8.8840
 Frc consts  --     0.0000                 0.0000                 0.0000
 IR Inten    --     0.1159                 0.7279                 0.3141
 Raman Activ --     0.0000                 0.0000                 0.0000
 Depolar     --     0.0000                 0.0000                 0.0000
 Atom AN      X      Y      Z        X      Y      Z        X      Y      Z
   1   6     0.10   0.08  -0.17     0.03  -0.09   0.26    -0.62  -0.01  -0.05
   2   6     0.01  -0.04   0.12     0.01   0.14  -0.38    -0.03   0.07   0.01
   3   6     0.00  -0.02  -0.03    -0.00  -0.09   0.19     0.05   0.19   0.07
   4   6    -0.00  -0.01  -0.04    -0.01  -0.11   0.24     0.18  -0.06   0.02
   5   6    -0.10  -0.04   0.13    -0.02   0.11  -0.26     0.48  -0.13  -0.02
   6   1     0.13  -0.03  -0.03     0.04   0.06   0.20    -0.24   0.05  -0.00
   7   1    -0.07   0.05  -0.02    -0.03  -0.18   0.10    -0.21   0.06  -0.01
   8   1     0.04   0.08  -0.16     0.01  -0.01   0.06    -0.20  -0.13  -0.04
   9   1     0.03   0.03   0.10    -0.15  -0.03  -0.30     0.02  -0.02  -0.01
  10   1    -0.04  -0.07   0.06     0.16   0.22  -0.21     0.02  -0.03  -0.01
  11   1     0.00   0.01  -0.05    -0.00  -0.06   0.15    -0.01   0.05   0.02
  12   1     0.00   0.03  -0.08    -0.00  -0.08   0.18     0.00  -0.07  -0.02
  13   1     0.03  -0.26   0.49     0.02  -0.02   0.05     0.16  -0.06   0.09
  14   1    -0.50   0.22  -0.06    -0.21   0.03  -0.19     0.04  -0.02  -0.04
  15   1     0.33   0.02  -0.31     0.15   0.14  -0.21     0.22  -0.06  -0.09
                      4                      5                      6
                        a                      a                      a 
 Frequencies --   312.7237               313.8078               384.3774
 Red. masses --     3.3822                 8.4987                 6.4775
 Frc consts  --     0.0000                 0.0000                 0.0000
 IR Inten    --     0.3684                 2.1232                 0.0059
 Raman Activ --     0.0000                 0.0000                 0.0000
 Depolar     --     0.0000                 0.0000                 0.0000
 Atom AN      X      Y      Z        X      Y      Z        X      Y      Z
   1   6     0.09  -0.04  -0.05    -0.17   0.23   0.08    -0.01  -0.03   0.07
   2   6    -0.06  -0.03  -0.09     0.31   0.26   0.10    -0.01  -0.05   0.10
   3   6    -0.04   0.10  -0.24     0.20  -0.08  -0.10     0.01   0.19  -0.46
   4   6    -0.08  -0.06   0.33     0.26  -0.31  -0.03    -0.02  -0.16   0.42
   5   6     0.05   0.03   0.04    -0.41  -0.14  -0.07     0.02   0.05  -0.13
   6   1    -0.34   0.01  -0.28    -0.21   0.14  -0.01     0.22  -0.03   0.17
   7   1     0.46   0.09  -0.18    -0.04   0.15   0.01    -0.24  -0.08   0.11
   8   1    -0.01  -0.14   0.46    -0.09  -0.12   0.07     0.02   0.10  -0.25
   9   1     0.07  -0.01   0.05     0.11   0.07   0.04     0.16  -0.02   0.15
  10   1    -0.11  -0.05   0.03     0.06   0.06   0.04    -0.17  -0.10   0.12
  11   1     0.01   0.04  -0.09    -0.04  -0.02  -0.03     0.01   0.08  -0.19
  12   1    -0.03  -0.04   0.15     0.10  -0.07   0.03    -0.01  -0.08   0.19
  13   1     0.06   0.04   0.07    -0.24  -0.17  -0.10     0.01   0.09  -0.13
  14   1    -0.10  -0.03  -0.09    -0.16   0.01  -0.00     0.00  -0.13  -0.15
  15   1     0.12   0.07  -0.08    -0.16   0.11   0.04     0.01   0.15  -0.02
                      7                      8                      9
                        a                      a                      a 
 Frequencies --   664.5015               701.1205               829.4462
 Red. masses --     8.5379                 2.0900                 2.9251
 Frc consts  --     0.0000                 0.0000                 0.0000
 IR Inten    --     0.9838                21.1890                 0.7376
 Raman Activ --     0.0000                 0.0000                 0.0000
 Depolar     --     0.0000                 0.0000                 0.0000
 Atom AN      X      Y      Z        X      Y      Z        X      Y      Z
   1   6    -0.06   0.13   0.04     0.00  -0.00  -0.01    -0.00   0.06  -0.11
   2   6     0.35   0.08   0.04    -0.01  -0.06   0.17    -0.02   0.09  -0.26
   3   6     0.00  -0.53  -0.20     0.00  -0.02   0.12     0.01  -0.10   0.25
   4   6    -0.40   0.16   0.06     0.01  -0.08   0.20     0.02  -0.03   0.06
   5   6     0.06   0.11   0.05    -0.02  -0.02   0.01    -0.01  -0.02   0.04
   6   1    -0.12   0.14   0.05     0.01  -0.11  -0.13    -0.04   0.29   0.26
   7   1    -0.12   0.12   0.04     0.00   0.16  -0.02     0.04  -0.40   0.01
   8   1    -0.06  -0.18  -0.07     0.00   0.01  -0.05    -0.01  -0.01   0.13
   9   1     0.04   0.07   0.02    -0.23  -0.09  -0.21     0.11   0.25   0.27
  10   1     0.05   0.06   0.03     0.23   0.20  -0.10    -0.13  -0.36   0.04
  11   1     0.04  -0.14  -0.07     0.02   0.21  -0.49     0.02   0.09  -0.21
  12   1    -0.04   0.14   0.03     0.02   0.20  -0.46     0.02   0.14  -0.32
  13   1     0.19   0.23   0.11     0.00   0.07  -0.09     0.00   0.04  -0.04
  14   1     0.08  -0.09  -0.04    -0.04  -0.17  -0.15    -0.03  -0.10  -0.08
  15   1     0.08  -0.14  -0.08     0.03   0.16  -0.01     0.02   0.10   0.00
                     10                     11                     12
                        a                      a                      a 
 Frequencies --   847.7262               955.2965               976.4591
 Red. masses --     9.5304                 2.9765                 5.7955
 Frc consts  --     0.0000                 0.0000                 0.0000
 IR Inten    --     1.9795                 1.1337                24.6010
 Raman Activ --     0.0000                 0.0000                 0.0000
 Depolar     --     0.0000                 0.0000                 0.0000
 Atom AN      X      Y      Z        X      Y      Z        X      Y      Z
   1   6     0.18  -0.29  -0.11     0.05  -0.04  -0.01    -0.20   0.19   0.07
   2   6     0.42   0.13   0.05     0.02   0.02   0.01    -0.02  -0.11  -0.05
   3   6    -0.19   0.46   0.18    -0.06  -0.12   0.26     0.26   0.07   0.10
   4   6    -0.24   0.11   0.04    -0.02   0.07  -0.27     0.03   0.23  -0.01
   5   6    -0.16  -0.26  -0.11     0.07   0.05   0.03    -0.31  -0.31  -0.09
   6   1    -0.05   0.01   0.01    -0.02   0.01  -0.00     0.10  -0.08  -0.02
   7   1    -0.05  -0.04  -0.00    -0.03   0.02   0.01     0.10  -0.02  -0.02
   8   1     0.01  -0.28  -0.10     0.00  -0.07  -0.03     0.00   0.32   0.11
   9   1     0.14   0.01   0.01    -0.01   0.03   0.02     0.08  -0.11  -0.03
  10   1     0.14  -0.02   0.00    -0.02   0.00   0.01     0.06  -0.09  -0.03
  11   1    -0.07   0.12   0.06    -0.01   0.24  -0.60     0.19   0.07  -0.08
  12   1    -0.14  -0.04  -0.03    -0.05  -0.28   0.55     0.10   0.11   0.22
  13   1     0.02  -0.01   0.00    -0.04  -0.04  -0.04     0.15   0.19   0.08
  14   1    -0.01  -0.12  -0.05    -0.03   0.06   0.01     0.03  -0.28  -0.11
  15   1    -0.02  -0.15  -0.07     0.01   0.09   0.03     0.03  -0.30  -0.17
                     13                     14                     15
                        a                      a                      a 
 Frequencies --  1043.2021              1055.7603              1083.6039
 Red. masses --     4.4270                 6.4632                 4.8358
 Frc consts  --     0.0000                 0.0000                 0.0000
 IR Inten    --     2.6528                 3.2330                 2.2608
 Raman Activ --     0.0000                 0.0000                 0.0000
 Depolar     --     0.0000                 0.0000                 0.0000
 Atom AN      X      Y      Z        X      Y      Z        X      Y      Z
   1   6     0.00  -0.10   0.03    -0.17  -0.26  -0.13    -0.26   0.06   0.09
   2   6    -0.01   0.11  -0.05     0.10   0.32   0.15     0.35   0.02  -0.11
   3   6    -0.03  -0.01  -0.00    -0.07  -0.03  -0.01    -0.09  -0.09   0.04
   4   6     0.05   0.04  -0.32     0.12  -0.33  -0.08    -0.26   0.07   0.04
   5   6    -0.01  -0.08   0.41    -0.13   0.31   0.04     0.19  -0.02  -0.00
   6   1     0.02  -0.10  -0.06     0.13  -0.19  -0.04     0.16  -0.22  -0.09
   7   1    -0.01   0.06  -0.00     0.14  -0.23  -0.08     0.14  -0.02  -0.04
   8   1     0.00  -0.01  -0.05     0.01   0.18   0.07     0.01   0.40   0.11
   9   1     0.10  -0.02   0.01     0.05   0.03   0.00     0.32  -0.18  -0.04
  10   1    -0.11   0.06   0.04     0.11   0.01   0.01     0.09  -0.13  -0.01
  11   1    -0.08  -0.09   0.21    -0.32   0.01  -0.06    -0.05  -0.01  -0.02
  12   1     0.03  -0.01   0.04     0.10  -0.00   0.01    -0.18  -0.09  -0.12
  13   1     0.04   0.23  -0.14     0.18   0.29   0.18    -0.15  -0.22  -0.11
  14   1    -0.17  -0.41  -0.31     0.10   0.04   0.06    -0.07   0.11   0.03
  15   1     0.17   0.43   0.01     0.00  -0.17  -0.06    -0.03   0.19   0.11
                     16                     17                     18
                        a                      a                      a 
 Frequencies --  1096.1528              1148.3232              1264.2060
 Red. masses --     4.8619                 8.1228                 2.4607
 Frc consts  --     0.0000                 0.0000                 0.0000
 IR Inten    --     0.2320                11.0121                 0.1544
 Raman Activ --     0.0000                 0.0000                 0.0000
 Depolar     --     0.0000                 0.0000                 0.0000
 Atom AN      X      Y      Z        X      Y      Z        X      Y      Z
   1   6     0.06  -0.13   0.24    -0.08  -0.35  -0.12    -0.03  -0.10   0.29
   2   6    -0.09   0.17  -0.39    -0.13   0.44   0.16     0.04   0.04  -0.16
   3   6     0.01  -0.07   0.23     0.19  -0.19  -0.07    -0.00   0.05  -0.10
   4   6     0.08  -0.07   0.08    -0.03   0.31   0.13    -0.00  -0.01  -0.02
   5   6    -0.06   0.05  -0.09     0.09  -0.24  -0.10    -0.00   0.00   0.02
   6   1     0.00  -0.23  -0.18     0.07  -0.17  -0.06     0.02  -0.22  -0.14
   7   1    -0.08   0.37   0.04     0.06  -0.16  -0.05    -0.01   0.26   0.04
   8   1     0.01  -0.08  -0.16     0.01   0.05   0.01     0.01   0.04  -0.08
   9   1     0.32  -0.05   0.08    -0.13   0.23   0.09    -0.34   0.48   0.19
  10   1    -0.42   0.06   0.10    -0.13   0.22   0.08     0.31  -0.47  -0.14
  11   1     0.00   0.04  -0.09     0.13  -0.04  -0.01     0.02  -0.01   0.02
  12   1     0.06   0.10  -0.14     0.07   0.16   0.07    -0.02  -0.04   0.03
  13   1     0.05   0.04   0.08    -0.12  -0.23  -0.10     0.00   0.02  -0.01
  14   1     0.07   0.05   0.06    -0.04   0.01  -0.01    -0.01  -0.00  -0.00
  15   1    -0.03  -0.15  -0.03    -0.02   0.03   0.03     0.01   0.01  -0.00
                     19                     20                     21
                        a                      a                      a 
 Frequencies --  1313.2816              1367.7543              1378.9922
 Red. masses --     1.8572                 4.8211                 3.4792
 Frc consts  --     0.0000                 0.0000                 0.0000
 IR Inten    --     1.4529                 1.8306                12.3579
 Raman Activ --     0.0000                 0.0000                 0.0000
 Depolar     --     0.0000                 0.0000                 0.0000
 Atom AN      X      Y      Z        X      Y      Z        X      Y      Z
   1   6     0.10   0.04   0.03     0.12   0.05   0.03    -0.06   0.07   0.02
   2   6    -0.14   0.02  -0.00    -0.38   0.38   0.13     0.09   0.02   0.01
   3   6    -0.04  -0.04  -0.02     0.09  -0.11  -0.04    -0.28   0.08   0.03
   4   6    -0.02   0.10   0.04    -0.03  -0.02  -0.01    -0.09  -0.23  -0.09
   5   6     0.11  -0.12  -0.05    -0.02   0.04   0.02     0.02  -0.21  -0.08
   6   1    -0.05   0.04  -0.01    -0.02  -0.06  -0.11     0.08  -0.07  -0.01
   7   1    -0.05   0.04   0.03    -0.03  -0.12   0.03     0.09  -0.07  -0.02
   8   1     0.01  -0.07  -0.03    -0.01  -0.22  -0.08    -0.03  -0.10  -0.05
   9   1     0.14  -0.18  -0.06     0.31  -0.29  -0.08     0.01  -0.00  -0.01
  10   1     0.19  -0.23  -0.08     0.34  -0.31  -0.13     0.00  -0.00   0.01
  11   1    -0.57  -0.01  -0.03     0.31  -0.02  -0.00     0.46   0.02   0.02
  12   1     0.37   0.47   0.21    -0.14  -0.17  -0.08     0.29   0.33   0.14
  13   1    -0.06  -0.13  -0.05     0.00   0.02   0.01     0.17   0.19   0.04
  14   1    -0.03   0.03  -0.00     0.00  -0.02  -0.01     0.01   0.27   0.21
  15   1    -0.01   0.03   0.03     0.00  -0.02  -0.01     0.00   0.34   0.07
                     22                     23                     24
                        a                      a                      a 
 Frequencies --  1409.6368              1410.6925              1474.1772
 Red. masses --     3.8386                 3.4788                 1.9145
 Frc consts  --     0.0000                 0.0000                 0.0000
 IR Inten    --    14.4286                 6.0925                 1.3917
 Raman Activ --     0.0000                 0.0000                 0.0000
 Depolar     --     0.0000                 0.0000                 0.0000
 Atom AN      X      Y      Z        X      Y      Z        X      Y      Z
   1   6     0.05  -0.26  -0.09    -0.07   0.30   0.10    -0.01   0.03   0.03
   2   6     0.00   0.07   0.03     0.11  -0.06  -0.02    -0.16  -0.20  -0.08
   3   6    -0.18   0.05   0.02    -0.11   0.05   0.02     0.02   0.02   0.01
   4   6    -0.07  -0.20  -0.09    -0.01  -0.09  -0.04    -0.04  -0.03  -0.00
   5   6     0.12   0.25   0.08     0.11   0.24   0.08     0.04  -0.02   0.04
   6   1    -0.12   0.21   0.17     0.15  -0.29  -0.24    -0.03  -0.03  -0.06
   7   1    -0.11   0.28  -0.01     0.10  -0.36   0.02     0.01  -0.08   0.01
   8   1     0.06   0.31   0.13    -0.07  -0.32  -0.10    -0.00   0.01  -0.05
   9   1     0.09  -0.03   0.02    -0.09   0.05  -0.02     0.35   0.21   0.50
  10   1     0.10  -0.01  -0.03    -0.09   0.03   0.05     0.36   0.48  -0.23
  11   1     0.36   0.01   0.01     0.10   0.01   0.01    -0.03   0.00  -0.00
  12   1     0.18   0.19   0.09     0.13   0.13   0.06     0.01   0.01  -0.00
  13   1    -0.15  -0.21  -0.01    -0.18  -0.24  -0.03    -0.01   0.10  -0.15
  14   1    -0.07  -0.19  -0.21    -0.08  -0.22  -0.22    -0.13   0.11   0.01
  15   1    -0.07  -0.25   0.04    -0.06  -0.30   0.02     0.01  -0.09  -0.02
                     25                     26                     27
                        a                      a                      a 
 Frequencies --  1477.5297              1486.7824              1514.7555
 Red. masses --     1.5921                 1.6538                 1.5677
 Frc consts  --     0.0000                 0.0000                 0.0000
 IR Inten    --     5.9759                 0.7123                 0.5488
 Raman Activ --     0.0000                 0.0000                 0.0000
 Depolar     --     0.0000                 0.0000                 0.0000
 Atom AN      X      Y      Z        X      Y      Z        X      Y      Z
   1   6    -0.04   0.02  -0.05     0.06   0.02  -0.00    -0.01   0.06  -0.20
   2   6    -0.06  -0.05  -0.03     0.03  -0.02  -0.01    -0.01   0.02  -0.03
   3   6     0.01  -0.00  -0.01    -0.09  -0.01  -0.00     0.00  -0.00   0.00
   4   6    -0.01   0.03  -0.03    -0.00  -0.02   0.00     0.00  -0.00   0.01
   5   6    -0.06   0.06  -0.18    -0.18   0.07   0.09     0.02  -0.03   0.06
   6   1     0.19  -0.05   0.09    -0.10  -0.05  -0.14     0.45  -0.18   0.12
   7   1    -0.00   0.10  -0.02    -0.17  -0.11   0.07    -0.33   0.20   0.08
   8   1    -0.03  -0.14   0.15     0.02   0.09   0.08    -0.06  -0.27   0.62
   9   1     0.10   0.07   0.15     0.03   0.02   0.04     0.00   0.01   0.00
  10   1     0.12   0.12  -0.08     0.03   0.04  -0.02     0.00  -0.03  -0.01
  11   1    -0.03  -0.00   0.01     0.05  -0.00  -0.00    -0.00   0.00  -0.00
  12   1    -0.01  -0.01   0.02     0.04   0.05   0.02    -0.00  -0.00  -0.01
  13   1     0.10  -0.28   0.57    -0.22  -0.21  -0.12    -0.03   0.10  -0.19
  14   1     0.31  -0.31  -0.07     0.52  -0.10   0.23    -0.10   0.10   0.02
  15   1    -0.17   0.32   0.20     0.45   0.13  -0.42     0.05  -0.09  -0.06
                     28                     29                     30
                        a                      a                      a 
 Frequencies --  1522.9600              1754.9231              2915.4570
 Red. masses --     1.5698                11.5600                 1.9501
 Frc consts  --     0.0000                 0.0000                 0.0000
 IR Inten    --     3.1929                 8.9490                41.5629
 Raman Activ --     0.0000                 0.0000                 0.0000
 Depolar     --     0.0000                 0.0000                 0.0000
 Atom AN      X      Y      Z        X      Y      Z        X      Y      Z
   1   6    -0.19  -0.04   0.01    -0.01   0.00   0.00    -0.00   0.00  -0.01
   2   6    -0.06   0.01   0.01     0.08  -0.00   0.00    -0.01  -0.10   0.27
   3   6    -0.02  -0.02  -0.01    -0.65  -0.21  -0.10    -0.00  -0.00   0.01
   4   6     0.01   0.01   0.01     0.57   0.35   0.15     0.00  -0.00   0.00
   5   6    -0.05   0.04   0.07    -0.05  -0.07  -0.03    -0.00   0.00  -0.00
   6   1     0.33   0.12   0.41    -0.00  -0.00  -0.00    -0.02  -0.03   0.02
   7   1     0.54   0.28  -0.22    -0.01  -0.00   0.00     0.02   0.01   0.04
   8   1    -0.05  -0.24  -0.24     0.00   0.02   0.01     0.01   0.00  -0.00
   9   1     0.04  -0.03   0.01     0.07  -0.02   0.02     0.33   0.44  -0.40
  10   1     0.04  -0.01  -0.02     0.07  -0.00  -0.03    -0.30  -0.07  -0.59
  11   1    -0.00  -0.00  -0.00     0.06  -0.07  -0.03    -0.00   0.00  -0.00
  12   1     0.00  -0.00  -0.00     0.02  -0.09  -0.03    -0.00   0.00  -0.00
  13   1    -0.13  -0.08  -0.16     0.03   0.03   0.01    -0.00   0.00   0.00
  14   1     0.10  -0.01   0.05    -0.03  -0.03  -0.04    -0.00  -0.01   0.01
  15   1     0.16  -0.06  -0.17    -0.03  -0.07   0.01     0.01  -0.00   0.00
                     31                     32                     33
                        a                      a                      a 
 Frequencies --  2940.9397              2984.9810              3006.8648
 Red. masses --     1.4849                 1.8524                 1.6127
 Frc consts  --     0.0000                 0.0000                 0.0000
 IR Inten    --    39.8141                35.3721                10.8919
 Raman Activ --     0.0000                 0.0000                 0.0000
 Depolar     --     0.0000                 0.0000                 0.0000
 Atom AN      X      Y      Z        X      Y      Z        X      Y      Z
   1   6     0.02  -0.00   0.00     0.00   0.00  -0.00    -0.01  -0.00  -0.00
   2   6    -0.15  -0.13  -0.05    -0.00  -0.00   0.00     0.00   0.01   0.00
   3   6    -0.01   0.01   0.00     0.00  -0.00   0.00     0.01   0.08   0.03
   4   6     0.00   0.00   0.00    -0.01  -0.01   0.00     0.08  -0.06  -0.02
   5   6     0.00  -0.00   0.00    -0.04  -0.14   0.24    -0.17  -0.01  -0.08
   6   1    -0.01  -0.03   0.02    -0.01  -0.01   0.01     0.01   0.02  -0.02
   7   1    -0.01  -0.00  -0.04     0.00   0.00   0.00     0.01   0.00   0.02
   8   1    -0.05   0.01  -0.00    -0.01   0.00  -0.00     0.02  -0.00   0.00
   9   1     0.30   0.43  -0.44     0.00   0.01  -0.00    -0.00  -0.01   0.01
  10   1     0.28   0.04   0.63    -0.00  -0.00  -0.01    -0.00  -0.00  -0.01
  11   1     0.00  -0.05  -0.02     0.00   0.00  -0.00     0.00  -0.31  -0.13
  12   1     0.00  -0.00  -0.00     0.01  -0.00  -0.00    -0.31   0.21   0.09
  13   1     0.00  -0.00  -0.00     0.00  -0.02   0.04     0.00  -0.02  -0.03
  14   1    -0.00  -0.00   0.00     0.38   0.48  -0.65     0.10   0.17  -0.24
  15   1    -0.00   0.00  -0.00    -0.26   0.03  -0.22     0.52  -0.11   0.55
                     34                     35                     36
                        a                      a                      a 
 Frequencies --  3009.9668              3017.4589              3027.9896
 Red. masses --     1.6937                 1.8484                 1.8261
 Frc consts  --     0.0000                 0.0000                 0.0000
 IR Inten    --    45.7527                68.8264                79.2197
 Raman Activ --     0.0000                 0.0000                 0.0000
 Depolar     --     0.0000                 0.0000                 0.0000
 Atom AN      X      Y      Z        X      Y      Z        X      Y      Z
   1   6     0.03  -0.00   0.01    -0.27   0.01  -0.03    -0.01   0.02   0.01
   2   6    -0.00  -0.01  -0.01    -0.02  -0.01  -0.01    -0.01  -0.01  -0.00
   3   6    -0.01  -0.18  -0.07     0.00  -0.01  -0.00    -0.01  -0.15  -0.06
   4   6    -0.09   0.05   0.02    -0.03   0.02   0.01     0.18  -0.12  -0.04
   5   6    -0.10  -0.00  -0.05    -0.01   0.00  -0.00     0.02   0.01   0.02
   6   1    -0.00  -0.01   0.01     0.02   0.09  -0.09    -0.03  -0.04   0.04
   7   1    -0.00  -0.00  -0.03     0.03   0.02   0.19    -0.03  -0.01  -0.08
   8   1    -0.11   0.02  -0.00     0.91  -0.16   0.01     0.11  -0.02   0.00
   9   1     0.01   0.01  -0.01     0.02   0.02  -0.02     0.01   0.01  -0.01
  10   1     0.01   0.00   0.02     0.02   0.00   0.05     0.01   0.00   0.02
  11   1    -0.00   0.66   0.27    -0.00   0.04   0.02    -0.01   0.50   0.20
  12   1     0.33  -0.23  -0.09     0.10  -0.07  -0.03    -0.61   0.43   0.17
  13   1    -0.03   0.01   0.00     0.01  -0.00  -0.00     0.06  -0.04  -0.03
  14   1     0.06   0.09  -0.14     0.01   0.01  -0.02    -0.02  -0.02   0.04
  15   1     0.31  -0.07   0.33     0.03  -0.01   0.03    -0.09   0.02  -0.09
                     37                     38                     39
                        a                      a                      a 
 Frequencies --  3038.9671              3044.3598              3117.0620
 Red. masses --     1.5412                 1.7741                 1.7101
 Frc consts  --     0.0000                 0.0000                 0.0000
 IR Inten    --    38.4344                38.6780                18.8921
 Raman Activ --     0.0000                 0.0000                 0.0000
 Depolar     --     0.0000                 0.0000                 0.0000
 Atom AN      X      Y      Z        X      Y      Z        X      Y      Z
   1   6     0.04   0.06   0.21    -0.08  -0.16   0.19     0.00  -0.00   0.00
   2   6     0.01   0.00   0.02    -0.01  -0.01   0.02     0.00   0.00   0.00
   3   6     0.00   0.02   0.01    -0.00  -0.01  -0.00     0.00   0.00   0.00
   4   6    -0.02   0.01   0.00     0.01  -0.01  -0.00    -0.02   0.01   0.01
   5   6    -0.00  -0.00  -0.00     0.01  -0.00   0.00    -0.19   0.13   0.10
   6   1    -0.06  -0.09   0.11     0.44   0.62  -0.55     0.00   0.00  -0.01
   7   1    -0.31  -0.08  -0.87    -0.07  -0.04  -0.14    -0.01  -0.00  -0.01
   8   1     0.22  -0.03   0.03    -0.10  -0.01   0.03    -0.02   0.00   0.00
   9   1     0.00   0.00  -0.00     0.02   0.03  -0.03    -0.00  -0.00   0.00
  10   1    -0.02  -0.00  -0.04    -0.01  -0.00  -0.01    -0.00   0.00  -0.00
  11   1     0.00  -0.07  -0.03    -0.00   0.04   0.01    -0.00  -0.01  -0.01
  12   1     0.07  -0.05  -0.02    -0.03   0.02   0.01     0.06  -0.04  -0.02
  13   1    -0.01   0.00   0.00    -0.00   0.00   0.00     0.76  -0.47  -0.36
  14   1     0.01   0.01  -0.01     0.00   0.00   0.00    -0.03   0.01   0.02
  15   1     0.02  -0.00   0.02    -0.02   0.00  -0.02    -0.03   0.01   0.01
