24
 energy: -463.637326177429 gnorm: 0.031617576803 xtb: 6.7.1 (edcfbbe)
C           -3.57664618878491        0.12725124955639       -0.36523443676185
O           -2.21194157788017        0.16984553897526       -0.75987318413672
C           -1.31000656748050       -0.08533479083781        0.19744404798749
O           -1.60721074591220       -0.34355849515224        1.33408767749117
C            0.10179297834511        0.00880096160390       -0.33714410734940
C            0.86807544718467       -1.27370392506441        0.00023906530011
C            2.31875779532750       -1.16872189111789       -0.45758393770277
C            2.99881126382885        0.03399316321506        0.18822350058341
C            2.24302320779394        1.31405227648229       -0.15281425856772
C            0.79234998655111        1.21742750933947        0.30750269953626
H           -4.16001980004341        0.32795153674532       -1.26002344945835
H           -3.77310346157196        0.88192756379081        0.39905831447683
H           -3.82181933949355       -0.85565000447916        0.04205255181863
H            0.05211979232310        0.14604783706472       -1.42086527802962
H            0.82752618456670       -1.42796733943277        1.08017424167865
H            0.38504745727062       -2.12750107314275       -0.48015786081277
H            2.85183225676372       -2.08471214802379       -0.19589709448681
H            2.34944327924110       -1.06218853407068       -1.54460144818445
H            3.01505173193605       -0.09857109044368        1.27203924796367
H            4.03202179658670        0.10815069394792       -0.15701143766958
H            2.72160776800602        2.17006074806161        0.32687954584485
H            2.27133989410649        1.47582492075398       -1.23296232514636
H            0.75439558613429        1.10221553168842        1.39268466291714
H            0.25470456681287        2.13120272924439        0.04446503331970
24
 energy: -463.638377515653 gnorm: 0.010782171495 xtb: 6.7.1 (edcfbbe)
C           -3.58939525284285        0.12757910256435       -0.36222060468656
O           -2.21878058260989        0.17142314596992       -0.77405577998303
C           -1.31478896918579       -0.08817707236629        0.19239617052499
O           -1.61676005810452       -0.34405886390171        1.33580648832964
C            0.09985504554426        0.00684904948413       -0.33019952095387
C            0.86869966222278       -1.28077504103484       -0.00425731808545
C            2.32589082015697       -1.17556586284546       -0.45307899955833
C            3.01060241148130        0.03537328437986        0.18094739629024
C            2.24937259374708        1.32018768087091       -0.14633841905997
C            0.79171767031067        1.22516224674124        0.30369763851356
H           -4.17522713757111        0.33035412802058       -1.25787732526444
H           -3.78593369913107        0.88307204477052        0.40377403633340
H           -3.83751988910282       -0.85659590602333        0.04469917667922
H            0.05845100227888        0.14457259607799       -1.41621940611981
H            0.82204199668562       -1.43871500298579        1.07862819500995
H            0.38041363658725       -2.13809722220882       -0.48012960513523
H            2.85964103443368       -2.09648452502006       -0.19747024335516
H            2.36136265303908       -1.07524964756624       -1.54515552542863
H            3.03351090086090       -0.09779425205524        1.26943243735963
H            4.04887346059991        0.10909588726741       -0.15844889674565
H            2.72810582588382        2.18272615392705        0.32837322243630
H            2.28144300855219        1.48902217406060       -1.22990709771000
H            0.74710268748096        1.11219344820962        1.39279997093796
H            0.24847445546606        2.14074491059417        0.04548607723535
24
 energy: -463.638539932143 gnorm: 0.004497401727 xtb: 6.7.1 (edcfbbe)
C           -3.59888913893170        0.12721073455433       -0.35987733986467
O           -2.22411517226994        0.17353715207061       -0.78481869515192
C           -1.31664080720801       -0.08509315747372        0.18645895507075
O           -1.62080732402813       -0.34402774516517        1.33019222951951
C            0.09907623695127        0.00640898261935       -0.33124554066887
C            0.87005651033519       -1.28169673913255       -0.00259166080645
C            2.32845470196909       -1.17704043223629       -0.45233073828340
C            3.01433275556812        0.03540479092736        0.18097871333390
C            2.25136868806002        1.32103900483766       -0.14559736197012
C            0.79268906866968        1.22530013088807        0.30541552476860
H           -4.18858291350280        0.33127346244490       -1.25396830971538
H           -3.78982994018738        0.88308116003250        0.40763661198169
H           -3.84309092923810       -0.85833994359831        0.04667860093651
H            0.06312442686456        0.14445374963978       -1.41872491506503
H            0.82055213230666       -1.44499407520831        1.08144342626403
H            0.38066497445554       -2.13968876308556       -0.47882765660582
H            2.86314046973496       -2.09884375308921       -0.19616600898265
H            2.36723484535355       -1.08362911316236       -1.54737965340637
H            3.04625633052069       -0.09773118910901        1.27179499439655
H            4.05307745989520        0.10974854032247       -0.16074348289564
H            2.73046946363738        2.18472390993570        0.32968254669742
H            2.28622859947037        1.49723570093492       -1.23040684948334
H            0.74421150464873        1.11734708906562        1.39701640246207
H            0.24817125962444        2.14116273903428        0.04606243905760
24
 energy: -463.638560656799 gnorm: 0.001895878141 xtb: 6.7.1 (edcfbbe)
C           -3.60154240268825        0.12758941904511       -0.35868392637940
O           -2.22540393447600        0.17331049191059       -0.78871219036399
C           -1.31686036117330       -0.08726948929423        0.18342614551323
O           -1.62201048362739       -0.34389663766357        1.32667283550810
C            0.09917318632322        0.00626654461217       -0.33237350576863
C            0.86978343193324       -1.28222615715879       -0.00218047166181
C            2.32841443962858       -1.17735478985955       -0.45086463988712
C            3.01499382431509        0.03576977541476        0.18015226897952
C            2.25135845849035        1.32141333229037       -0.14430854040928
C            0.79232307907418        1.22578151724065        0.30518711386017
H           -4.19315310914918        0.33332426469318       -1.25099772709715
H           -3.78726080834761        0.88278106637876        0.41024325340521
H           -3.84285609832585       -0.85872334116022        0.04673761881822
H            0.06587905683382        0.14417800464850       -1.41992857445897
H            0.81972273861756       -1.44564938963030        1.08171550259766
H            0.38131961575141       -2.14041617926749       -0.47907220903489
H            2.86296498247014       -2.09862196157508       -0.19219196222595
H            2.36818938403798       -1.08655140292192       -1.54604763711277
H            3.05063648028541       -0.09715793277054        1.27081205763359
H            4.05273818508509        0.11044642781400       -0.16481393066655
H            2.73037550774337        2.18404812273338        0.33310907157564
H            2.28707292675872        1.49994812178925       -1.22865089433101
H            0.74293535873389        1.11817697055871        1.39667521410967
H            0.24835981042180        2.14167509469390        0.04477764295271
24
 energy: -463.638565908729 gnorm: 0.001837494793 xtb: 6.7.1 (edcfbbe)
C           -3.60331698685289        0.12742173223393       -0.35751767875725
O           -2.22610590726061        0.17416636604910       -0.79205666045904
C           -1.31676810909656       -0.08504089259804        0.18135789540988
O           -1.62311696707691       -0.34449403424387        1.32261409963272
C            0.09920870440991        0.00625303555271       -0.33417706364798
C            0.86948267490992       -1.28216810519517       -0.00217796514141
C            2.32841629797880       -1.17834748746430       -0.44901135926049
C            3.01494155940336        0.03594491998976        0.17894538054745
C            2.25081111658246        1.32149714397261       -0.14292439917509
C            0.79163640619711        1.22567537818206        0.30479492889390
H           -4.19678752707620        0.33557203351235       -1.24758593225442
H           -3.78340748992751        0.88103092780802        0.41352483174561
H           -3.84103685337387       -0.85993722376787        0.04604716409296
H            0.06830343280731        0.14403907020366       -1.42149608331788
H            0.81833584614254       -1.44425949307812        1.08136632368365
H            0.38218711362062       -2.14033852091470       -0.47969608529185
H            2.86255548548970       -2.09835039401205       -0.18570720141972
H            2.36923469096270       -1.09085983789418       -1.54384134751549
H            3.05543385998828       -0.09639196674223        1.26893068594373
H            4.05070364648881        0.11131040824631       -0.17134751569105
H            2.72917309227982        2.18213041690618        0.33837661688814
H            2.28757767569635        1.50298185200780       -1.22617087120668
H            0.74095924742088        1.11758255590647        1.39563421296880
H            0.24873234469637        2.14142374769929        0.04280083043543
24
 energy: -463.638569187446 gnorm: 0.000805779463 xtb: 6.7.1 (edcfbbe)
C           -3.60210740697448        0.12795810976904       -0.35754441565912
O           -2.22558697411200        0.17368312494417       -0.79157515308942
C           -1.31673107359598       -0.08738910844335        0.18091856578990
O           -1.62266976309170       -0.34484169594674        1.32307637412379
C            0.09916996976568        0.00605216982724       -0.33461897521615
C            0.86941352408841       -1.28187864365469       -0.00192995656625
C            2.32828468792200       -1.17811838833788       -0.44894868712117
C            3.01487498994541        0.03619703972554        0.17893763974680
C            2.25063662234884        1.32167443948749       -0.14312002038008
C            0.79139672972074        1.22527340898406        0.30434940992278
H           -4.19547872842006        0.33771031962453       -1.24729365162006
H           -3.78248541885533        0.88039515561161        0.41467334213312
H           -3.84145841358394       -0.85965504319879        0.04474847296023
H            0.06745200230651        0.14360151103399       -1.42191747577824
H            0.81780515388109       -1.44338219846653        1.08169457210818
H            0.38204489893184       -2.14013436146204       -0.47914899490841
H            2.86217444223913       -2.09799113036353       -0.18492941006897
H            2.36932524843096       -1.09133121350887       -1.54380212776280
H            3.05576556786782       -0.09606003969170        1.26887096754935
H            4.05040925616023        0.11161321056159       -0.17184986914862
H            2.72874466538376        2.18209792088545        0.33869645685339
H            2.28757222658772        1.50357687730394       -1.22625617707662
H            0.74035015681620        1.11690394539478        1.39516779320609
H            0.24825111374025        2.14088596150978        0.04248427453116
24
 energy: -463.638569187446 gnorm: 0.000805779463 xtb: 6.7.1 (edcfbbe)
C           -3.60210740697448        0.12795810976904       -0.35754441565912
O           -2.22558697411200        0.17368312494417       -0.79157515308942
C           -1.31673107359598       -0.08738910844335        0.18091856578990
O           -1.62266976309170       -0.34484169594674        1.32307637412379
C            0.09916996976568        0.00605216982724       -0.33461897521615
C            0.86941352408841       -1.28187864365469       -0.00192995656625
C            2.32828468792200       -1.17811838833788       -0.44894868712117
C            3.01487498994541        0.03619703972554        0.17893763974680
C            2.25063662234884        1.32167443948749       -0.14312002038008
C            0.79139672972074        1.22527340898406        0.30434940992278
H           -4.19547872842006        0.33771031962453       -1.24729365162006
H           -3.78248541885533        0.88039515561161        0.41467334213312
H           -3.84145841358394       -0.85965504319879        0.04474847296023
H            0.06745200230651        0.14360151103399       -1.42191747577824
H            0.81780515388109       -1.44338219846653        1.08169457210818
H            0.38204489893184       -2.14013436146204       -0.47914899490841
H            2.86217444223913       -2.09799113036353       -0.18492941006897
H            2.36932524843096       -1.09133121350887       -1.54380212776280
H            3.05576556786782       -0.09606003969170        1.26887096754935
H            4.05040925616023        0.11161321056159       -0.17184986914862
H            2.72874466538376        2.18209792088545        0.33869645685339
H            2.28757222658772        1.50357687730394       -1.22625617707662
H            0.74035015681620        1.11690394539478        1.39516779320609
H            0.24825111374025        2.14088596150978        0.04248427453116
