
                                 *****************
                                 * O   R   C   A *
                                 *****************

                                            #,                                       
                                            ###                                      
                                            ####                                     
                                            #####                                    
                                            ######                                   
                                           ########,                                 
                                     ,,################,,,,,                         
                               ,,#################################,,                 
                          ,,##########################################,,             
                       ,#########################################, ''#####,          
                    ,#############################################,,   '####,        
                  ,##################################################,,,,####,       
                ,###########''''           ''''###############################       
              ,#####''   ,,,,##########,,,,          '''####'''          '####       
            ,##' ,,,,###########################,,,                        '##       
           ' ,,###''''                  '''############,,,                           
         ,,##''                                '''############,,,,        ,,,,,,###''
      ,#''                                            '''#######################'''  
     '                                                          ''''####''''         
             ,#######,   #######,   ,#######,      ##                                
            ,#'     '#,  ##    ##  ,#'     '#,    #''#        ,####,   ,####,        
            ##       ##  ##   ,#'  ##            #'  '#       #'       #'  '#        
            ##       ##  #######   ##           ,######,      #####,   #    #        
            '#,     ,#'  ##    ##  '#,     ,#' ,#      #,     #,   #   #,  ,#        
             '#######'   ##     ##  '#######'  #'      '#     '####' # '####'        



                #########################################################
                #                        -***-                          #
                #          Department of theory and spectroscopy        #
                #                                                       #
                #                      Frank Neese                      #
                #                                                       #
                #     Directorship, Architecture, Infrastructure        #
                #                    SHARK, DRIVERS                     #
                #        Core code/Algorithms in most modules           #
                #                                                       #
                #        Max Planck Institute fuer Kohlenforschung      #
                #                Kaiser Wilhelm Platz 1                 #
                #                 D-45470 Muelheim/Ruhr                 #
                #                      Germany                          #
                #                                                       #
                #                  All rights reserved                  #
                #                        -***-                          #
                #########################################################


                         Program Version 6.0.1  -  RELEASE   -


 With contributions from (in alphabetic order):
[Max-Planck-Institut fuer Kohlenforschung]                               
  Daniel Aravena         : Magnetic Suceptibility                        
  Michael Atanasov       : Ab Initio Ligand Field Theory (pilot matlab implementation)
  Alexander A. Auer      : GIAO ZORA, VPT2 properties, NMR spectrum      
  Ute Becker             : All parallelization in ORCA, NUMFREQ, NUMCALC 
  Giovanni Bistoni       : ED, misc. LED, open-shell LED, HFLD           
  Martin Brehm           : Molecular dynamics                            
  Dmytro Bykov           : pre 5.0 version of the SCF Hessian            
  Marcos Casanova-Páez   : Triplet and SCS-CIS(D). UHF-(DLPNO)-IP/EA/STEOM-CCSD. UHF-CVS-IP/STEOM-CCSD   
  Vijay G. Chilkuri      : MRCI spin determinant printing, contributions to CSF-ICE 
  Pauline Colinet        : FMM embedding                                 
  Dipayan Datta          : RHF DLPNO-CCSD density                        
  Achintya Kumar Dutta   : EOM-CC, STEOM-CC                              
  Nicolas Foglia         : Exact transition moments, OPA infrastructure, MCD improvements    
  Dmitry Ganyushin       : Spin-Orbit,Spin-Spin,Magnetic field MRCI      
  Miquel Garcia-Rates    : C-PCM and meta-GGA Hessian, CCSD/C-PCM, Gaussian charge scheme 
  Tiago L. C. Gouveia    : GS-ROHF, GS-ROCIS                             
  Yang Guo               : DLPNO-NEVPT2, F12-NEVPT2, CIM, IAO-localization        
  Andreas Hansen         : Spin unrestricted coupled pair/coupled cluster methods 
  Ingolf Harden          : AUTO-CI MPn and infrastructure                
  Benjamin Helmich-Paris : MC-RPA, TRAH-(SCF,CASSCF), AVAS, COSX integrals, SCF dyn. polar. 
  Lee Huntington         : MR-EOM, pCC                                   
  Robert Izsak           : Overlap fitted RIJCOSX, COSX-SCS-MP3, EOM     
  Riya Kayal             : Wick's Theorem for AUTO-CI, AUTO-CI UHF-CCSDT 
  Emily Kempfer          : AUTO-CI, RHF CISDT and CCSDT                  
  Christian Kollmar      : KDIIS, OOCD, Brueckner-CCSD(T), CCSD density, CASPT2, CASPT2-K, improved NEVPT2 
  Axel Koslowski         : Symmetry handling                             
  Simone Kossmann        : meta-GGA functionals, TD-DFT gradient, OOMP2, (MP2 Hessian; deprecated post 5.0) 
  Lucas Lang             : DCDCAS                                        
  Marvin Lechner         : AUTO-CI (C++ implementation), FIC-MRCC        
  Spencer Leger          : CASSCF response                               
  Dagmar Lenk            : GEPOL surface, SMD, ORCA-2-JSON               
  Dimitrios Liakos       : Extrapolation schemes; Compound Job, initial MDCI parallelization 
  Dimitrios Manganas     : Further ROCIS development; embedding schemes. LFT, Crystal Embedding 
  Dimitrios Pantazis     : SARC Basis sets                               
  Anastasios Papadopoulos: AUTO-CI, single reference methods and gradients 
  Taras Petrenko         : pre 6.0 DFT Hessian and TD-DFT gradient, (ASA, deprecated), ECA, 1-Electron XAS/XES, NRVS 
  Peter Pinski           : DLPNO-MP2, DLPNO-MP2 Gradient                 
  Christoph Reimann      : Effective Core Potentials                     
  Marius Retegan         : Local ZFS, SOC                                
  Christoph Riplinger    : Optimizer, TS searches, QM/MM, DLPNO-CCSD(T), (RO)-DLPNO pert. Triples 
  Michael Roemelt        : Original ROCIS implementation                 
  Masaaki Saitow         : Open-shell DLPNO-CCSD energy and density      
  Barbara Sandhoefer     : DKH picture change effects                    
  Kantharuban Sivalingam : CASSCF convergence/infrastructure, NEVPT2 and variants, FIC-MRCI 
  Bernardo de Souza      : ESD, SOC TD-DFT                               
  Georgi L. Stoychev     : AutoAux, RI-MP2 NMR, DLPNO-MP2 response, X2C  
  Van Anh Tran           : RI-MP2 g-tensors                              
  Willem Van den Heuvel  : Paramagnetic NMR                              
  Zikuan Wang            : NOTCH, Electric field optimization            
  Frank Wennmohs         : Technical directorship and infrastructure     
  Hang Xu                : AUTO-CI-Response properties                   
                                                                         
[FACCTs GmbH]                                                            
  Markus Bursch, Miquel Garcia-Rates, Christoph Riplinger, Bernardo de Souza, Georgi L. Stoychev 
                                                                 
  APM, Basis sets (HGBS, AHGBS, def-TZVP (Ac-Lr), def2-XVPD (La-Lu)), CI-OPT, improved COSX, DLPNO-Multilevel,           
  DOCKER, DRACO, updates on ESD, GOAT, IRC, LR-CPCM, MBIS, meta-GGA TD-DFT gradient, ML-optimized integration grids, 
  MM, NACMEs, nearIR, NEB, NEB-TS, NL-DFT gradient (VV10), 2- and 3-layer-ONIOM, interface openCOSMO-RS, QMMM,   
  Crystal-QMMM, SF, symmetry and pop. for TD-DFT, r2SCAN hybrids, SOLVATOR                                   
                                                                         
[Other institutions]                                                     
  V. Asgeirsson          : NEB                                           
  Christoph Bannwarth    : sTDA-DFT, sTD-DFT, PBEh-3c, B97-3c, D3        
  Sebastian Ehlert       : rSCAN, r2SCAN, r2SCAN-3c, D4, dhf basis sets  
  Marvin Friede          : D4 for Fr, Ra, Ac-Lr                          
  Lars Goerigk           : TD-DFT with DH, B97 family of functionals     
  Stefan Grimme          : VdW corrections, initial TS optimization, DFT functionals, gCP, sTDA/sTD-DF 
  Waldemar Hujo          : DFT-NL                                        
  H. Jonsson             : NEB                                           
  Holger Kruse           : gCP                                           
  Marcel Mueller         : wB97X-3c, vDZP basis set                      
  Hagen Neugebauer       : wr2SCAN                                       
  Tobias Risthaus        : range-separated hybrid DFT                    
  Lukas Wittmann         : regularized MP2, r2SCAN double-hybrids, wr2SCAN        
                                                                         
We gratefully acknowledge several colleagues who have allowed us to      
interface, adapt or use parts of their codes:                            
  Ed Valeev, F. Pavosevic, A. Kumar             : LibInt (2-el integral package), F12 methods 
  Garnet Chan, S. Sharma, J. Yang, R. Olivares  : DMRG                   
  Ulf Ekstrom                                   : XCFun DFT Library      
  Mihaly Kallay                                 : mrcc  (arbitrary order and MRCC methods)
  Frank Weinhold                                : gennbo (NPA and NBO analysis)           
  Simon Mueller                                 : openCOSMO-RS                            
  Christopher J. Cramer and Donald G. Truhlar   : smd solvation model                     
  S Lehtola, MJT Oliveira, MAL Marques          : LibXC Library                           
  Liviu Ungur et al                             : ANISO software                          


 Your calculation uses the libint2 library for the computation of 2-el integrals
 For citations please refer to: http://libint.valeyev.net

 Your ORCA version has been built with support for libXC version: 6.2.2
 For citations please refer to: https://libxc.gitlab.io

 This ORCA versions uses:
   CBLAS   interface :  Fast vector & matrix operations
   LAPACKE interface :  Fast linear algebra routines
   SCALAPACK package :  Parallel linear algebra routines
   Shared memory     :  Shared parallel matrices
   BLAS/LAPACK       :  OpenBLAS 0.3.27  USE64BITINT DYNAMIC_ARCH NO_AFFINITY Zen SINGLE_THREADED
        Core in use  :  Zen
   Copyright (c) 2011-2014, The OpenBLAS Project


Your calculation utilizes the geometrical counterpoise correction gCP
Please cite in your paper:
H.Kruse, S. Grimme J.Chem.Phys., 136, (2012), 154101 
   

Your calculation utilizes the atom-pairwise dispersion correction
based on EEQ partial charges (D4)


================================================================================

----- Orbital basis set information -----
Your calculation utilizes the basis: def2-SV(P)
   F. Weigend and R. Ahlrichs, Phys. Chem. Chem. Phys. 7, 3297 (2005).

----- AuxJ basis set information -----
Your calculation utilizes the auxiliary basis: def2/J
   F. Weigend, Phys. Chem. Chem. Phys. 8, 1057 (2006).

================================================================================
                                        WARNINGS
                       Please study these warnings very carefully!
================================================================================


================================================================================
                                       INPUT FILE
================================================================================
NAME = sp.inp
|  1> ! pbe def2-sv(p) def2/J RI DEFGRID1 loosescf d4 GCP(DFT/SV(P)) printgap
|  2> %output
|  3>     printlevel normal
|  4> end
|  5> * xyz 0 1
|  6> C -2.022284259 -0.5912720875 -0.6979785495
|  7> C -1.1923106128 -0.0832442526 0.5041263056
|  8> H -1.8470115384 -0.0205443331 1.3808329501
|  9> C -0.6232684216 1.3224586228 0.2550084433
| 10> H -1.3534477905 1.884000053 -0.3474860387
| 11> C 0.7092556344 1.2944413947 -0.5211807583
| 12> H 1.1655944879 2.2956136341 -0.4416992874
| 13> C 1.67567204 0.2747123011 0.118439834
| 14> H 2.5790788661 0.1808108328 -0.4968143122
| 15> C 0.9855109042 -1.103518192 0.1848975529
| 16> H 1.6049033237 -1.7924770269 0.7723488497
| 17> O -0.2131018486 -1.0248852706 0.9150922624
| 18> O 0.8384045329 -1.6813812196 -1.0706327675
| 19> O 2.0970518867 0.7029200103 1.37992888
| 20> O 0.4364635768 0.9886157882 -1.8741489661
| 21> O -0.4510542717 1.9227319007 1.5184871615
| 22> O -2.2968969288 -1.9568219095 -0.5911850445
| 23> H -1.5069365576 -0.3652909889 -1.6430687475
| 24> H -2.9853422438 -0.0750452597 -0.706036534
| 25> H 0.4462991121 -1.0306081514 -1.6749998253
| 26> H 1.3189211024 0.7440727082 1.9582251973
| 27> H 1.2340702249 1.133353426 -2.3966653933
| 28> H -0.137697343 2.8287656552 1.4131379489
| 29> H -1.4702982857 -2.4040225881 -0.3562491261
| 30> *
| 31> 
| 32>                          ****END OF INPUT****
================================================================================

                       ****************************
                       * Single Point Calculation *
                       ****************************

---------------------------------
CARTESIAN COORDINATES (ANGSTROEM)
---------------------------------
  C     -2.022284   -0.591272   -0.697979
  C     -1.192311   -0.083244    0.504126
  H     -1.847012   -0.020544    1.380833
  C     -0.623268    1.322459    0.255008
  H     -1.353448    1.884000   -0.347486
  C      0.709256    1.294441   -0.521181
  H      1.165594    2.295614   -0.441699
  C      1.675672    0.274712    0.118440
  H      2.579079    0.180811   -0.496814
  C      0.985511   -1.103518    0.184898
  H      1.604903   -1.792477    0.772349
  O     -0.213102   -1.024885    0.915092
  O      0.838405   -1.681381   -1.070633
  O      2.097052    0.702920    1.379929
  O      0.436464    0.988616   -1.874149
  O     -0.451054    1.922732    1.518487
  O     -2.296897   -1.956822   -0.591185
  H     -1.506937   -0.365291   -1.643069
  H     -2.985342   -0.075045   -0.706037
  H      0.446299   -1.030608   -1.675000
  H      1.318921    0.744073    1.958225
  H      1.234070    1.133353   -2.396665
  H     -0.137697    2.828766    1.413138
  H     -1.470298   -2.404023   -0.356249

----------------------------
CARTESIAN COORDINATES (A.U.)
----------------------------
  NO LB      ZA    FRAG     MASS         X           Y           Z
   0 C     6.0000    0    12.011   -3.821563   -1.117342   -1.318988
   1 C     6.0000    0    12.011   -2.253141   -0.157309    0.952661
   2 H     1.0000    0     1.008   -3.490346   -0.038823    2.609396
   3 C     6.0000    0    12.011   -1.177807    2.499085    0.481896
   4 H     1.0000    0     1.008   -2.557646    3.560244   -0.656653
   5 C     6.0000    0    12.011    1.340299    2.446140   -0.984889
   6 H     1.0000    0     1.008    2.202654    4.338081   -0.834691
   7 C     6.0000    0    12.011    3.166561    0.519131    0.223819
   8 H     1.0000    0     1.008    4.873753    0.341683   -0.938843
   9 C     6.0000    0    12.011    1.862346   -2.085347    0.349406
  10 H     1.0000    0     1.008    3.032828   -3.387291    1.459528
  11 O     8.0000    0    15.999   -0.402704   -1.936752    1.729274
  12 O     8.0000    0    15.999    1.584355   -3.177350   -2.023203
  13 O     8.0000    0    15.999    3.962854    1.328326    2.607688
  14 O     8.0000    0    15.999    0.824797    1.868213   -3.541628
  15 O     8.0000    0    15.999   -0.852369    3.633437    2.869525
  16 O     8.0000    0    15.999   -4.340506   -3.697858   -1.117178
  17 H     1.0000    0     1.008   -2.847697   -0.690300   -3.104950
  18 H     1.0000    0     1.008   -5.641479   -0.141815   -1.334216
  19 H     1.0000    0     1.008    0.843383   -1.947567   -3.165291
  20 H     1.0000    0     1.008    2.492400    1.406094    3.700509
  21 H     1.0000    0     1.008    2.332055    2.141728   -4.529041
  22 H     1.0000    0     1.008   -0.260210    5.345592    2.670444
  23 H     1.0000    0     1.008   -2.778461   -4.542944   -0.673213

--------------------------------
INTERNAL COORDINATES (ANGSTROEM)
--------------------------------
 C      0   0   0     0.000000000000     0.00000000     0.00000000
 C      1   0   0     1.546610686978     0.00000000     0.00000000
 H      2   1   0     1.095983176147   108.66089591     0.00000000
 C      2   1   3     1.536837434015   111.91064674   241.61094456
 H      4   2   1     1.100677195838   108.04375063    34.21628240
 C      4   2   1     1.542360204871   112.63467071   275.16562451
 H      6   4   2     1.103135669977   107.73704965   193.62205152
 C      6   4   2     1.543671790065   110.14248868   311.31727733
 H      8   6   4     1.097041040075   109.85931022   174.06222482
 C      8   6   4     1.542808579792   109.14194985    55.30489971
 H     10   8   6     1.097000579595   109.36174828   188.48192547
 O     10   8   6     1.405716892295   110.72229642   302.25483465
 O     10   8   6     1.389936095145   112.32333735    70.58769308
 O      8   6   4     1.397239217386   111.12783344   291.67856891
 O      6   4   2     1.413671736861   108.59361492    74.28790978
 O      4   2   1     1.409384331164   106.82781509   153.42732282
 O      1   2   3     1.396976480650   111.54067352   285.81267179
 H      1   2   3     1.099930085332   110.42119281   161.87004728
 H      1   2   3     1.092719429196   108.87554520    43.42201034
 H     13  10   8     0.970830462990   109.04965277   310.59129569
 H     14   8   6     0.970364721444   108.01211841    63.58957199
 H     15   6   4     0.964442204377   109.05430936   169.31111503
 H     16   4   2     0.964462640880   109.99185349   182.97002056
 H     17   1   2     0.968735593167   107.58101498   313.08229957

---------------------------
INTERNAL COORDINATES (A.U.)
---------------------------
 C      0   0   0     0.000000000000     0.00000000     0.00000000
 C      1   0   0     2.922670634184     0.00000000     0.00000000
 H      2   1   0     2.071108050303   108.66089591     0.00000000
 C      2   1   3     2.904201862647   111.91064674   241.61094456
 H      4   2   1     2.079978461987   108.04375063    34.21628240
 C      4   2   1     2.914638387065   112.63467071   275.16562451
 H      6   4   2     2.084624304816   107.73704965   193.62205152
 C      6   4   2     2.917116923882   110.14248868   311.31727733
 H      8   6   4     2.073107123414   109.85931022   174.06222482
 C      8   6   4     2.915485692871   109.14194985    55.30489971
 H     10   8   6     2.073030664188   109.36174828   188.48192547
 O     10   8   6     2.656419948265   110.72229642   302.25483465
 O     10   8   6     2.626598563477   112.32333735    70.58769308
 O      8   6   4     2.640399464434   111.12783344   291.67856891
 O      6   4   2     2.671452425931   108.59361492    74.28790978
 O      4   2   1     2.663350403340   106.82781509   153.42732282
 O      1   2   3     2.639902963958   111.54067352   285.81267179
 H      1   2   3     2.078566627738   110.42119281   161.87004728
 H      1   2   3     2.064940462395   108.87554520    43.42201034
 H     13  10   8     1.834603697519   109.04965277   310.59129569
 H     14   8   6     1.833723573547   108.01211841    63.58957199
 H     15   6   4     1.822531638267   109.05430936   169.31111503
 H     16   4   2     1.822570257662   109.99185349   182.97002056
 H     17   1   2     1.830644967268   107.58101498   313.08229957

---------------------
BASIS SET INFORMATION
---------------------
There are 3 groups of distinct atoms

 Group   1 Type C   : 7s4p1d contracted to 3s2p1d pattern {511/31/1}
 Group   2 Type H   : 4s contracted to 2s pattern {31}
 Group   3 Type O   : 7s4p1d contracted to 3s2p1d pattern {511/31/1}

Atom   0C    basis set group =>   1
Atom   1C    basis set group =>   1
Atom   2H    basis set group =>   2
Atom   3C    basis set group =>   1
Atom   4H    basis set group =>   2
Atom   5C    basis set group =>   1
Atom   6H    basis set group =>   2
Atom   7C    basis set group =>   1
Atom   8H    basis set group =>   2
Atom   9C    basis set group =>   1
Atom  10H    basis set group =>   2
Atom  11O    basis set group =>   3
Atom  12O    basis set group =>   3
Atom  13O    basis set group =>   3
Atom  14O    basis set group =>   3
Atom  15O    basis set group =>   3
Atom  16O    basis set group =>   3
Atom  17H    basis set group =>   2
Atom  18H    basis set group =>   2
Atom  19H    basis set group =>   2
Atom  20H    basis set group =>   2
Atom  21H    basis set group =>   2
Atom  22H    basis set group =>   2
Atom  23H    basis set group =>   2
---------------------------------
AUXILIARY/J BASIS SET INFORMATION
---------------------------------
There are 3 groups of distinct atoms

 Group   1 Type C   : 12s5p4d2f1g contracted to 6s4p3d1f1g pattern {711111/2111/211/2/1}
 Group   2 Type H   : 5s2p1d contracted to 3s1p1d pattern {311/2/1}
 Group   3 Type O   : 12s5p4d2f1g contracted to 6s4p3d1f1g pattern {711111/2111/211/2/1}

Atom   0C    basis set group =>   1
Atom   1C    basis set group =>   1
Atom   2H    basis set group =>   2
Atom   3C    basis set group =>   1
Atom   4H    basis set group =>   2
Atom   5C    basis set group =>   1
Atom   6H    basis set group =>   2
Atom   7C    basis set group =>   1
Atom   8H    basis set group =>   2
Atom   9C    basis set group =>   1
Atom  10H    basis set group =>   2
Atom  11O    basis set group =>   3
Atom  12O    basis set group =>   3
Atom  13O    basis set group =>   3
Atom  14O    basis set group =>   3
Atom  15O    basis set group =>   3
Atom  16O    basis set group =>   3
Atom  17H    basis set group =>   2
Atom  18H    basis set group =>   2
Atom  19H    basis set group =>   2
Atom  20H    basis set group =>   2
Atom  21H    basis set group =>   2
Atom  22H    basis set group =>   2
Atom  23H    basis set group =>   2
------------------------------------------------------------------------------
                             ORCA STARTUP CALCULATIONS
                           -- RI-GTO INTEGRALS CHOSEN --
------------------------------------------------------------------------------
------------------------------------------------------------------------------
                   ___                                                        
                  /   \      - P O W E R E D   B Y -                         
                 /     \                                                     
                 |  |  |   _    _      __       _____    __    __             
                 |  |  |  | |  | |    /  \     |  _  \  |  |  /  |          
                  \  \/   | |  | |   /    \    | | | |  |  | /  /          
                 / \  \   | |__| |  /  /\  \   | |_| |  |  |/  /          
                |  |  |   |  __  | /  /__\  \  |    /   |      \           
                |  |  |   | |  | | |   __   |  |    \   |  |\   \          
                \     /   | |  | | |  |  |  |  | |\  \  |  | \   \       
                 \___/    |_|  |_| |__|  |__|  |_| \__\ |__|  \__/        
                                                                              
                      - O R C A' S   B I G   F R I E N D -                    
                                      &                                       
                       - I N T E G R A L  F E E D E R -                       
                                                                              
 v1 FN, 2020, v2 2021, v3 2022-2024                                           
------------------------------------------------------------------------------


----------------------
SHARK INTEGRAL PACKAGE
----------------------

Number of atoms                             ...     24
Number of basis functions                   ...    192
Number of shells                            ...     96
Maximum angular momentum                    ...      2
Integral batch strategy                     ... SHARK/LIBINT Hybrid
RI-J (if used) integral strategy            ... SPLIT-RIJ (Revised 2003 algorithm where possible)
Printlevel                                  ...      1
Contraction scheme used                     ... SEGMENTED contraction
Prescreening option                         ... SCHWARTZ
   Thresh                                   ... 1.000e-09
   Tcut                                     ... 1.000e-10
   Tpresel                                  ... 1.000e-10 
Coulomb Range Separation                    ... NOT USED
Exchange Range Separation                   ... NOT USED
Multipole approximations                    ... NOT USED
Finite Nucleus Model                        ... NOT USED
CABS basis                                  ... NOT available
Auxiliary Coulomb fitting basis             ... AVAILABLE
   # of basis functions in Aux-J            ...    720
   # of shells in Aux-J                     ...    240
   Maximum angular momentum in Aux-J        ...      4
Auxiliary J/K fitting basis                 ... NOT available
Auxiliary Correlation fitting basis         ... NOT available
Auxiliary 'external' fitting basis          ... NOT available

Checking pre-screening integrals            ... done (  0.0 sec) Dimension = 96
Check shell pair data                       ... done (  0.0 sec)
Shell pair information
Shell pair cut-off parameter TPreSel        ...   1.0e-10
Total number of shell pairs                 ...      4656
Shell pairs after pre-screening             ...      4317
Total number of primitive shell pairs       ...     18720
Primitive shell pairs kept                  ...     11707
          la=0 lb=0:   1672 shell pairs
          la=1 lb=0:   1365 shell pairs
          la=1 lb=1:    294 shell pairs
          la=2 lb=0:    640 shell pairs
          la=2 lb=1:    275 shell pairs
          la=2 lb=2:     71 shell pairs

Calculating one electron integrals          ... done (  0.0 sec)
Calculating RI/J V-Matrix + Cholesky decomp.... done (  0.0 sec)
Calculating Nuclear repulsion               ... done (  0.0 sec) ENN=    867.701148750329 Eh

Diagonalization of the overlap matrix:
Smallest eigenvalue                        ... 7.852e-04
Time for diagonalization                   ...    0.003 sec
Threshold for overlap eigenvalues          ... 1.000e-07
Number of eigenvalues below threshold      ... 0
Time for construction of square roots      ...    0.004 sec
Total time needed                          ...    0.008 sec

-------------------
DFT GRID GENERATION
-------------------

General Integration Accuracy     IntAcc      ... 4.159
Radial Grid Type                 RadialGrid  ... OptM3 with GC (2021)
Angular Grid (max. ang.)         AngularGrid ... 3 (Lebedev-194)
Angular grid pruning method      GridPruning ... 4 (adaptive)
Weight generation scheme         WeightScheme... mBecke (2022)
Basis function cutoff            BFCut       ... 1.0000e-10
Integration weight cutoff        WCut        ... 1.0000e-14
Partially contracted basis set               ... off
Rotationally invariant grid construction     ... off
Angular grids for H and He will be reduced by one unit

Total number of grid points                  ...    55557
Total number of batches                      ...      881
Average number of points per batch           ...       63
Average number of grid points per atom       ...     2315
Initializing property integral containers    ... done (  0.0 sec)

SHARK setup successfully completed in   0.6 seconds

Maximum memory used throughout the entire STARTUP-calculation: 28.9 MB
-------------------------------------------------------------------------------
                                 ORCA GUESS
                   Start orbitals & Density for SCF / CASSCF
-------------------------------------------------------------------------------

------------
SCF SETTINGS
------------
Hamiltonian:
 Density Functional     Method          .... DFT(GTOs)
 Exchange Functional    Exchange        .... PBE
   PBE kappa parameter   XKappa         ....  0.804000
   PBE mue parameter    XMuePBE         ....  0.219520
 Correlation Functional Correlation     .... PBE
   PBE beta parameter  CBetaPBE         ....  0.066725
 LDA part of GGA corr.  LDAOpt          .... PW91-LDA
 Gradients option       PostSCFGGA      .... off
   NL short-range parameter             ....  6.400000
 RI-approximation to the Coulomb term is turned on
   Number of AuxJ basis functions       .... 720


General Settings:
 Integral files         IntName         .... sp
 Hartree-Fock type      HFTyp           .... RHF
 Total Charge           Charge          ....    0
 Multiplicity           Mult            ....    1
 Number of Electrons    NEL             ....   96
 Basis Dimension        Dim             ....  192
 Nuclear Repulsion      ENuc            ....    867.7011487503 Eh

Convergence Acceleration:
 AO-DIIS                CNVDIIS         .... on
   Start iteration      DIISMaxIt       ....    12
   Startup error        DIISStart       ....  0.200000
   # of expansion vecs  DIISMaxEq       ....     5
   Bias factor          DIISBfac        ....   1.050
   Max. coefficient     DIISMaxC        ....  10.000
 MO-DIIS                CNVKDIIS        .... off
 Trust-Rad. Augm. Hess. CNVTRAH         .... auto
   Auto Start mean grad. ratio tolernc. ....  1.125000
   Auto Start start iteration           ....    50
   Auto Start num. interpolation iter.  ....    10
   Max. Number of Micro iterations      ....    24
   Max. Number of Macro iterations      .... Maxiter - #DIIS iter
   Number of Davidson start vectors     ....     2
   Converg. threshold    (grad. norm)   ....   1.000e-04
   Grad. Scal. Fac. for Micro threshold ....   0.100
   Minimum threshold for Micro iter.    ....   1.000e-02
   NR start threshold (gradient norm)   ....   1.000e-04
   Initial trust radius                 ....   0.400
   Minimum AH scaling param. (alpha)    ....   1.000
   Maximum AH scaling param. (alpha)    .... 1000.000
   Quad. conv. algorithm                .... NR
   White noise on init. David. guess    .... on
   Maximum white noise                  ....   0.010
   Pseudo random numbers                .... off
   Inactive MOs                         .... canonical
   Orbital update algorithm             .... Taylor
   Preconditioner                       .... Diag
   Full preconditioner red. dimension   ....   250
 SOSCF                  CNVSOSCF        .... on
   Start iteration      SOSCFMaxIt      ....   150
   Startup grad/error   SOSCFStart      ....  0.003300
   Hessian update       SOSCFHessUp     .... L-BFGS
 Level Shifting         CNVShift        .... on
   Level shift para.    LevelShift      ....    0.2500
   Turn off err/grad.   ShiftErr        ....    0.0010
 Zerner damping         CNVZerner       .... off
 Static damping         CNVDamp         .... on
   Fraction old density DampFac         ....    0.7000
   Max. Damping (<1)    DampMax         ....    0.9800
   Min. Damping (>=0)   DampMin         ....    0.0000
   Turn off err/grad.   DampErr         ....    0.1000

SCF Procedure:
 Maximum # iterations   MaxIter         ....   125
 SCF integral mode      SCFMode         .... Direct
   Integral package                     .... SHARK and LIBINT hybrid scheme
 Reset frequency        DirectResetFreq ....    20
 Integral Threshold     Thresh          ....  1.000e-09 Eh
 Primitive CutOff       TCut            ....  1.000e-10 Eh

Convergence Tolerance:
 Convergence Check Mode ConvCheckMode   .... Total+1el-Energy
 Convergence forced     ConvForced      .... 0
 Energy Change          TolE            ....  1.000e-05 Eh
 1-El. energy change                    ....  1.000e-02 Eh
 Orbital Gradient       TolG            ....  1.000e-04
 Orbital Rotation angle TolX            ....  1.000e-04
 DIIS Error             TolErr          ....  5.000e-04

------------------------------
INITIAL GUESS: MODEL POTENTIAL
------------------------------
Loading Hartree-Fock densities                     ... done
Calculating cut-offs                               ... done
Initializing the effective Hamiltonian             ... done
Setting up the integral package (SHARK)            ... done
Starting the Coulomb interaction                   ... done (   0.2 sec)
Making the grid                                    ... done (   0.2 sec)
Mapping shells                                     ... done
Starting the XC term evaluation                    ... done (   0.2 sec)
  promolecular density results
     # of electrons  =     95.998780945
     EX              =    -83.246741620
     EC              =     -3.279740847
     EX+EC           =    -86.526482467
Transforming the Hamiltonian                       ... done (   0.0 sec)
Diagonalizing the Hamiltonian                      ... done (   0.0 sec)
Back transforming the eigenvectors                 ... done (   0.0 sec)
Now organizing SCF variables                       ... done
                      ------------------
                      INITIAL GUESS DONE (   0.6 sec)
                      ------------------
             **** ENERGY FILE WAS UPDATED (sp.en.tmp) ****
Finished Guess after   0.7 sec
Maximum memory used throughout the entire GUESS-calculation: 22.7 MB

-------------------------------------------------------------------------------------------
                                      ORCA LEAN-SCF
                              memory conserving SCF solver
-------------------------------------------------------------------------------------------

----------------------------------------D-I-I-S--------------------------------------------
Iteration    Energy (Eh)           Delta-E    RMSDP     MaxDP     DIISErr   Damp  Time(sec)
-------------------------------------------------------------------------------------------
               ***  Starting incremental Fock matrix formation  ***
    1    -685.5383813172305736     0.00e+00  4.55e-03  1.11e-01  2.26e-01  0.700   0.8
    2    -685.6837842185981344    -1.45e-01  2.93e-03  7.96e-02  8.66e-02  0.700   0.7
                               ***Turning on AO-DIIS***
    3    -685.7302860576297689    -4.65e-02  1.06e-03  2.41e-02  1.98e-02  0.700   0.8
    4    -685.7611541800462192    -3.09e-02  1.42e-03  2.23e-02  9.51e-03  0.000   0.7
    5    -685.8321372792482862    -7.10e-02  4.38e-04  1.51e-02  4.40e-03  0.000   0.7
                              *** Initializing SOSCF ***
---------------------------------------S-O-S-C-F--------------------------------------
Iteration    Energy (Eh)           Delta-E    RMSDP     MaxDP     MaxGrad    Time(sec)
--------------------------------------------------------------------------------------
    6    -685.8324424156704708    -3.05e-04  1.33e-04  3.03e-03  1.26e-03     0.7
               *** Restarting incremental Fock matrix formation ***
    7    -685.8324701469238107    -2.77e-05  9.29e-05  2.35e-03  1.68e-04     0.8
    8    -685.8324705236985892    -3.77e-07  3.53e-05  7.25e-04  1.85e-04     0.6
                 **** Energy Check signals convergence ****

               *****************************************************
               *                     SUCCESS                       *
               *           SCF CONVERGED AFTER   8 CYCLES          *
               *****************************************************

             **** ENERGY FILE WAS UPDATED (sp.en.tmp) ****

----------------
TOTAL SCF ENERGY
----------------

Total Energy       :       -685.83247052369859 Eh          -18662.45030 eV

Components:
Nuclear Repulsion  :        867.70114875032948 Eh           23611.34864 eV
Electronic Energy  :      -1553.53361927402807 Eh          -42273.79894 eV
One Electron Energy:      -2663.84254943450787 Eh          -72486.84093 eV
Two Electron Energy:       1110.30893016047980 Eh           30213.04199 eV

Virial components:
Potential Energy   :      -1366.93399892619846 Eh          -37196.16513 eV
Kinetic Energy     :        681.10152840249998 Eh           18533.71482 eV
Virial Ratio       :          2.00694601601070

DFT components:
N(Alpha)           :       47.999807611428 electrons
N(Beta)            :       47.999807611428 electrons
N(Total)           :       95.999615222856 electrons
E(X)               :      -84.605059197590 Eh       
E(C)               :       -3.288298099071 Eh       
E(XC)              :      -87.893357296661 Eh       

---------------
SCF CONVERGENCE
---------------

  Last Energy change         ...    3.7677e-07  Tolerance :   1.0000e-05
  Last MAX-Density change    ...    7.2491e-04  Tolerance :   1.0000e-03
  Last RMS-Density change    ...    3.5346e-05  Tolerance :   1.0000e-04
  Last DIIS Error            ...    1.2560e-03  Tolerance :   5.0000e-04
  Last Orbital Gradient      ...    1.8479e-04  Tolerance :   1.0000e-04
  Last Orbital Rotation      ...    1.4753e-04  Tolerance :   1.0000e-04


----------------
ORBITAL ENERGIES
----------------

  NO   OCC          E(Eh)            E(eV) 
   0   2.0000     -18.797103      -511.4952 
   1   2.0000     -18.779866      -511.0261 
   2   2.0000     -18.773529      -510.8537 
   3   2.0000     -18.761074      -510.5148 
   4   2.0000     -18.752828      -510.2904 
   5   2.0000     -18.731677      -509.7148 
   6   2.0000      -9.986015      -271.7333 
   7   2.0000      -9.967329      -271.2248 
   8   2.0000      -9.964945      -271.1599 
   9   2.0000      -9.950927      -270.7785 
  10   2.0000      -9.949267      -270.7333 
  11   2.0000      -9.929001      -270.1819 
  12   2.0000      -0.991593       -26.9826 
  13   2.0000      -0.967429       -26.3251 
  14   2.0000      -0.956418       -26.0255 
  15   2.0000      -0.931893       -25.3581 
  16   2.0000      -0.920703       -25.0536 
  17   2.0000      -0.906449       -24.6657 
  18   2.0000      -0.719509       -19.5788 
  19   2.0000      -0.693133       -18.8611 
  20   2.0000      -0.621186       -16.9033 
  21   2.0000      -0.601609       -16.3706 
  22   2.0000      -0.584356       -15.9011 
  23   2.0000      -0.529422       -14.4063 
  24   2.0000      -0.516694       -14.0599 
  25   2.0000      -0.504227       -13.7207 
  26   2.0000      -0.484714       -13.1898 
  27   2.0000      -0.460023       -12.5179 
  28   2.0000      -0.455272       -12.3886 
  29   2.0000      -0.435157       -11.8412 
  30   2.0000      -0.425958       -11.5909 
  31   2.0000      -0.404289       -11.0013 
  32   2.0000      -0.397753       -10.8234 
  33   2.0000      -0.384443       -10.4612 
  34   2.0000      -0.371092       -10.0979 
  35   2.0000      -0.358509        -9.7555 
  36   2.0000      -0.341757        -9.2997 
  37   2.0000      -0.324184        -8.8215 
  38   2.0000      -0.321444        -8.7469 
  39   2.0000      -0.297867        -8.1054 
  40   2.0000      -0.289825        -7.8865 
  41   2.0000      -0.272202        -7.4070 
  42   2.0000      -0.269677        -7.3383 
  43   2.0000      -0.266050        -7.2396 
  44   2.0000      -0.241880        -6.5819 
  45   2.0000      -0.236985        -6.4487 
  46   2.0000      -0.208625        -5.6770 
  47   2.0000      -0.203506        -5.5377 
  48   0.0000      -0.008954        -0.2437 
  49   0.0000       0.003583         0.0975 
  50   0.0000       0.052962         1.4412 
  51   0.0000       0.055403         1.5076 
  52   0.0000       0.061710         1.6792 
  53   0.0000       0.065358         1.7785 
  54   0.0000       0.078012         2.1228 
  55   0.0000       0.084652         2.3035 
  56   0.0000       0.099456         2.7063 
  57   0.0000       0.102552         2.7906 
  58   0.0000       0.115691         3.1481 
*Only the first 10 virtual orbitals were printed.

                    ********************************
                    * MULLIKEN POPULATION ANALYSIS *
                    ********************************

-----------------------
MULLIKEN ATOMIC CHARGES
-----------------------
   0 C :    0.015530
   1 C :    0.031791
   2 H :    0.089313
   3 C :    0.032226
   4 H :    0.083970
   5 C :   -0.002596
   6 H :    0.067987
   7 C :    0.036789
   8 H :    0.072723
   9 C :    0.193336
  10 H :    0.081550
  11 O :   -0.314904
  12 O :   -0.411219
  13 O :   -0.421633
  14 O :   -0.407093
  15 O :   -0.407139
  16 O :   -0.433999
  17 H :    0.078903
  18 H :    0.085730
  19 H :    0.304294
  20 H :    0.303457
  21 H :    0.316876
  22 H :    0.305110
  23 H :    0.298997
Sum of atomic charges:   -0.0000000

--------------------------------
MULLIKEN REDUCED ORBITAL CHARGES
--------------------------------
  0 C s       :     3.040592  s :     3.040592
      pz      :     1.030649  p :     2.879414
      px      :     1.048916
      py      :     0.799849
      dz2     :     0.011429  d :     0.064463
      dxz     :     0.007850
      dyz     :     0.015537
      dx2y2   :     0.013286
      dxy     :     0.016361

  1 C s       :     3.053915  s :     3.053915
      pz      :     1.064335  p :     2.848858
      px      :     0.910983
      py      :     0.873540
      dz2     :     0.010766  d :     0.065435
      dxz     :     0.016571
      dyz     :     0.008299
      dx2y2   :     0.014193
      dxy     :     0.015606

  2 H s       :     0.910687  s :     0.910687

  3 C s       :     3.053576  s :     3.053576
      pz      :     0.802359  p :     2.847155
      px      :     1.010098
      py      :     1.034697
      dz2     :     0.014656  d :     0.067043
      dxz     :     0.018854
      dyz     :     0.015956
      dx2y2   :     0.007706
      dxy     :     0.009872

  4 H s       :     0.916030  s :     0.916030

  5 C s       :     3.078839  s :     3.078839
      pz      :     0.755543  p :     2.857833
      px      :     1.074530
      py      :     1.027760
      dz2     :     0.019437  d :     0.065924
      dxz     :     0.014540
      dyz     :     0.013373
      dx2y2   :     0.008922
      dxy     :     0.009652

  6 H s       :     0.932013  s :     0.932013

  7 C s       :     3.060490  s :     3.060490
      pz      :     0.839289  p :     2.833917
      px      :     1.002463
      py      :     0.992165
      dz2     :     0.015578  d :     0.068804
      dxz     :     0.018103
      dyz     :     0.015479
      dx2y2   :     0.009864
      dxy     :     0.009780

  8 H s       :     0.927277  s :     0.927277

  9 C s       :     3.009721  s :     3.009721
      pz      :     0.815623  p :     2.696095
      px      :     0.866693
      py      :     1.013778
      dz2     :     0.022581  d :     0.100848
      dxz     :     0.027103
      dyz     :     0.019831
      dx2y2   :     0.014339
      dxy     :     0.016996

 10 H s       :     0.918450  s :     0.918450

 11 O s       :     3.753066  s :     3.753066
      pz      :     1.655012  p :     4.546406
      px      :     1.284726
      py      :     1.606669
      dz2     :     0.002131  d :     0.015432
      dxz     :     0.004539
      dyz     :     0.002508
      dx2y2   :     0.002768
      dxy     :     0.003485

 12 O s       :     3.771463  s :     3.771463
      pz      :     1.260124  p :     4.624208
      px      :     1.769639
      py      :     1.594446
      dz2     :     0.001776  d :     0.015548
      dxz     :     0.001907
      dyz     :     0.006780
      dx2y2   :     0.002065
      dxy     :     0.003021

 13 O s       :     3.783015  s :     3.783015
      pz      :     1.252086  p :     4.622903
      px      :     1.534464
      py      :     1.836353
      dz2     :     0.001925  d :     0.015715
      dxz     :     0.006927
      dyz     :     0.001682
      dx2y2   :     0.003682
      dxy     :     0.001499

 14 O s       :     3.785897  s :     3.785897
      pz      :     1.267759  p :     4.606008
      px      :     1.503362
      py      :     1.834887
      dz2     :     0.002478  d :     0.015187
      dxz     :     0.005901
      dyz     :     0.001847
      dx2y2   :     0.003516
      dxy     :     0.001444

 15 O s       :     3.785681  s :     3.785681
      pz      :     1.460898  p :     4.606057
      px      :     1.828381
      py      :     1.316778
      dz2     :     0.005624  d :     0.015401
      dxz     :     0.002057
      dyz     :     0.002454
      dx2y2   :     0.003044
      dxy     :     0.002222

 16 O s       :     3.780665  s :     3.780665
      pz      :     1.862959  p :     4.637525
      px      :     1.517709
      py      :     1.256857
      dz2     :     0.002453  d :     0.015809
      dxz     :     0.001819
      dyz     :     0.001672
      dx2y2   :     0.004583
      dxy     :     0.005283

 17 H s       :     0.921097  s :     0.921097

 18 H s       :     0.914270  s :     0.914270

 19 H s       :     0.695706  s :     0.695706

 20 H s       :     0.696543  s :     0.696543

 21 H s       :     0.683124  s :     0.683124

 22 H s       :     0.694890  s :     0.694890

 23 H s       :     0.701003  s :     0.701003


------------------------
MULLIKEN OVERLAP CHARGES
------------------------
B(  0-C ,  1-C ) :   0.5626 B(  0-C , 11-O ) :  -0.1523 B(  0-C , 16-O ) :   0.6949 
B(  0-C , 17-H ) :   0.6735 B(  0-C , 18-H ) :   0.6588 B(  0-C , 23-H ) :  -0.1113 
B(  1-C ,  2-H ) :   0.6162 B(  1-C ,  3-C ) :   0.3111 B(  1-C ,  4-H ) :  -0.0801 
B(  1-C ,  7-C ) :  -0.1143 B(  1-C ,  9-C ) :  -0.1056 B(  1-C , 11-O ) :   0.6725 
B(  1-C , 15-O ) :  -0.1021 B(  1-C , 16-O ) :  -0.0679 B(  1-C , 17-H ) :  -0.0857 
B(  2-H , 11-O ) :  -0.0645 B(  3-C ,  4-H ) :   0.6645 B(  3-C ,  5-C ) :   0.2484 
B(  3-C ,  6-H ) :  -0.0961 B(  3-C ,  7-C ) :   0.0701 B(  3-C ,  9-C ) :  -0.1214 
B(  3-C , 11-O ) :  -0.0640 B(  3-C , 14-O ) :  -0.1009 B(  3-C , 15-O ) :   0.5361 
B(  3-C , 22-H ) :  -0.0739 B(  4-H ,  5-C ) :  -0.0681 B(  5-C ,  6-H ) :   0.6956 
B(  5-C ,  7-C ) :   0.2795 B(  5-C ,  8-H ) :  -0.1034 B(  5-C , 11-O ) :  -0.0678 
B(  5-C , 13-O ) :  -0.0855 B(  5-C , 14-O ) :   0.4512 B(  5-C , 15-O ) :  -0.0563 
B(  5-C , 21-H ) :  -0.0598 B(  6-H ,  7-C ) :  -0.0965 B(  7-C ,  8-H ) :   0.6572 
B(  7-C ,  9-C ) :   0.5361 B(  7-C , 10-H ) :  -0.0838 B(  7-C , 11-O ) :  -0.0524 
B(  7-C , 12-O ) :  -0.0606 B(  7-C , 13-O ) :   0.5904 B(  7-C , 14-O ) :  -0.0568 
B(  7-C , 20-H ) :  -0.1005 B(  8-H ,  9-C ) :  -0.0519 B(  9-C , 10-H ) :   0.7070 
B(  9-C , 11-O ) :   0.5978 B(  9-C , 12-O ) :   0.6496 B(  9-C , 13-O ) :  -0.0630 
B(  9-C , 19-H ) :  -0.1002 B( 10-H , 11-O ) :  -0.0716 B( 10-H , 12-O ) :  -0.0583 
B( 11-O , 12-O ) :  -0.1307 B( 11-O , 23-H ) :   0.0504 B( 12-O , 19-H ) :   0.5272 
B( 13-O , 20-H ) :   0.5418 B( 14-O , 19-H ) :   0.1098 B( 14-O , 21-H ) :   0.5097 
B( 15-O , 20-H ) :   0.0863 B( 15-O , 22-H ) :   0.5136 B( 16-O , 17-H ) :  -0.0734 
B( 16-O , 18-H ) :  -0.0631 B( 16-O , 23-H ) :   0.5415 B( 17-H , 18-H ) :  -0.0868 



                     *******************************
                     * LOEWDIN POPULATION ANALYSIS *
                     *******************************

----------------------
LOEWDIN ATOMIC CHARGES
----------------------
   0 C :   -0.146773
   1 C :   -0.070264
   2 H :    0.127272
   3 C :   -0.067921
   4 H :    0.112571
   5 C :   -0.083455
   6 H :    0.101582
   7 C :   -0.094315
   8 H :    0.114013
   9 C :   -0.011773
  10 H :    0.114577
  11 O :   -0.138935
  12 O :   -0.308998
  13 O :   -0.311543
  14 O :   -0.304921
  15 O :   -0.302399
  16 O :   -0.333601
  17 H :    0.090155
  18 H :    0.116564
  19 H :    0.267868
  20 H :    0.273598
  21 H :    0.296968
  22 H :    0.287695
  23 H :    0.272036

-------------------------------
LOEWDIN REDUCED ORBITAL CHARGES
-------------------------------
  0 C s       :     2.920840  s :     2.920840
      pz      :     1.087283  p :     3.079731
      px      :     1.100720
      py      :     0.891728
      dz2     :     0.026405  d :     0.146202
      dxz     :     0.020998
      dyz     :     0.034986
      dx2y2   :     0.029285
      dxy     :     0.034527

  1 C s       :     2.898303  s :     2.898303
      pz      :     1.099531  p :     3.019031
      px      :     0.959093
      py      :     0.960407
      dz2     :     0.024656  d :     0.152930
      dxz     :     0.040745
      dyz     :     0.018387
      dx2y2   :     0.031943
      dxy     :     0.037200

  2 H s       :     0.872728  s :     0.872728

  3 C s       :     2.891711  s :     2.891711
      pz      :     0.910099  p :     3.020062
      px      :     1.062345
      py      :     1.047618
      dz2     :     0.033030  d :     0.156148
      dxz     :     0.045629
      dyz     :     0.034041
      dx2y2   :     0.020744
      dxy     :     0.022704

  4 H s       :     0.887429  s :     0.887429

  5 C s       :     2.904069  s :     2.904069
      pz      :     0.859811  p :     3.023713
      px      :     1.087960
      py      :     1.075941
      dz2     :     0.043805  d :     0.155673
      dxz     :     0.035530
      dyz     :     0.031080
      dx2y2   :     0.021011
      dxy     :     0.024247

  6 H s       :     0.898418  s :     0.898418

  7 C s       :     2.896199  s :     2.896199
      pz      :     0.923735  p :     3.036421
      px      :     1.055784
      py      :     1.056902
      dz2     :     0.035968  d :     0.161695
      dxz     :     0.041933
      dyz     :     0.034957
      dx2y2   :     0.021701
      dxy     :     0.027135

  8 H s       :     0.885987  s :     0.885987

  9 C s       :     2.883385  s :     2.883385
      pz      :     0.911305  p :     2.901711
      px      :     0.929461
      py      :     1.060946
      dz2     :     0.051478  d :     0.226677
      dxz     :     0.061060
      dyz     :     0.043251
      dx2y2   :     0.031698
      dxy     :     0.039191

 10 H s       :     0.885423  s :     0.885423

 11 O s       :     3.469262  s :     3.469262
      pz      :     1.675304  p :     4.639586
      px      :     1.340045
      py      :     1.624237
      dz2     :     0.003459  d :     0.030088
      dxz     :     0.009345
      dyz     :     0.003546
      dx2y2   :     0.006156
      dxy     :     0.007581

 12 O s       :     3.526312  s :     3.526312
      pz      :     1.339892  p :     4.755217
      px      :     1.776398
      py      :     1.638926
      dz2     :     0.004595  d :     0.027469
      dxz     :     0.003510
      dyz     :     0.012789
      dx2y2   :     0.002414
      dxy     :     0.004160

 13 O s       :     3.527015  s :     3.527015
      pz      :     1.329548  p :     4.757078
      px      :     1.592154
      py      :     1.835376
      dz2     :     0.004602  d :     0.027451
      dxz     :     0.012507
      dyz     :     0.003516
      dx2y2   :     0.005059
      dxy     :     0.001767

 14 O s       :     3.534752  s :     3.534752
      pz      :     1.333476  p :     4.743400
      px      :     1.567184
      py      :     1.842740
      dz2     :     0.005899  d :     0.026769
      dxz     :     0.010690
      dyz     :     0.003379
      dx2y2   :     0.005109
      dxy     :     0.001692

 15 O s       :     3.535086  s :     3.535086
      pz      :     1.528701  p :     4.740147
      px      :     1.831082
      py      :     1.380363
      dz2     :     0.009961  d :     0.027166
      dxz     :     0.003000
      dyz     :     0.004991
      dx2y2   :     0.005334
      dxy     :     0.003881

 16 O s       :     3.529818  s :     3.529818
      pz      :     1.867771  p :     4.776400
      px      :     1.573881
      py      :     1.334749
      dz2     :     0.003800  d :     0.027383
      dxz     :     0.002370
      dyz     :     0.002958
      dx2y2   :     0.008818
      dxy     :     0.009438

 17 H s       :     0.909845  s :     0.909845

 18 H s       :     0.883436  s :     0.883436

 19 H s       :     0.732132  s :     0.732132

 20 H s       :     0.726402  s :     0.726402

 21 H s       :     0.703032  s :     0.703032

 22 H s       :     0.712305  s :     0.712305

 23 H s       :     0.727964  s :     0.727964


---------------------------------
LOEWDIN BOND ORDERS (THRESH 0.050000)
---------------------------------
B(  0-C ,  1-C ) :   1.0480 B(  0-C ,  3-C ) :   0.0602 B(  0-C , 11-O ) :   0.0630 
B(  0-C , 16-O ) :   1.2673 B(  0-C , 17-H ) :   0.8940 B(  0-C , 18-H ) :   0.9055 
B(  1-C ,  2-H ) :   0.8725 B(  1-C ,  3-C ) :   1.0276 B(  1-C ,  9-C ) :   0.0609 
B(  1-C , 11-O ) :   1.1392 B(  1-C , 15-O ) :   0.0625 B(  1-C , 16-O ) :   0.0825 
B(  3-C ,  4-H ) :   0.8674 B(  3-C ,  5-C ) :   1.0187 B(  3-C ,  7-C ) :   0.0509 
B(  3-C , 11-O ) :   0.0553 B(  3-C , 14-O ) :   0.0572 B(  3-C , 15-O ) :   1.2028 
B(  5-C ,  6-H ) :   0.8712 B(  5-C ,  7-C ) :   1.0154 B(  5-C ,  9-C ) :   0.0556 
B(  5-C , 13-O ) :   0.0864 B(  5-C , 14-O ) :   1.1881 B(  5-C , 15-O ) :   0.0791 
B(  7-C ,  8-H ) :   0.8733 B(  7-C ,  9-C ) :   1.0111 B(  7-C , 11-O ) :   0.0615 
B(  7-C , 12-O ) :   0.0763 B(  7-C , 13-O ) :   1.2449 B(  7-C , 14-O ) :   0.0742 
B(  9-C , 10-H ) :   0.8842 B(  9-C , 11-O ) :   1.1823 B(  9-C , 12-O ) :   1.2814 
B(  9-C , 13-O ) :   0.0823 B( 11-O , 12-O ) :   0.0920 B( 12-O , 19-H ) :   0.8457 
B( 13-O , 20-H ) :   0.8576 B( 14-O , 19-H ) :   0.0772 B( 14-O , 21-H ) :   0.8747 
B( 15-O , 20-H ) :   0.0627 B( 15-O , 22-H ) :   0.8769 B( 16-O , 23-H ) :   0.8679 


------------------------------------------
LOEWDIN REDUCED ORBITAL POPULATIONS PER MO
-------------------------------------------
THRESHOLD FOR PRINTING IS 0.1%%
                      0         1         2         3         4         5   
                 -18.79710 -18.77987 -18.77353 -18.76107 -18.75283 -18.73168
                   2.00000   2.00000   2.00000   2.00000   2.00000   2.00000
                  --------  --------  --------  --------  --------  --------
11 O  s               0.0       0.0      99.9       0.0       0.0       0.0
12 O  s               0.0       0.0       0.0      99.9       0.0       0.0
13 O  s               0.0       0.0       0.0       0.0      99.9       0.0
14 O  s              99.9       0.0       0.0       0.0       0.0       0.0
15 O  s               0.0      99.9       0.0       0.0       0.0       0.0
16 O  s               0.0       0.0       0.0       0.0       0.0      99.9

                      6         7         8         9        10        11   
                  -9.98601  -9.96733  -9.96495  -9.95093  -9.94927  -9.92900
                   2.00000   2.00000   2.00000   2.00000   2.00000   2.00000
                  --------  --------  --------  --------  --------  --------
 0 C  s               0.0       0.0       0.0       0.0       0.0      99.6
 1 C  s               0.0       0.0       0.0       0.0      99.6       0.0
 3 C  s               0.0       0.0      99.6       0.0       0.0       0.0
 5 C  s               0.0      99.6       0.0       0.0       0.0       0.0
 7 C  s               0.0       0.0       0.0      99.6       0.0       0.0
 9 C  s              99.6       0.0       0.0       0.0       0.0       0.0
12 O  pz              0.1       0.0       0.0       0.0       0.0       0.0
14 O  pz              0.0       0.1       0.0       0.0       0.0       0.0
16 O  py              0.0       0.0       0.0       0.0       0.0       0.1

                     12        13        14        15        16        17   
                  -0.99159  -0.96743  -0.95642  -0.93189  -0.92070  -0.90645
                   2.00000   2.00000   2.00000   2.00000   2.00000   2.00000
                  --------  --------  --------  --------  --------  --------
 0 C  s               0.6       0.2       0.0       0.2       4.5       6.1
 0 C  pz              0.2       0.1       0.0       0.0       0.3       0.0
 0 C  px              0.2       0.0       0.0       0.0       0.0       0.3
 0 C  py              0.0       0.1       0.0       0.1       2.4       6.4
 0 C  dz2             0.0       0.0       0.0       0.0       0.0       0.2
 0 C  dx2y2           0.0       0.0       0.0       0.0       0.2       0.4
 1 C  s               4.3       1.0       0.3       0.3       3.4       0.6
 1 C  pz              0.1       0.1       0.0       0.0       0.0       1.0
 1 C  px              2.2       0.5       0.0       0.0       0.3       2.2
 1 C  py              0.7       1.3       1.2       0.0       1.6       0.2
 1 C  dxy             0.1       0.1       0.0       0.0       0.1       0.2
 2 H  s               0.6       0.1       0.1       0.1       0.5       0.1
 3 C  s               2.6       0.6       7.6       0.5       0.0       0.0
 3 C  pz              0.2       0.2       6.7       0.4       0.1       0.0
 3 C  px              0.3       0.5       0.1       0.1       0.0       0.0
 3 C  py              0.2       0.3       1.8       0.1       0.7       0.2
 3 C  dz2             0.0       0.0       0.3       0.0       0.0       0.0
 3 C  dyz             0.0       0.0       0.4       0.0       0.0       0.0
 4 H  s               0.3       0.1       0.8       0.1       0.0       0.0
 5 C  s               3.9       7.0       0.0       0.1       0.0       0.0
 5 C  pz              0.4       6.2       2.7       0.6       0.1       0.0
 5 C  px              0.1       0.2       0.3       0.9       0.0       0.0
 5 C  py              0.5       0.1       0.2       0.2       0.0       0.0
 5 C  dz2             0.1       0.5       0.1       0.0       0.0       0.0
 6 H  s               0.5       0.9       0.0       0.0       0.0       0.0
 7 C  s               3.4       0.0       0.0       8.8       0.1       0.1
 7 C  pz              0.1       0.4       0.4       7.8       0.0       0.0
 7 C  px              0.9       0.0       0.0       0.7       0.0       0.1
 7 C  py              0.2       1.1       0.2       1.0       0.2       0.0
 7 C  dz2             0.0       0.0       0.0       0.5       0.0       0.0
 7 C  dxz             0.0       0.0       0.0       0.1       0.0       0.0
 7 C  dyz             0.0       0.0       0.0       0.2       0.0       0.0
 8 H  s               0.5       0.0       0.0       1.0       0.0       0.0
 9 C  s              11.2       3.3       0.9       0.0       1.1       0.0
 9 C  pz              0.2       0.0       0.5       0.4       7.8       3.5
 9 C  px              2.5       1.4       0.1       0.7       0.9       1.4
 9 C  py              0.1       0.1       0.1       1.2       0.9       0.2
 9 C  dz2             0.1       0.0       0.0       0.0       0.4       0.1
 9 C  dxz             0.1       0.0       0.0       0.0       0.2       0.2
 9 C  dyz             0.1       0.0       0.0       0.0       0.1       0.0
 9 C  dx2y2           0.1       0.0       0.0       0.0       0.1       0.1
10 H  s               1.3       0.4       0.1       0.0       0.1       0.0
11 O  s              20.9       9.5       0.3       0.5      10.8      13.0
11 O  pz              1.1       0.4       0.0       0.0       0.1       0.2
11 O  px              0.2       0.1       0.1       0.0       0.3       0.0
11 O  py              0.3       0.1       0.0       0.0       0.4       0.3
12 O  s              12.4       4.0       3.8       1.5      29.6       8.1
12 O  pz              0.5       0.2       0.0       0.0       0.1       0.0
12 O  py              0.8       0.2       0.2       0.1       1.3       0.3
13 O  s               2.6       0.0       1.1      52.5       0.0       1.1
13 O  pz              0.1       0.0       0.0       0.5       0.0       0.0
13 O  px              0.2       0.0       0.1       2.5       0.0       0.0
13 O  py              0.0       0.0       0.0       0.2       0.0       0.0
14 O  s               9.7      44.3       4.5       0.4       0.5       0.1
14 O  pz              0.2       0.4       0.0       0.0       0.0       0.0
14 O  px              0.4       1.8       0.2       0.0       0.0       0.0
14 O  py              0.0       0.2       0.0       0.0       0.0       0.0
15 O  s               3.5       1.1      49.0       3.3       1.3       0.3
15 O  pz              0.3       0.1       2.3       0.1       0.0       0.0
15 O  px              0.0       0.0       0.1       0.0       0.0       0.0
15 O  py              0.0       0.0       0.4       0.0       0.0       0.0
16 O  s               0.5       0.4       0.0       0.7      17.3      39.2
16 O  px              0.0       0.0       0.0       0.0       0.8       1.6
16 O  py              0.0       0.0       0.0       0.0       0.4       0.7
17 H  s               0.2       0.0       0.0       0.1       0.4       0.7
18 H  s               0.1       0.0       0.0       0.0       0.5       0.7
19 H  s               3.3       0.3       1.0       0.3       5.6       1.7
20 H  s               0.9       0.0       0.6       9.8       0.0       0.2
21 H  s               1.9       9.0       0.9       0.1       0.1       0.0
22 H  s               0.7       0.3       9.9       0.6       0.3       0.1
23 H  s               0.4       0.2       0.0       0.2       3.5       7.6

                     18        19        20        21        22        23   
                  -0.71951  -0.69313  -0.62119  -0.60161  -0.58436  -0.52942
                   2.00000   2.00000   2.00000   2.00000   2.00000   2.00000
                  --------  --------  --------  --------  --------  --------
 0 C  s               2.8       2.7      12.9       0.0      10.3       1.5
 0 C  pz              0.6       0.7       0.1       0.2       1.0       3.5
 0 C  px              0.5       0.5       0.0       0.1       0.2       0.8
 0 C  py              1.6       1.1       2.1       0.2       0.6       0.1
 1 C  s              10.4       8.9       2.5       0.5       1.7       4.2
 1 C  pz              1.0       0.0       1.8       1.1       4.7       0.9
 1 C  px              0.0       0.5       3.9       0.2       0.9       0.7
 1 C  py              3.4       0.1       0.0       6.4       2.1       0.6
 1 C  dxy             0.1       0.0       0.0       0.2       0.0       0.0
 2 H  s               1.8       2.3       0.8       0.3       1.3       2.8
 3 C  s              15.1       0.0       1.8       7.5       1.6       1.0
 3 C  pz              2.1       0.6       0.7       0.2       4.3       0.7
 3 C  px              0.1       3.4       2.3       1.5       1.8       0.1
 3 C  py              2.9       1.1       0.7       0.0       1.1       0.7
 4 H  s               3.2       0.0       0.3       3.5       0.0       0.2
 5 C  s               9.7       8.1       3.7       1.7       3.7       0.4
 5 C  pz              2.4       1.1       0.1       0.0       0.5       3.0
 5 C  px              1.4       1.0       2.2       6.9       0.4       0.2
 5 C  py              0.1       0.5       1.9       0.3       1.3       0.1
 6 H  s               1.6       1.7       1.4       1.0       1.8       0.1
 7 C  s               1.6      11.5       6.0       4.6       2.8       0.4
 7 C  pz              0.8       2.0       0.2       2.1       0.0       0.2
 7 C  px              0.8       1.5       0.6       0.3       0.7       0.1
 7 C  py              1.0       0.3       3.7       3.3       1.1       0.8
 7 C  dz2             0.0       0.2       0.0       0.0       0.0       0.0
 8 H  s               0.3       2.5       2.7       2.4       1.7       0.0
 9 C  s               0.7       8.2       4.6       7.0       0.0       1.6
 9 C  pz              0.9       0.7       0.0       1.5       0.3       3.1
 9 C  px              0.5       0.7       3.2       0.1       2.1       3.3
 9 C  py              0.8       1.7       0.8       2.8       0.9       3.4
 9 C  dxz             0.1       0.0       0.0       0.0       0.0       0.1
10 H  s               0.3       1.9       1.6       3.9       0.0       1.7
11 O  s               2.7       0.0       1.6       0.6       0.3       0.8
11 O  pz              0.0       0.1       0.1       0.3       0.3       0.1
11 O  px              2.1       7.3       0.2      11.0       1.5       5.8
11 O  py              1.2       0.9       0.0       1.8       1.5       0.2
12 O  s               0.0       2.4       1.2       0.4       0.0       0.0
12 O  pz              0.2       2.2       2.1       6.1       0.0      16.2
12 O  px              0.0       0.3       0.6       0.4       0.2       3.5
12 O  py              0.0       0.0       0.1       0.3       0.0       0.8
12 O  dyz             0.0       0.0       0.0       0.1       0.0       0.1
13 O  s               0.7       4.4       0.8       0.5       0.3       0.3
13 O  pz              0.4       2.7       2.6       3.4       2.2       1.9
13 O  px              0.0       0.1       0.3       0.2       0.2       0.0
13 O  py              0.0       0.2       0.6       0.0       0.4       0.0
14 O  s               2.6       1.7       0.2       0.5       0.2       0.0
14 O  pz              3.5       2.7       2.8       0.7       7.1       7.1
14 O  px              0.7       0.1       0.6       0.3       1.6       0.9
14 O  py              0.0       0.0       0.2       0.1       0.2       0.6
15 O  s               4.2       0.0       0.7       0.6       0.0       0.1
15 O  pz              1.4       0.0       0.7       2.2       1.1       2.5
15 O  px              0.3       0.1       0.0       0.7       1.4       0.3
15 O  py              3.0       0.1       0.6       3.7       6.7       3.8
16 O  s               0.8       1.3       2.1       0.1       1.6       0.0
16 O  pz              0.0       0.0       0.1       0.0       0.4       0.7
16 O  px              0.0       0.0       0.6       0.0       0.7       0.6
16 O  py              0.4       0.5       4.7       0.0       5.9       2.3
17 H  s               0.7       0.7       3.0       0.0       3.9       1.8
18 H  s               0.6       0.6       4.4       0.1       4.0       1.1
19 H  s               0.1       1.4       0.8       1.9       0.0       6.1
20 H  s               0.3       1.9       1.1       1.0       0.8       0.5
21 H  s               2.1       1.1       1.0       0.1       2.6       2.0
22 H  s               2.4       0.0       0.4       2.0       2.6       1.8
23 H  s               0.3       0.4       2.2       0.0       2.2       0.9

                     24        25        26        27        28        29   
                  -0.51669  -0.50423  -0.48471  -0.46002  -0.45527  -0.43516
                   2.00000   2.00000   2.00000   2.00000   2.00000   2.00000
                  --------  --------  --------  --------  --------  --------
 0 C  s               0.3       0.2       0.1       0.1       0.4       0.0
 0 C  pz              0.2       0.0       0.3       1.2       3.1       0.1
 0 C  px              1.1       0.8       4.5       1.6       4.7       0.0
 0 C  py              0.1       0.5       1.4       4.4       0.0       0.0
 1 C  s               0.0       0.0       0.6       0.9       0.8       0.8
 1 C  pz              0.9       0.9       5.9       0.8       5.1       0.3
 1 C  px              1.1       0.2       0.1       6.4       4.6       0.0
 1 C  py              0.7       0.0       0.1       3.0       0.6       0.5
 1 C  dyz             0.0       0.0       0.0       0.1       0.0       0.0
 1 C  dxy             0.0       0.0       0.0       0.1       0.0       0.1
 2 H  s               0.3       0.1       0.6       1.6       5.1       0.8
 3 C  s               0.1       1.3       0.4       1.1       0.1       0.6
 3 C  pz              0.6       6.3       5.6       2.9       1.7       0.5
 3 C  px              0.3       4.6       0.2       3.2       1.1       8.7
 3 C  py              2.9       2.7       0.5       2.0       0.5       7.9
 3 C  dz2             0.0       0.0       0.5       0.0       0.1       0.0
 3 C  dyz             0.0       0.0       0.0       0.0       0.1       0.0
 3 C  dxy             0.0       0.0       0.0       0.1       0.0       0.1
 4 H  s               0.0       6.6       0.7       0.9       1.5       8.0
 5 C  s               1.8       0.7       0.1       0.4       0.2       0.2
 5 C  pz              1.7       1.5       8.1       1.7       0.0       1.9
 5 C  px              4.6       2.4       0.1       8.3       0.1       2.5
 5 C  py             13.0       1.2       0.2       0.1       2.9       0.2
 5 C  dz2             0.1       0.0       0.3       0.0       0.0       0.1
 5 C  dxz             0.1       0.0       0.1       0.1       0.0       0.0
 5 C  dx2y2           0.0       0.1       0.0       0.0       0.0       0.0
 5 C  dxy             0.0       0.0       0.0       0.0       0.0       0.1
 6 H  s               8.8       0.1       0.6       0.7       1.9       0.0
 7 C  s               0.1       0.3       0.0       0.0       0.0       0.5
 7 C  pz              0.0       2.2       0.0       0.8       0.0      14.8
 7 C  px              2.3      13.1       2.6       0.0       0.8       1.3
 7 C  py              5.5       0.0       0.3       3.9       3.1       0.7
 7 C  dxz             0.0       0.0       0.0       0.0       0.1       0.1
 8 H  s               0.2       1.7       0.5       0.0       0.1       6.0
 9 C  s               0.0       0.3       0.1       0.0       0.6       0.1
 9 C  pz              0.3       0.9       0.3       2.6       6.9       3.3
 9 C  px              0.0       0.0       0.7       4.1       4.2       0.4
 9 C  py              9.4       0.9       0.4       1.0       1.1       1.5
 9 C  dyz             0.1       0.0       0.0       0.1       0.1       0.0
10 H  s               0.4       0.0       0.2       0.0       2.5       2.2
11 O  s               0.7       0.8       1.0       0.1       0.1       0.9
11 O  pz              0.2       0.0       2.7       0.4       6.5       0.3
11 O  px              0.8       0.0       0.1       8.7       1.2       0.8
11 O  py              1.5       1.7       0.1       5.1       0.1       0.5
12 O  s               0.8       0.1       0.2       0.0       0.2       0.7
12 O  pz              4.8       1.2       0.4       1.0      12.5       0.4
12 O  px              0.7       0.3       0.2       2.5       0.1       0.0
12 O  py              2.5       0.2       0.1       0.1       0.2       2.4
13 O  s               0.0       0.4       0.1       0.0       0.4       0.4
13 O  pz              1.7      14.3       0.4       0.0       2.8      14.0
13 O  px              0.5       6.5       0.9       0.0       1.4       0.0
13 O  py              0.4       1.3       0.3       0.6       0.4       1.1
13 O  dxz             0.0       0.1       0.0       0.0       0.0       0.2
14 O  s               0.8       0.3       0.4       0.4       0.4       1.1
14 O  pz              5.1       0.4      17.1       3.4       0.1       0.4
14 O  px              5.5       2.5       3.4       1.2       1.0       2.9
14 O  py              3.3       0.1       0.0       0.0       0.7       0.1
14 O  dxz             0.0       0.0       0.1       0.1       0.0       0.0
15 O  s               0.4       0.3       0.9       1.0       0.6       0.2
15 O  pz              2.1       0.1       0.7       1.4       0.3       2.1
15 O  px              0.1       0.4       2.8       1.1       0.1       3.0
15 O  py              1.3       6.4      11.7       1.8       4.5       0.3
16 O  s               0.1       0.0       0.0       0.1       0.5       0.0
16 O  pz              0.0       0.1       0.4       0.9       0.2       0.0
16 O  px              0.3       0.6       2.6       3.2       1.9       0.0
16 O  py              1.3       1.6       4.4       7.2       0.1       0.0
17 H  s               0.2       0.0       0.0       0.0       3.1       0.0
18 H  s               0.5       0.2       0.6       0.0       0.4       0.0
19 H  s               2.4       0.3       0.0       0.4       2.4       0.0
20 H  s               0.6       6.3       0.2       0.1       0.9       2.8
21 H  s               3.1       0.5       5.5       0.2       0.2       0.1
22 H  s               0.7       1.3       4.2       0.4       1.4       0.1
23 H  s               0.4       0.8       2.0       3.4       0.3       0.0

                     30        31        32        33        34        35   
                  -0.42596  -0.40429  -0.39775  -0.38444  -0.37109  -0.35851
                   2.00000   2.00000   2.00000   2.00000   2.00000   2.00000
                  --------  --------  --------  --------  --------  --------
 0 C  s               1.3       0.1       0.0       0.4       0.0       0.3
 0 C  pz              2.1      18.5       1.1       3.5       2.3       3.4
 0 C  px              8.5       0.3       1.4       8.1       5.6       2.6
 0 C  py              1.7       1.0       1.5      10.7       3.3       2.5
 0 C  dz2             0.2       0.0       0.0       0.0       0.0       0.1
 0 C  dxz             0.0       0.1       0.0       0.0       0.0       0.1
 0 C  dx2y2           0.1       0.0       0.0       0.2       0.1       0.1
 0 C  dxy             0.1       0.0       0.1       0.3       0.0       0.0
 1 C  s               0.1       0.1       0.5       0.6       0.0       0.2
 1 C  pz              0.5       0.9       0.8       3.3       0.5       7.4
 1 C  px              0.0       6.9       4.8       0.3       0.0       2.0
 1 C  py              5.5       6.7       1.7       0.1       0.3       0.9
 1 C  dz2             0.1       0.0       0.0       0.0       0.0       0.1
 1 C  dxz             0.1       0.0       0.0       0.0       0.0       0.3
 1 C  dyz             0.0       0.2       0.0       0.1       0.0       0.0
 1 C  dxy             0.0       0.0       0.0       0.2       0.0       0.0
 2 H  s               0.4       0.5       0.8       0.6       0.1       7.8
 3 C  s               0.3       0.3       0.1       0.5       0.0       0.3
 3 C  pz              0.9       0.5       0.3       0.1       0.0       0.0
 3 C  px              2.8       0.6       1.6       0.5       7.6       0.3
 3 C  py              2.8       6.2       2.2       2.0       2.2       0.0
 3 C  dz2             0.1       0.1       0.0       0.0       0.0       0.0
 3 C  dyz             0.1       0.1       0.1       0.0       0.0       0.1
 3 C  dx2y2           0.0       0.0       0.2       0.0       0.0       0.0
 3 C  dxy             0.0       0.0       0.1       0.0       0.2       0.0
 4 H  s               0.7       0.1       0.2       0.5       3.6       0.0
 5 C  s               0.0       0.0       0.0       0.0       0.1       0.2
 5 C  pz              0.0       0.0       5.2       0.1       0.3       1.5
 5 C  px              0.1       0.5       0.5       0.1       3.8       0.3
 5 C  py              4.6       0.4      11.6       0.8       2.2       2.8
 5 C  dz2             0.0       0.0       0.0       0.0       0.0       0.2
 5 C  dxz             0.0       0.0       0.0       0.1       0.1       0.2
 5 C  dxy             0.0       0.0       0.2       0.0       0.0       0.0
 6 H  s               1.6       0.0       6.0       0.3       0.3       3.3
 7 C  s               0.0       0.0       0.5       0.1       0.3       0.0
 7 C  pz              0.0       2.4       1.4       2.9       3.4       0.6
 7 C  px              0.2       1.6       0.7       3.1      10.0       0.2
 7 C  py              5.4       1.1       3.3       0.2       2.0       0.3
 7 C  dxz             0.1       0.0       0.0       0.0       0.1       0.0
 7 C  dx2y2           0.1       0.0       0.0       0.0       0.1       0.0
 7 C  dxy             0.0       0.1       0.2       0.1       0.0       0.0
 8 H  s               0.2       2.1       0.1       3.1       7.8       0.2
 9 C  s               0.5       0.5       0.4       0.1       0.0       0.5
 9 C  pz              1.6       0.5       0.1       3.7       0.3       0.6
 9 C  px              9.0       1.7       0.2       0.7       0.5       0.9
 9 C  py              0.1       3.7       3.3       4.4       0.1       0.1
 9 C  dyz             0.1       0.0       0.0       0.2       0.0       0.0
 9 C  dx2y2           0.0       0.0       0.0       0.0       0.2       0.0
10 H  s               3.6       1.3       0.5       4.5       0.4       0.2
11 O  s               0.0       1.1       1.6       0.1       0.0       0.1
11 O  pz              1.0       7.5       4.6       0.3       0.9       0.3
11 O  px              3.0       0.0       1.1       0.1       0.9       0.7
11 O  py              0.0       0.9       9.1       1.8       0.0       0.4
12 O  s               0.1       1.0       0.0       0.0       0.3       2.4
12 O  pz              3.2       0.1       0.0       2.8       0.0       2.0
12 O  px              0.2       2.0       0.3       0.0       0.0       1.7
12 O  py              0.0       4.3       1.2       1.4       2.0       8.3
13 O  s               0.2       0.0       0.2       0.1       1.0       0.0
13 O  pz              1.9       0.8       0.0       2.0       3.3       0.1
13 O  px              0.3       0.1       1.3       1.2       8.4       0.1
13 O  py              0.9       0.8       1.4       0.5       0.3       1.6
14 O  s               0.0       0.2       1.4       0.1       0.2       2.4
14 O  pz              0.1       0.0       1.1       0.0       1.2       4.9
14 O  px              0.5       0.4       2.8       0.6       2.1      17.8
14 O  py              0.3       0.1      13.0       1.1       0.2       2.0
15 O  s               0.0       0.1       0.3       0.0       0.0       0.0
15 O  pz              2.4       5.1       2.3       0.2       0.1       0.9
15 O  px              0.1       0.2       0.7       0.7       6.3       0.1
15 O  py              3.4       0.5       0.1       0.0       1.1       0.0
16 O  s               1.7       0.6       0.1       0.3       0.4       0.0
16 O  pz              0.1       4.4       1.4       0.0       1.5       2.7
16 O  px              9.0       0.2       0.1       0.2       1.9       0.1
16 O  py              3.4       2.3       0.9      14.3       2.9       1.0
16 O  dxy             0.0       0.0       0.0       0.2       0.1       0.0
17 H  s               6.5       5.6       0.1       1.2       1.6       3.3
18 H  s               0.2       0.5       1.5      10.6       4.3       3.7
19 H  s               1.0       0.2       0.2       0.5       0.1       0.7
20 H  s               0.5       0.5       0.2       0.2       0.2       0.0
21 H  s               0.0       0.1       0.1       0.1       0.1       0.9
22 H  s               1.2       0.6       0.0       0.0       0.0       0.1
23 H  s               2.7       0.1       0.7       2.1       0.1       0.4

                     36        37        38        39        40        41   
                  -0.34176  -0.32418  -0.32144  -0.29787  -0.28982  -0.27220
                   2.00000   2.00000   2.00000   2.00000   2.00000   2.00000
                  --------  --------  --------  --------  --------  --------
 0 C  s               0.0       0.0       0.1       0.2       0.4       0.1
[...]
 5 C  s               1.3       0.0       0.2       0.0       0.5       0.0
 5 C  pz              1.7       0.0       0.3       0.0       1.1       0.1
 5 C  py              0.0       0.0       0.0       0.0       0.2       0.0
 5 C  dz2             7.1       0.1       0.4       0.0       2.0       0.1
 5 C  dxz             0.7       0.2       0.6       0.2       0.4       0.2
 5 C  dyz             0.6       0.0       0.0       0.1       1.1       0.0
 7 C  s               0.3       0.3       0.2       0.7       1.1       0.0
 7 C  pz              0.3       0.3       0.1       0.9       1.3       0.1
 7 C  px              0.0       0.0       0.1       0.1       0.2       0.1
 7 C  py              0.1       0.0       0.0       0.2       0.1       0.1
 7 C  dz2             1.2       0.3       0.3       2.6       2.1       0.1
 7 C  dxz             0.9       0.6       0.3       0.4       1.1       0.0
 7 C  dyz             0.0       0.6       0.6       0.3       2.4       0.1
 7 C  dx2y2           0.1       0.0       0.0       0.1       0.1       0.0
 7 C  dxy             0.0       0.1       0.0       0.0       0.1       0.0
 9 C  s               0.1       1.6       0.0       2.0       0.1       0.8
 9 C  pz              0.1       0.8       0.6       1.2       0.0       1.1
 9 C  px              0.0       0.1       0.2       0.2       0.0       1.8
 9 C  py              0.0       0.2       0.1       0.4       0.0       0.1
 9 C  dz2             0.0       1.9       0.2       3.9       0.1       0.9
 9 C  dxz             0.4       0.0       1.3       0.1       0.5       3.5
 9 C  dyz             0.0       2.7       1.0       2.3       0.7       0.0
 9 C  dx2y2           0.0       0.0       0.4       0.0       0.1       2.9
 9 C  dxy             0.1       0.0       0.1       0.1       0.0       0.3
11 O  s               0.8       0.0       0.7       0.0       0.1       0.0
11 O  pz              0.0       0.0       0.1       0.0       0.0       0.2
11 O  px              0.0       0.1       0.1       0.3       0.1       5.3
11 O  py              0.1       0.0       0.0       0.0       0.0       1.1
11 O  dz2             1.2       0.4       0.6       0.0       0.7       2.1
11 O  dxz             0.1       0.4       2.9       0.5       0.1      34.5
11 O  dyz             0.1       0.0       0.0       0.0       0.1       3.4
11 O  dx2y2           0.5       1.3       2.1       1.7       0.5       9.7
11 O  dxy             1.8       0.5       1.0       2.0       4.9      11.0
12 O  s               0.0       1.2       0.3       2.6       0.0       0.1
12 O  pz              0.0       1.6       0.5       1.9       0.1       0.2
12 O  px              0.0       0.1       0.0       0.1       0.0       0.0
12 O  py              0.0       0.1       0.0       0.2       0.0       0.0
12 O  dz2             0.1      12.2       5.0      10.3       1.2       1.8
12 O  dxz             0.0       0.5       0.1       1.1       0.3       0.0
12 O  dyz             0.0      12.0       2.0      17.4       0.1       1.2
12 O  dx2y2           0.0       0.2       0.0       0.7       0.1       0.1
12 O  dxy             0.0       0.6       0.0       0.5       0.1       0.0
13 O  s               0.4       0.4       0.2       1.5       2.3       0.1
13 O  pz              0.5       0.5       0.3       1.0       1.9       0.0
13 O  py              0.1       0.0       0.0       0.1       0.1       0.0
13 O  dz2             3.1       4.8       3.0       5.6      13.7       0.0
13 O  dxz             1.3       1.7       1.1       5.9       8.8       0.0
13 O  dyz             4.9       1.0       0.7       4.9       3.4       0.3
13 O  dx2y2           0.3       0.0       0.0       0.0       0.0       0.0
13 O  dxy             0.7       0.1       0.0       0.9       0.5       0.3
14 O  s               2.1       0.0       0.3       0.0       2.1       0.1
14 O  pz              2.7       0.1       0.3       0.0       1.4       0.1
14 O  dz2            25.3       0.4       3.7       0.0      13.1       0.6
14 O  dxz             6.3       0.0       0.0       0.4       1.7       0.0
14 O  dyz             5.7       0.3       0.8       0.1       0.4       0.1
14 O  dx2y2           0.3       0.1       0.0       0.0       0.0       0.0
14 O  dxy             0.2       0.0       0.0       0.0       0.0       0.0
15 O  s               0.8       0.1       2.2       0.8       1.2       0.5
15 O  pz              0.5       0.1       1.1       0.3       0.7       0.1
15 O  px              0.1       0.0       0.1       0.0       0.0       0.0
15 O  py              0.4       0.1       0.9       0.3       0.4       0.1
15 O  dz2             5.6       1.3      11.6       3.6       7.0       0.9
15 O  dxz             2.3       0.0       0.5       0.1       0.0       0.1
15 O  dyz             6.4       0.8      12.2       3.6       5.1       1.4
15 O  dx2y2           0.2       0.0       0.5       0.1       0.1       0.3
15 O  dxy             0.2       0.0       0.0       0.0       0.0       0.0
16 O  s               0.1       1.9       1.2       0.3       0.1       0.0
16 O  py              0.1       1.9       1.3       0.6       0.2       0.0
16 O  dz2             0.3       6.0       3.4       1.4       0.6       0.1
16 O  dxz             0.0       0.1       0.1       0.2       0.0       0.1
16 O  dyz             0.0       0.3       0.2       0.3       0.1       0.2
16 O  dx2y2           1.1      21.3      13.2       4.9       2.3       0.3
16 O  dxy             0.2       4.7       3.8       0.9       0.4       0.1
19 H  s               0.0       0.3       0.1       0.3       0.0       0.0
20 H  s               0.1       0.1       0.1       0.2       0.3       0.0
21 H  s               0.5       0.0       0.0       0.0       0.1       0.0
22 H  s               0.1       0.0       0.2       0.1       0.1       0.0
23 H  s               0.0       0.4       0.3       0.1       0.0       0.0



                      *****************************
                      * MAYER POPULATION ANALYSIS *
                      *****************************

  NA   - Mulliken gross atomic population
  ZA   - Total nuclear charge
  QA   - Mulliken gross atomic charge
  VA   - Mayer's total valence
  BVA  - Mayer's bonded valence
  FA   - Mayer's free valence

  ATOM       NA         ZA         QA         VA         BVA        FA
  0 C      5.9845     6.0000     0.0155     4.0080     4.0080    -0.0000
  1 C      5.9682     6.0000     0.0318     4.0294     4.0294     0.0000
  2 H      0.9107     1.0000     0.0893     0.9768     0.9768    -0.0000
  3 C      5.9678     6.0000     0.0322     3.9902     3.9902    -0.0000
  4 H      0.9160     1.0000     0.0840     0.9646     0.9646    -0.0000
  5 C      6.0026     6.0000    -0.0026     3.9990     3.9990    -0.0000
  6 H      0.9320     1.0000     0.0680     0.9717     0.9717    -0.0000
  7 C      5.9632     6.0000     0.0368     4.0100     4.0100    -0.0000
  8 H      0.9273     1.0000     0.0727     0.9660     0.9660    -0.0000
  9 C      5.8067     6.0000     0.1933     4.1349     4.1349     0.0000
 10 H      0.9184     1.0000     0.0816     0.9714     0.9714     0.0000
 11 O      8.3149     8.0000    -0.3149     2.1864     2.1864     0.0000
 12 O      8.4112     8.0000    -0.4112     2.0560     2.0560    -0.0000
 13 O      8.4216     8.0000    -0.4216     2.0164     2.0164     0.0000
 14 O      8.4071     8.0000    -0.4071     2.0513     2.0513    -0.0000
 15 O      8.4071     8.0000    -0.4071     2.0365     2.0365     0.0000
 16 O      8.4340     8.0000    -0.4340     2.0145     2.0145    -0.0000
 17 H      0.9211     1.0000     0.0789     0.9801     0.9801    -0.0000
 18 H      0.9143     1.0000     0.0857     0.9497     0.9497     0.0000
 19 H      0.6957     1.0000     0.3043     0.9436     0.9436    -0.0000
 20 H      0.6965     1.0000     0.3035     0.9316     0.9316     0.0000
 21 H      0.6831     1.0000     0.3169     0.8762     0.8762    -0.0000
 22 H      0.6949     1.0000     0.3051     0.8878     0.8878     0.0000
 23 H      0.7010     1.0000     0.2990     0.9231     0.9231    -0.0000

  Mayer bond orders larger than 0.100000
B(  0-C ,  1-C ) :   1.0383 B(  0-C , 16-O ) :   1.0960 B(  0-C , 17-H ) :   0.8941 
B(  0-C , 18-H ) :   0.9121 B(  1-C ,  2-H ) :   0.8902 B(  1-C ,  3-C ) :   0.9930 
B(  1-C , 11-O ) :   1.0182 B(  3-C ,  4-H ) :   0.8940 B(  3-C ,  5-C ) :   0.9899 
B(  3-C , 15-O ) :   1.0442 B(  5-C ,  6-H ) :   0.9013 B(  5-C ,  7-C ) :   0.9547 
B(  5-C , 14-O ) :   1.0253 B(  7-C ,  8-H ) :   0.8950 B(  7-C ,  9-C ) :   0.9872 
B(  7-C , 13-O ) :   1.0674 B(  9-C , 10-H ) :   0.9068 B(  9-C , 11-O ) :   1.0254 
B(  9-C , 12-O ) :   1.1120 B( 12-O , 19-H ) :   0.7935 B( 13-O , 20-H ) :   0.8137 
B( 14-O , 19-H ) :   0.1033 B( 14-O , 21-H ) :   0.8351 B( 15-O , 22-H ) :   0.8386 
B( 16-O , 23-H ) :   0.8248 

-------
TIMINGS
-------

Total SCF time: 0 days 0 hours 0 min 6 sec 

Total time                  ....       6.310 sec
Sum of individual times     ....       6.278 sec  ( 99.5%)

SCF preparation             ....       0.329 sec  (  5.2%)
Fock matrix formation       ....       5.631 sec  ( 89.2%)
  Startup                   ....       0.011 sec  (  0.2% of F)
  Split-RI-J                ....       2.968 sec  ( 52.7% of F)
  XC integration            ....       2.562 sec  ( 45.5% of F)
    XC Preparation          ....       0.000 sec  (  0.0% of XC)
    Basis function eval.    ....       1.053 sec  ( 41.1% of XC)
    Density eval.           ....       0.586 sec  ( 22.9% of XC)
    XC-Functional eval.     ....       0.152 sec  (  5.9% of XC)
    XC-Potential eval.      ....       0.613 sec  ( 23.9% of XC)
Diagonalization             ....       0.000 sec  (  0.0%)
Density matrix formation    ....       0.031 sec  (  0.5%)
Total Energy calculation    ....       0.002 sec  (  0.0%)
Population analysis         ....       0.151 sec  (  2.4%)
Orbital Transformation      ....       0.017 sec  (  0.3%)
Orbital Orthonormalization  ....       0.000 sec  (  0.0%)
DIIS solution               ....       0.081 sec  (  1.3%)
  MO trafo                  ....       0.000 sec  (  0.0 % of DIIS)
  Orb grad                  ....       0.000 sec  (  0.0 % of DIIS)
  Energy W gradient         ....       0.000 sec  (  0.0 % of DIIS)
  DIIS error                ....       0.005 sec  (  6.4 % of DIIS)
  DIIS work                 ....       0.066 sec  ( 81.6 % of DIIS)
  Form Q                    ....       0.000 sec  (  0.0 % of DIIS)
  Form QpQm                 ....       0.000 sec  (  0.0 % of DIIS)
  Exp/Cayley                ....       0.000 sec  (  0.0 % of DIIS)
  Orb update                ....       0.000 sec  (  0.0 % of DIIS)
  Wake-sleep                ....       0.001 sec  (  1.2 % of DIIS)
SOSCF solution              ....       0.037 sec  (  0.6%)
  MO trafo                  ....       0.028 sec  ( 76.9 % of SOSCF)
  Orb grad                  ....       0.000 sec  (  0.5 % of SOSCF)
  Rot update                ....       0.002 sec  (  4.7 % of SOSCF)
  Step                      ....       0.007 sec  ( 17.8 % of SOSCF)
Finished LeanSCF after   6.3 sec

Maximum memory used throughout the entire LEANSCF-calculation: 19.3 MB


-------------------------------------------------------------------------------
                          DFT DISPERSION CORRECTION                            
                                                                               
                                DFTD4 V3.4.0                                   
-------------------------------------------------------------------------------
The PBE functional is recognized
Active option DFTDOPT                   ...         5   

-------------------------   ----------------
Dispersion correction           -0.026428902
-------------------------   ----------------

------------------   -----------------
gCP correction             0.161242476
------------------   -----------------

-------------------------   --------------------
FINAL SINGLE POINT ENERGY      -685.697656950048
-------------------------   --------------------


------------------------------------------------------------------------------
                              ORCA PROPERTY CALCULATIONS
------------------------------------------------------------------------------

GBWName                                 ... sp.gbw
Number of atoms                         ...     24
Number of basis functions               ...    192
Max core memory                         ...   1024 MB

Electric properties:
Dipole moment                           ... YES
Quadrupole moment                       ...  NO
Static polarizability (Dipole/Dipole)   ...  NO
Static polarizability (Dipole/Quad.)    ...  NO
Static polarizability (Quad./Quad.)     ...  NO
Static polarizability (Velocity)        ...  NO

Atomic electric properties:
Dipole moment                           ...  NO
Quadrupole moment                       ...  NO
Static polarizability                   ...  NO

Choice of electric origin               ... Center of mass
Position of electric origin             ...    -0.000003     0.000008    -0.000004

General magnetic properties:
Magnetizability                         ...  NO

EPR properties:
g-Tensor (aka g-matrix)                 ...  NO
Zero-Field splitting spin-orbit         ...  NO
Zero-field splitting spin-spin          ...  NO
Hyperfine couplings                     ...  NO (   0 nuclei)
Quadrupole couplings                    ...  NO (   0 nuclei)
Contact density                         ...  NO (   0 nuclei)

NMR properties:
Chemical shifts                         ...  NO (   0 nuclei)
Spin-rotation constants                 ...  NO (   0 nuclei)
Spin-spin couplings                     ...  NO (   0 nuclei,    0 pairs)

Choice of magnetic origin               ... GIAO
Position of magnetic origin             ...     0.000000     0.000000     0.000000

Properties with geometric perturbations:
SCF Hessian                             ...  NO
IR spectrum                             ...  NO
VCD spectrum                            ...  NO
X-ray spectroscopy properties:
SCF XES/XAS/RIXS spectra                ...  NO


-------------
DIPOLE MOMENT
-------------

Method             : SCF
Type of density    : Electron Density
Multiplicity       :   1
Irrep              :   0
Energy             :  -685.8324705236985892 Eh
Relativity type    : 
Basis              : AO
                                X                 Y                 Z
Electronic contribution:      1.463864516      -1.466273885       1.762803844
Nuclear contribution   :     -0.886926055       3.154190048      -2.377409114
                        -----------------------------------------
Total Dipole Moment    :      0.576938461       1.687916163      -0.614605270
                        -----------------------------------------
Magnitude (a.u.)       :      1.886705753
Magnitude (Debye)      :      4.795624909



--------------------
Rotational spectrum 
--------------------
 
Rotational constants in cm-1:             0.041976             0.029040             0.025651 
Rotational constants in MHz :          1258.406476           870.591120           769.007863 

Dipole components along the rotational axes: 
x,y,z [a.u.] :     1.301600    -0.412681    -1.301994 
x,y,z [Debye]:     3.308405    -1.048951    -3.309407 

 

Dipole moment calculation done in   0.1 sec 

Maximum memory used throughout the entire PROP-calculation: 12.9 MB

--------------------------------
SUGGESTED CITATIONS FOR THIS RUN
--------------------------------

Below you find a list of papers that are relevant to this ORCA run
We neither can nor want to force you to cite these papers, but we appreciate if you do
You receive ORCA, which is the product of decades of hard work by many enthusiastic individuals, for free
The only thing we kindly ask in return is that you cite our papers,
We deeply appreciate it, if you show your appreciation for ORCA by not just citing the generic ORCA reference.

Please note that relegating all ORCA citations to the supporting information does *not* help us.
SI sections are not indexed - citations you put there will not count into any citation statistics
But we need these citations in order to attract the funding resources that allow us to do what we are doing

Therefore, if you are a happy ORCA user, please consider citing a few of the papers listed below in the main body of your paper

In addition to the list printed below, the program has created the file sp.bibtex that contains the list in bibtex format
You can import this file easily into all common literature databanks and citation aid programs


List of essential papers. We consider these as the minimum necessary citations

  1. Neese,F.
     Software update: the ORCA program system, version 5.0
     WIRES Comput. Molec. Sci., 2022 12(1)e1606
     doi.org/10.1002/wcms.1606

List of papers to cite with high priority. The work reported in these papers was absolutely
necessary for this run to complete.
Our perspective: the developers of density functionals and basis sets usually get cited in chemistry papers
Good! But without the algorithms to do something with them, the functionals or basis sets would not do anything.
Hence, in our opinion, the algorithm design and method developments papers are equally worthy of getting cited

  1. Neese,F.
     An improvement of the resolution of the identity approximation for the formation of the Coulomb matrix
     J. Comp. Chem., 2003 24(14)1740-1747
     doi.org/10.1002/jcc.10318
  2. Neese,F.
     The SHARK Integral Generation and Digestion System
     J. Comp. Chem., 2022  1-16
     doi.org/10.1002/jcc.26942
  3. Caldeweyher,E.; Bannwarth,C.; Grimme,S.
     Extension of the D3 dispersion coefficient model
     J. Chem. Phys., 2017 147 034112
     doi.org/10.1063/1.4993215
  4. Caldeweyher,E.; Ehlert,S.; Hansen,A.; Neugebauer,H.; Spicher,S.; Bannwarth,C.; Grimme,S.
     A generally applicable atomic-charge dependent London dispersion correction
     J. Chem. Phys., 2019 150 154122
     doi.org/10.1063/1.5090222
  5. Caldeweyher,E.; Mewes,J.; Ehlert,S.; Grimme,S.
     Extension and evaluation of the D4 London-dispersion model for periodic systems
     Phys. Chem. Chem. Phys., 2020 22(16)8499-8512
     doi.org/10.1039/D0CP00502A
  6. Wittmann,L.; Gordiy,I.; Friede,M.; Helmich-Paris,B.; Grimme,S.; Hansen,A.; Bursch,M.
     Extension of the D3 and D4 London Dispersion Corrections to the full Actinides Series
     Phys. Chem. Chem. Phys., 2024 26(32)21379-21394
     doi.org/https://doi.org/10.1039/D4CP01514B 

List of suggested additional citations. These are papers that are important in the 'surrounding' of 
of this run, or papers that preceded the highly important papers. If you like your results we are grateful for a citation.

  1. Neese,F.
     The ORCA program system
     WIRES Comput. Molec. Sci., 2012 2(1)73-78
     doi.org/10.1002/wcms.81
  2. Neese,F.
     Software update: the ORCA program system, version 4.0
     WIRES Comput. Molec. Sci., 2018 8(1)1-6
     doi.org/10.1002/wcms.1327
  3. Neese,F.; Wennmohs,F.; Becker,U.; Riplinger,C.
     The ORCA quantum chemistry program package
     J. Chem. Phys., 2020 152 Art. No. L224108
     doi.org/10.1063/5.0004608

List of optional additional citations

  1. Neese,F.
     Approximate second-order SCF convergence for spin unrestricted wavefunctions
     Chem. Phys. Lett., 2000 325(1-3)93-98
     doi.org/10.1016/s0009-2614(00)00662-x

Timings for individual modules:

Sum of individual times          ...        7.831 sec (=   0.131 min)
Startup calculation              ...        0.591 sec (=   0.010 min)   7.5 %
SCF iterations                   ...        7.052 sec (=   0.118 min)  90.1 %
Property calculations            ...        0.188 sec (=   0.003 min)   2.4 %
                             ****ORCA TERMINATED NORMALLY****
TOTAL RUN TIME: 0 days 0 hours 0 minutes 49 seconds 163 msec
