 Entering Gaussian System
 *********************************************
 Gaussian 98:
 frequency output generated by the xtb code
 *********************************************
                         Standard orientation:
 --------------------------------------------------------------------
  Center     Atomic     Atomic              Coordinates (Angstroms)
  Number     Number      Type              X           Y           Z
 --------------------------------------------------------------------
    1          6             0       -2.926381   -0.000608    0.007111
    2          6             0       -2.235553   -1.201162    0.000461
    3          6             0       -0.852120   -1.206463   -0.013194
    4          6             0       -0.166599    0.001009   -0.024382
    5          6             0       -0.853406    1.207642   -0.013399
    6          6             0       -2.236890    1.200673    0.000226
    7          6             0        1.335224    0.000410   -0.006171
    8          9             0        1.824460   -0.015989    1.251461
    9          9             0        1.865196   -1.067595   -0.622999
   10          9             0        1.866732    1.082591   -0.595885
   11          1             0       -4.005921   -0.001205    0.017980
   12          1             0       -2.773267   -2.136737    0.006569
   13          1             0       -0.304473   -2.136428   -0.020611
   14          1             0       -0.307005    2.138320   -0.020921
   15          1             0       -2.775651    2.135650    0.006147
 --------------------------------------------------------------------
     1 basis functions        1 primitive gaussians
     1 alpha electrons        1 beta electrons
 
 Harmonic frequencies (cm**-1), IR intensities (km*mol⁻¹),
 Raman scattering activities (A**4/amu), Raman depolarization ratios,
 reduced masses (AMU), force constants (mDyne/A) and normal coordinates:
                      1                      2                      3
                        a                      a                      a 
 Frequencies --    12.2902               118.7212               176.1288
 Red. masses --    14.3516                13.9514                14.8325
 Frc consts  --     0.0000                 0.0000                 0.0000
 IR Inten    --     0.0975                 0.7066                 1.3653
 Raman Activ --     0.0000                 0.0000                 0.0000
 Depolar     --     0.0000                 0.0000                 0.0000
 Atom AN      X      Y      Z        X      Y      Z        X      Y      Z
   1   6    -0.00   0.02   0.00     0.02  -0.00   0.40     0.00  -0.20  -0.00
   2   6    -0.03   0.01  -0.31     0.01  -0.00   0.13     0.20  -0.08  -0.03
   3   6    -0.02  -0.02  -0.31     0.01  -0.00  -0.26     0.19   0.19  -0.03
   4   6     0.00  -0.04  -0.00     0.00   0.00  -0.38     0.00   0.31   0.00
   5   6     0.02  -0.02   0.31     0.01   0.00  -0.26    -0.19   0.20   0.03
   6   6     0.03   0.01   0.31     0.01   0.00   0.13    -0.20  -0.08   0.03
   7   6     0.00  -0.01  -0.00    -0.00   0.00  -0.11    -0.00   0.10  -0.00
   8   9    -0.00   0.42   0.01    -0.54  -0.00   0.08    -0.01  -0.05   0.00
   9   9     0.04  -0.19   0.35     0.25   0.00   0.08    -0.49  -0.14   0.03
  10   9    -0.04  -0.18  -0.35     0.24  -0.00   0.08     0.49  -0.14  -0.03
  11   1    -0.00   0.01   0.00     0.01  -0.00   0.23     0.00  -0.11  -0.00
  12   1    -0.01   0.00  -0.16     0.00  -0.00   0.08     0.11  -0.05  -0.02
  13   1    -0.01  -0.01  -0.16     0.00   0.00  -0.11     0.10   0.08  -0.01
  14   1     0.01  -0.01   0.16     0.00  -0.00  -0.11    -0.10   0.08   0.01
  15   1     0.01   0.00   0.16     0.00   0.00   0.08    -0.11  -0.05   0.02
                      4                      5                      6
                        a                      a                      a 
 Frequencies --   289.5314               325.7190               364.5063
 Red. masses --    13.6487                14.9219                12.4228
 Frc consts  --     0.0000                 0.0000                 0.0000
 IR Inten    --     0.7259                 9.6246                 2.0852
 Raman Activ --     0.0000                 0.0000                 0.0000
 Depolar     --     0.0000                 0.0000                 0.0000
 Atom AN      X      Y      Z        X      Y      Z        X      Y      Z
   1   6     0.07   0.00  -0.35    -0.39  -0.00  -0.06     0.00  -0.03   0.00
   2   6     0.06  -0.01   0.13    -0.28   0.07   0.03     0.09   0.03  -0.31
   3   6     0.06  -0.02   0.35    -0.24   0.08   0.06     0.08   0.16   0.30
   4   6     0.01  -0.00  -0.02    -0.03   0.00  -0.01     0.00   0.18   0.00
   5   6     0.06   0.02   0.35    -0.24  -0.08   0.06    -0.08   0.16  -0.30
   6   6     0.06   0.01   0.13    -0.28  -0.07   0.03    -0.09   0.03   0.31
   7   6    -0.02  -0.00  -0.17     0.13   0.00  -0.04    -0.00  -0.03   0.00
   8   9    -0.56  -0.00  -0.02     0.26  -0.00  -0.08     0.00  -0.34  -0.00
   9   9     0.16   0.07  -0.18     0.45   0.08   0.00     0.27  -0.04   0.19
  10   9     0.15  -0.07  -0.18     0.45  -0.08   0.00    -0.27  -0.03  -0.18
  11   1     0.02   0.00  -0.24    -0.11  -0.00  -0.04     0.00  -0.03   0.00
  12   1     0.01  -0.00   0.06    -0.06   0.00   0.01     0.05  -0.01  -0.20
  13   1     0.03   0.00   0.17    -0.10   0.00   0.03     0.05   0.06   0.20
  14   1     0.03  -0.00   0.17    -0.10  -0.00   0.03    -0.05   0.06  -0.20
  15   1     0.01   0.00   0.06    -0.06  -0.00   0.01    -0.05  -0.01   0.20
                      7                      8                      9
                        a                      a                      a 
 Frequencies --   368.9612               439.6300               518.6954
 Red. masses --    12.8333                15.9093                17.0273
 Frc consts  --     0.0000                 0.0000                 0.0000
 IR Inten    --     1.8836                 3.7795                 2.3989
 Raman Activ --     0.0000                 0.0000                 0.0000
 Depolar     --     0.0000                 0.0000                 0.0000
 Atom AN      X      Y      Z        X      Y      Z        X      Y      Z
   1   6     0.00  -0.04  -0.00    -0.01  -0.00  -0.23     0.00  -0.05   0.00
   2   6     0.11   0.03   0.29     0.00   0.00   0.15     0.07   0.01  -0.00
   3   6     0.09   0.17  -0.29    -0.00   0.00   0.03     0.05   0.19  -0.00
   4   6     0.00   0.19  -0.00     0.00  -0.00  -0.38    -0.00   0.16   0.00
   5   6    -0.09   0.17   0.29    -0.00  -0.00   0.03    -0.05   0.19   0.00
   6   6    -0.10   0.03  -0.29     0.00  -0.00   0.15    -0.07   0.01   0.00
   7   6    -0.00  -0.04  -0.00    -0.00  -0.00  -0.20    -0.00  -0.33   0.00
   8   9     0.00  -0.36  -0.01     0.13   0.01  -0.36     0.00   0.41   0.01
   9   9     0.28  -0.04   0.20    -0.06  -0.39   0.31     0.23  -0.28  -0.40
  10   9    -0.28  -0.03  -0.20    -0.06   0.38   0.33    -0.23  -0.30   0.39
  11   1     0.00  -0.04  -0.00    -0.00  -0.00  -0.12     0.00  -0.03  -0.00
  12   1     0.06  -0.01   0.18     0.00   0.00   0.13     0.05  -0.02  -0.00
  13   1     0.05   0.07  -0.19    -0.00  -0.00   0.08     0.04   0.07  -0.00
  14   1    -0.05   0.07   0.19    -0.00   0.00   0.08    -0.04   0.07   0.00
  15   1    -0.06  -0.01  -0.18     0.00  -0.00   0.13    -0.05  -0.02   0.00
                     10                     11                     12
                        a                      a                      a 
 Frequencies --   551.0240               587.8037               601.9108
 Red. masses --    12.9475                11.2467                14.5541
 Frc consts  --     0.0000                 0.0000                 0.0000
 IR Inten    --     8.6909                 0.0251                31.8125
 Raman Activ --     0.0000                 0.0000                 0.0000
 Depolar     --     0.0000                 0.0000                 0.0000
 Atom AN      X      Y      Z        X      Y      Z        X      Y      Z
   1   6    -0.00  -0.00  -0.32    -0.00  -0.19   0.00    -0.33  -0.00   0.00
   2   6     0.00  -0.00   0.25    -0.35  -0.34   0.00     0.01   0.22  -0.00
   3   6    -0.00   0.00  -0.17    -0.33   0.29   0.00     0.04   0.22  -0.00
   4   6    -0.00  -0.00  -0.42     0.00   0.16   0.00     0.35   0.00  -0.01
   5   6    -0.00  -0.00  -0.17     0.33   0.29  -0.00     0.04  -0.22  -0.00
   6   6     0.00   0.00   0.25     0.35  -0.34  -0.00     0.01  -0.22  -0.00
   7   6    -0.01   0.00   0.21     0.00   0.01  -0.00     0.34  -0.00   0.01
   8   9     0.23  -0.01   0.35    -0.00  -0.02  -0.00    -0.12  -0.00   0.35
   9   9    -0.11   0.26  -0.09    -0.02   0.04   0.04    -0.12  -0.30  -0.18
  10   9    -0.11  -0.25  -0.10     0.02   0.04  -0.03    -0.12   0.30  -0.17
  11   1    -0.00  -0.00  -0.09    -0.00   0.11   0.00    -0.09  -0.00   0.00
  12   1     0.00   0.00   0.25    -0.04  -0.13   0.00     0.08   0.02   0.00
  13   1     0.00   0.00   0.06    -0.04   0.11   0.00    -0.06   0.02   0.00
  14   1     0.00  -0.00   0.06     0.04   0.11  -0.00    -0.06  -0.02   0.00
  15   1     0.00   0.00   0.25     0.04  -0.13  -0.00     0.08  -0.02   0.00
                     13                     14                     15
                        a                      a                      a 
 Frequencies --   669.2001               738.1518               763.6559
 Red. masses --     9.2578                14.6442                 5.1241
 Frc consts  --     0.0000                 0.0000                 0.0000
 IR Inten    --    10.5276                 0.1710                35.3364
 Raman Activ --     0.0000                 0.0000                 0.0000
 Depolar     --     0.0000                 0.0000                 0.0000
 Atom AN      X      Y      Z        X      Y      Z        X      Y      Z
   1   6    -0.00   0.00   0.25    -0.30  -0.00   0.01    -0.02  -0.00  -0.20
   2   6    -0.00   0.00  -0.35     0.15   0.29   0.01     0.01   0.02  -0.09
   3   6     0.00   0.01   0.27     0.13   0.20   0.01     0.01   0.01  -0.20
   4   6     0.00  -0.00  -0.50     0.20   0.00  -0.01     0.01   0.00   0.42
   5   6     0.00  -0.01   0.27     0.13  -0.20   0.01     0.01  -0.01  -0.20
   6   6    -0.00  -0.00  -0.35     0.15  -0.29   0.01     0.01  -0.02  -0.09
   7   6    -0.01   0.00   0.04    -0.19  -0.00   0.00    -0.00  -0.00   0.01
   8   9     0.09  -0.00   0.08    -0.07   0.00  -0.38    -0.10   0.00  -0.14
   9   9    -0.04   0.07  -0.00    -0.09   0.33   0.19     0.04  -0.03   0.00
  10   9    -0.04  -0.07  -0.00    -0.09  -0.34   0.18     0.04   0.03   0.00
  11   1     0.00   0.00   0.28    -0.08  -0.00  -0.03    -0.00   0.00   0.44
  12   1     0.00   0.00   0.06     0.13   0.03  -0.03     0.01   0.00   0.39
  13   1     0.00   0.00   0.30    -0.01   0.03  -0.03     0.00   0.00   0.28
  14   1     0.00  -0.00   0.30    -0.01  -0.03  -0.03     0.00  -0.00   0.28
  15   1     0.00  -0.00   0.06     0.13  -0.03  -0.03     0.01  -0.00   0.39
                     16                     17                     18
                        a                      a                      a 
 Frequencies --   877.7566               908.7847               929.3880
 Red. masses --     3.3239                 3.4557                 4.2082
 Frc consts  --     0.0000                 0.0000                 0.0000
 IR Inten    --     0.0005                 1.1864                 0.0476
 Raman Activ --     0.0000                 0.0000                 0.0000
 Depolar     --     0.0000                 0.0000                 0.0000
 Atom AN      X      Y      Z        X      Y      Z        X      Y      Z
   1   6     0.00   0.00   0.00    -0.00  -0.00  -0.27    -0.00  -0.00   0.00
   2   6    -0.00   0.00  -0.19    -0.00   0.00  -0.08    -0.00  -0.00  -0.29
   3   6    -0.00   0.00  -0.26     0.00  -0.00   0.26     0.00  -0.00   0.24
   4   6     0.00  -0.00   0.00    -0.00  -0.00  -0.06    -0.00   0.00  -0.00
   5   6     0.00   0.00   0.26     0.00   0.00   0.26    -0.00  -0.00  -0.24
   6   6     0.00   0.00   0.19    -0.00  -0.00  -0.08     0.00  -0.00   0.29
   7   6     0.00  -0.01  -0.00    -0.00   0.00  -0.02    -0.00   0.01   0.00
   8   9    -0.00   0.00   0.00     0.02  -0.00   0.02    -0.00  -0.00  -0.00
   9   9    -0.00   0.00   0.00    -0.01   0.01   0.00     0.00  -0.00  -0.00
  10   9     0.00   0.00  -0.00    -0.01  -0.01   0.00    -0.00  -0.00   0.00
  11   1    -0.00  -0.00  -0.00     0.00   0.00   0.41    -0.00   0.00  -0.00
  12   1     0.00   0.00   0.40     0.00   0.00   0.22     0.00   0.00   0.47
  13   1     0.01   0.00   0.49    -0.01  -0.00  -0.51    -0.01  -0.00  -0.37
  14   1    -0.01   0.00  -0.49    -0.01   0.00  -0.51     0.01  -0.00   0.37
  15   1    -0.00   0.00  -0.40     0.00  -0.00   0.22    -0.00  -0.00  -0.47
                     19                     20                     21
                        a                      a                      a 
 Frequencies --   936.1955               967.2925              1027.8282
 Red. masses --     3.3204                11.8121                13.5663
 Frc consts  --     0.0000                 0.0000                 0.0000
 IR Inten    --     0.0745                27.6190               313.0181
 Raman Activ --     0.0000                 0.0000                 0.0000
 Depolar     --     0.0000                 0.0000                 0.0000
 Atom AN      X      Y      Z        X      Y      Z        X      Y      Z
   1   6     0.00   0.00   0.33    -0.38  -0.00   0.01     0.05   0.00   0.00
   2   6    -0.00   0.00  -0.21     0.12   0.26  -0.00     0.01   0.00  -0.02
   3   6     0.00  -0.00   0.01     0.19  -0.42  -0.00    -0.03   0.09  -0.02
   4   6    -0.00   0.00   0.08    -0.30  -0.00   0.01    -0.01   0.00   0.11
   5   6     0.00   0.00   0.01     0.19   0.42  -0.00    -0.03  -0.09  -0.02
   6   6    -0.00  -0.00  -0.22     0.12  -0.26  -0.00     0.02  -0.00  -0.02
   7   6     0.00  -0.00   0.01    -0.21   0.00  -0.06    -0.13   0.00  -0.84
   8   9    -0.01   0.00  -0.01     0.08  -0.00   0.15     0.16  -0.00   0.40
   9   9     0.00  -0.00  -0.00     0.07  -0.10  -0.05    -0.05   0.11   0.11
  10   9     0.00   0.00  -0.00     0.07   0.10  -0.05    -0.04  -0.10   0.11
  11   1    -0.01  -0.00  -0.62    -0.10   0.00   0.00     0.02   0.00   0.01
  12   1     0.00   0.00   0.43    -0.00   0.09  -0.00     0.03  -0.01   0.01
  13   1    -0.00  -0.00  -0.12     0.04  -0.12   0.01     0.00   0.03   0.02
  14   1    -0.00   0.00  -0.12     0.04   0.12   0.01     0.00  -0.03   0.02
  15   1     0.00  -0.00   0.44    -0.00  -0.09  -0.00     0.03   0.01   0.01
                     22                     23                     24
                        a                      a                      a 
 Frequencies --  1063.1619              1069.1787              1084.4418
 Red. masses --    13.0784                12.5179                 6.0722
 Frc consts  --     0.0000                 0.0000                 0.0000
 IR Inten    --   229.4033               104.4861                16.0449
 Raman Activ --     0.0000                 0.0000                 0.0000
 Depolar     --     0.0000                 0.0000                 0.0000
 Atom AN      X      Y      Z        X      Y      Z        X      Y      Z
   1   6     0.01   0.06  -0.00    -0.30   0.00   0.00    -0.36  -0.00   0.00
   2   6    -0.06  -0.05   0.00    -0.15  -0.25  -0.00    -0.01  -0.30   0.00
   3   6     0.04  -0.05  -0.01     0.15  -0.29  -0.00     0.11   0.10  -0.00
   4   6    -0.01   0.05  -0.00     0.30   0.00   0.02    -0.12  -0.00  -0.00
   5   6    -0.06  -0.08   0.01     0.15   0.28  -0.00     0.11  -0.10  -0.00
   6   6     0.07  -0.06  -0.00    -0.14   0.24  -0.00    -0.01   0.30   0.00
   7   6    -0.03   0.83   0.01     0.49   0.04  -0.16    -0.23  -0.01   0.06
   8   9     0.01  -0.04   0.01    -0.09  -0.00  -0.10     0.04  -0.00   0.05
   9   9     0.13  -0.29  -0.14    -0.13   0.16   0.10     0.06  -0.07  -0.04
  10   9    -0.12  -0.27   0.12    -0.15  -0.19   0.11     0.06   0.08  -0.04
  11   1     0.00   0.14  -0.00    -0.09   0.01   0.00    -0.11  -0.00   0.00
  12   1    -0.07   0.02   0.00    -0.07  -0.06   0.00     0.29  -0.26  -0.00
  13   1     0.08   0.03   0.01     0.03  -0.09   0.00     0.29   0.18  -0.01
  14   1    -0.08   0.01  -0.01     0.03   0.10   0.00     0.30  -0.18  -0.01
  15   1     0.08   0.02  -0.00    -0.06   0.07   0.00     0.29   0.26  -0.00
                     25                     26                     27
                        a                      a                      a 
 Frequencies --  1128.0135              1181.5598              1196.5850
 Red. masses --     4.5194                 1.2895                 1.8136
 Frc consts  --     0.0000                 0.0000                 0.0000
 IR Inten    --    12.5840                 0.0320                 7.0432
 Raman Activ --     0.0000                 0.0000                 0.0000
 Depolar     --     0.0000                 0.0000                 0.0000
 Atom AN      X      Y      Z        X      Y      Z        X      Y      Z
   1   6    -0.00  -0.18   0.00    -0.00  -0.09   0.00    -0.04   0.00   0.00
   2   6     0.10   0.14  -0.00    -0.03   0.02   0.00    -0.08   0.09   0.00
   3   6    -0.22   0.11   0.00    -0.07   0.00   0.00     0.09   0.09  -0.00
   4   6     0.00  -0.13   0.00    -0.00   0.06  -0.00    -0.07  -0.00  -0.00
   5   6     0.22   0.12  -0.00     0.07   0.00  -0.00     0.09  -0.09  -0.00
   6   6    -0.10   0.15   0.00     0.03   0.02  -0.00    -0.08  -0.09   0.00
   7   6    -0.00   0.24   0.00     0.00   0.01  -0.00     0.09   0.00  -0.01
   8   9     0.00  -0.01   0.00     0.00   0.00   0.00    -0.01   0.00  -0.01
   9   9     0.03  -0.06  -0.03     0.00  -0.00  -0.00    -0.01   0.01   0.01
  10   9    -0.03  -0.07   0.03    -0.00  -0.00   0.00    -0.01  -0.01   0.01
  11   1     0.00  -0.46   0.00     0.00  -0.70   0.00    -0.01   0.00   0.00
  12   1     0.25  -0.08  -0.00    -0.41   0.23   0.00    -0.38   0.23   0.00
  13   1    -0.39  -0.15   0.01     0.13   0.09  -0.00     0.44   0.27  -0.01
  14   1     0.38  -0.15  -0.01    -0.13   0.09   0.00     0.44  -0.27  -0.01
  15   1    -0.24  -0.08   0.00     0.40   0.23  -0.00    -0.38  -0.23   0.00
                     28                     29                     30
                        a                      a                      a 
 Frequencies --  1255.3237              1280.9224              1323.6555
 Red. masses --    10.4992                 3.3189                11.9830
 Frc consts  --     0.0000                 0.0000                 0.0000
 IR Inten    --   161.2863                 1.1648                 0.4173
 Raman Activ --     0.0000                 0.0000                 0.0000
 Depolar     --     0.0000                 0.0000                 0.0000
 Atom AN      X      Y      Z        X      Y      Z        X      Y      Z
   1   6     0.08  -0.00  -0.00    -0.00   0.20  -0.00    -0.00  -0.39   0.00
   2   6     0.11   0.16  -0.00    -0.06   0.09   0.00    -0.37   0.21   0.00
   3   6    -0.16  -0.01   0.00    -0.19  -0.07   0.00     0.35   0.19  -0.00
   4   6    -0.56  -0.00  -0.00     0.00  -0.25   0.00     0.00  -0.42   0.00
   5   6    -0.16   0.01   0.00     0.19  -0.07  -0.00    -0.35   0.19   0.00
   6   6     0.11  -0.15  -0.00     0.06   0.09  -0.00     0.37   0.21  -0.00
   7   6     0.61   0.00  -0.04    -0.00   0.04   0.00    -0.00   0.02   0.00
   8   9    -0.05   0.00  -0.06    -0.00  -0.00   0.00    -0.00  -0.00  -0.00
   9   9    -0.07   0.08   0.05    -0.01  -0.00   0.00    -0.01   0.00   0.00
  10   9    -0.07  -0.08   0.05     0.01  -0.00  -0.00     0.01   0.00  -0.00
  11   1     0.03  -0.00  -0.00     0.00  -0.26   0.00    -0.00  -0.02  -0.00
  12   1     0.24  -0.07  -0.00     0.32  -0.17  -0.00     0.01  -0.01   0.00
  13   1     0.10   0.09  -0.00     0.41   0.25  -0.01     0.03   0.01  -0.00
  14   1     0.10  -0.09  -0.00    -0.41   0.25   0.01    -0.03   0.01   0.00
  15   1     0.24   0.07  -0.00    -0.32  -0.17   0.00    -0.02  -0.01  -0.00
                     31                     32                     33
                        a                      a                      a 
 Frequencies --  1435.6386              1468.6183              1593.8279
 Red. masses --     8.9332                 8.9752                11.5806
 Frc consts  --     0.0000                 0.0000                 0.0000
 IR Inten    --     3.9279                 3.7858                 0.2552
 Raman Activ --     0.0000                 0.0000                 0.0000
 Depolar     --     0.0000                 0.0000                 0.0000
 Atom AN      X      Y      Z        X      Y      Z        X      Y      Z
   1   6     0.00   0.38  -0.00     0.26  -0.00  -0.00     0.00   0.53  -0.00
   2   6    -0.33  -0.09   0.00    -0.25   0.27   0.00     0.12  -0.29  -0.00
   3   6     0.25  -0.14  -0.00    -0.18  -0.27   0.00     0.16   0.29  -0.00
   4   6     0.00   0.42  -0.00     0.41  -0.00  -0.00    -0.00  -0.51   0.00
   5   6    -0.25  -0.14   0.00    -0.17   0.27   0.00    -0.14   0.29   0.00
   6   6     0.32  -0.09  -0.00    -0.25  -0.26   0.00    -0.13  -0.30   0.00
   7   6    -0.00  -0.06   0.00    -0.12  -0.00   0.01     0.00   0.03  -0.00
   8   9     0.00   0.00   0.00    -0.00   0.00   0.00    -0.00  -0.00  -0.00
   9   9     0.01   0.00  -0.00     0.00  -0.01  -0.00    -0.01   0.00   0.00
  10   9    -0.01   0.00   0.00     0.00   0.01  -0.00     0.01   0.00  -0.00
  11   1     0.00  -0.37   0.00     0.08   0.00  -0.00     0.00  -0.12   0.00
  12   1     0.13  -0.16  -0.00     0.24  -0.10  -0.00    -0.07  -0.02   0.00
  13   1    -0.10  -0.14   0.00     0.24   0.09  -0.00    -0.08   0.01   0.00
  14   1     0.10  -0.14  -0.00     0.24  -0.09  -0.00     0.08   0.01  -0.00
  15   1    -0.13  -0.16   0.00     0.24   0.10  -0.00     0.07  -0.02  -0.00
                     34                     35                     36
                        a                      a                      a 
 Frequencies --  1596.3733              3087.6127              3093.7525
 Red. masses --    11.4664                 1.7628                 1.7936
 Frc consts  --     0.0000                 0.0000                 0.0000
 IR Inten    --     2.6276                 1.5987                 3.4581
 Raman Activ --     0.0000                 0.0000                 0.0000
 Depolar     --     0.0000                 0.0000                 0.0000
 Atom AN      X      Y      Z        X      Y      Z        X      Y      Z
   1   6     0.21  -0.01  -0.00     0.21   0.00  -0.00    -0.00  -0.00   0.00
   2   6    -0.44   0.13   0.00    -0.05  -0.10   0.00    -0.08  -0.13   0.00
   3   6     0.44   0.13  -0.00    -0.02   0.03   0.00    -0.06   0.10   0.00
   4   6    -0.27   0.01   0.00    -0.00   0.00   0.00    -0.00   0.00   0.00
   5   6     0.44  -0.14  -0.00    -0.02  -0.03   0.00     0.06   0.10  -0.00
   6   6    -0.43  -0.12   0.00    -0.05   0.10   0.00     0.08  -0.13  -0.00
   7   6     0.03  -0.00  -0.00     0.00   0.00   0.00     0.00   0.00   0.00
   8   9     0.00  -0.00   0.00     0.00  -0.00   0.00     0.00  -0.00   0.00
   9   9     0.00  -0.00   0.00    -0.00  -0.00  -0.00     0.00  -0.00  -0.00
  10   9     0.00   0.00   0.00    -0.00   0.00  -0.00    -0.00  -0.00   0.00
  11   1     0.05   0.00  -0.00    -0.75  -0.00   0.01     0.00   0.00  -0.00
  12   1     0.07  -0.07  -0.00     0.20   0.36  -0.00     0.27   0.47  -0.00
  13   1    -0.08  -0.08   0.00     0.07  -0.12  -0.00     0.21  -0.36  -0.00
  14   1    -0.08   0.08   0.00     0.07   0.11  -0.00    -0.21  -0.35   0.00
  15   1     0.07   0.07  -0.00     0.20  -0.36  -0.00    -0.27   0.47   0.00
                     37                     38                     39
                        a                      a                      a 
 Frequencies --  3098.3300              3104.3902              3106.6541
 Red. masses --     1.8364                 1.8848                 1.9253
 Frc consts  --     0.0000                 0.0000                 0.0000
 IR Inten    --    19.5338                32.2716                 8.8418
 Raman Activ --     0.0000                 0.0000                 0.0000
 Depolar     --     0.0000                 0.0000                 0.0000
 Atom AN      X      Y      Z        X      Y      Z        X      Y      Z
   1   6     0.14   0.00  -0.00     0.00  -0.00  -0.00    -0.12  -0.00   0.00
   2   6     0.03   0.06  -0.00     0.06   0.11  -0.00    -0.07  -0.12   0.00
   3   6     0.07  -0.13  -0.00    -0.08   0.14   0.00     0.06  -0.10  -0.00
   4   6     0.01   0.00  -0.00    -0.00  -0.00   0.00     0.01  -0.00  -0.00
   5   6     0.07   0.13  -0.00     0.08   0.13  -0.00     0.06   0.10  -0.00
   6   6     0.04  -0.07  -0.00    -0.06   0.10   0.00    -0.07   0.13   0.00
   7   6    -0.00  -0.00  -0.00    -0.00   0.00  -0.00     0.00   0.00  -0.00
   8   9    -0.00   0.00  -0.00     0.00  -0.00   0.00    -0.00   0.00  -0.00
   9   9     0.00   0.00   0.00    -0.00  -0.00  -0.00    -0.00   0.00   0.00
  10   9     0.00  -0.00   0.00     0.00  -0.00   0.00    -0.00  -0.00   0.00
  11   1    -0.47  -0.00   0.00    -0.01   0.00   0.00     0.38   0.00  -0.00
  12   1    -0.12  -0.21   0.00    -0.21  -0.37   0.00     0.23   0.41  -0.00
  13   1    -0.27   0.47   0.00     0.27  -0.46  -0.00    -0.19   0.33   0.00
  14   1    -0.27  -0.46   0.00    -0.27  -0.46   0.00    -0.20  -0.35   0.00
  15   1    -0.13   0.23   0.00     0.20  -0.35  -0.00     0.24  -0.42  -0.00
