 Entering Gaussian System
 *********************************************
 Gaussian 98:
 frequency output generated by the xtb code
 *********************************************
                         Standard orientation:
 --------------------------------------------------------------------
  Center     Atomic     Atomic              Coordinates (Angstroms)
  Number     Number      Type              X           Y           Z
 --------------------------------------------------------------------
    1          6             0        1.853158   -0.072663   -0.257044
    2          6             0        0.539560    0.169304    0.467946
    3          8             0       -0.523868   -0.145903   -0.403388
    4          6             0       -1.785528    0.044508    0.175295
    5          1             0        2.688126    0.163767    0.396599
    6          1             0        1.919247   -1.113086   -0.562334
    7          1             0        1.904221    0.550961   -1.145040
    8          1             0        0.464375    1.222829    0.783751
    9          1             0        0.479891   -0.457722    1.372701
   10          1             0       -1.919440   -0.590786    1.060888
   11          1             0       -2.520546   -0.227071   -0.579614
   12          1             0       -1.935844    1.091069    0.471808
 --------------------------------------------------------------------
     1 basis functions        1 primitive gaussians
     1 alpha electrons        1 beta electrons
 
 Harmonic frequencies (cm**-1), IR intensities (km*mol⁻¹),
 Raman scattering activities (A**4/amu), Raman depolarization ratios,
 reduced masses (AMU), force constants (mDyne/A) and normal coordinates:
                      1                      2                      3
                        a                      a                      a 
 Frequencies --   107.8550               188.3973               238.0580
 Red. masses --     9.0576                 1.3732                 3.9106
 Frc consts  --     0.0000                 0.0000                 0.0000
 IR Inten    --     4.4681                 0.1449                 3.9283
 Raman Activ --     0.0000                 0.0000                 0.0000
 Depolar     --     0.0000                 0.0000                 0.0000
 Atom AN      X      Y      Z        X      Y      Z        X      Y      Z
   1   6     0.00  -0.32   0.11     0.00  -0.05   0.02    -0.00   0.04  -0.01
   2   6    -0.00   0.32  -0.11    -0.00   0.14  -0.05    -0.00   0.22  -0.08
   3   8    -0.00   0.48  -0.17    -0.00   0.01  -0.00     0.00  -0.37   0.13
   4   6     0.00  -0.37   0.13     0.00  -0.08   0.03    -0.00   0.04  -0.02
   5   1     0.00  -0.09   0.03     0.00  -0.49   0.17     0.00  -0.21   0.07
   6   1    -0.07  -0.13   0.15    -0.27   0.08  -0.38    -0.14   0.05  -0.16
   7   1     0.08  -0.19  -0.04     0.26   0.30   0.24     0.14   0.14   0.09
   8   1     0.08   0.12  -0.11     0.01   0.05  -0.05    -0.04   0.10  -0.16
   9   1    -0.08   0.16   0.01    -0.01   0.07   0.00     0.04   0.18   0.06
  10   1     0.10  -0.29  -0.08     0.12   0.17   0.16    -0.23  -0.25  -0.23
  11   1     0.00  -0.04   0.01     0.00  -0.30   0.11    -0.00   0.45  -0.16
  12   1    -0.09  -0.18   0.24    -0.13   0.03  -0.23     0.23  -0.05   0.34
                      4                      5                      6
                        a                      a                      a 
 Frequencies --   277.2194               454.9065               840.0217
 Red. masses --     8.9883                 9.6018                 1.9520
 Frc consts  --     0.0000                 0.0000                 0.0000
 IR Inten    --     3.4448                 0.4021                 2.0288
 Raman Activ --     0.0000                 0.0000                 0.0000
 Depolar     --     0.0000                 0.0000                 0.0000
 Atom AN      X      Y      Z        X      Y      Z        X      Y      Z
   1   6     0.23   0.10   0.27    -0.47   0.01   0.05     0.00  -0.13   0.05
   2   6    -0.15  -0.13  -0.37    -0.25   0.05   0.16     0.00  -0.22   0.08
   3   8    -0.24  -0.13  -0.37     0.28  -0.10  -0.28    -0.00   0.08  -0.03
   4   6     0.10   0.11   0.32     0.49   0.02   0.05     0.00   0.01  -0.00
   5   1    -0.07   0.08   0.24    -0.05  -0.03  -0.09    -0.00   0.15  -0.05
   6   1     0.20   0.03   0.09    -0.23   0.00   0.00     0.34   0.08  -0.29
   7   1     0.20   0.04   0.09    -0.23  -0.00   0.00    -0.35   0.24   0.18
   8   1    -0.08  -0.04  -0.10    -0.13   0.01   0.04     0.25   0.10  -0.40
   9   1    -0.08  -0.03  -0.10    -0.13   0.01   0.04    -0.25   0.32   0.26
  10   1     0.14   0.04   0.12     0.23   0.02   0.04     0.03  -0.01  -0.01
  11   1    -0.12   0.08   0.22     0.02   0.04   0.12     0.00  -0.02   0.01
  12   1     0.14   0.04   0.12     0.23   0.01   0.04    -0.03  -0.01   0.01
                      7                      8                      9
                        a                      a                      a 
 Frequencies --   895.5357              1057.6468              1088.7804
 Red. masses --     7.6998                 8.3371                 7.1263
 Frc consts  --     0.0000                 0.0000                 0.0000
 IR Inten    --    11.5735                25.2905                 2.0854
 Raman Activ --     0.0000                 0.0000                 0.0000
 Depolar     --     0.0000                 0.0000                 0.0000
 Atom AN      X      Y      Z        X      Y      Z        X      Y      Z
   1   6     0.33   0.04   0.10     0.36  -0.00  -0.01     0.21  -0.13  -0.39
   2   6     0.17   0.12   0.34    -0.37  -0.02  -0.05    -0.33   0.13   0.39
   3   8    -0.12  -0.14  -0.39    -0.33   0.07   0.21    -0.03   0.02   0.07
   4   6    -0.27   0.01   0.02     0.43  -0.00  -0.02     0.02  -0.08  -0.22
   5   1     0.39  -0.11  -0.33     0.28  -0.07  -0.22    -0.13   0.04   0.13
   6   1    -0.20   0.01  -0.03    -0.06   0.00  -0.06     0.30  -0.03  -0.05
   7   1    -0.20  -0.03  -0.02    -0.05  -0.04  -0.04     0.30  -0.00  -0.06
   8   1    -0.08   0.02   0.06    -0.23  -0.01  -0.01    -0.06   0.04   0.11
   9   1    -0.08   0.02   0.06    -0.23   0.00  -0.01    -0.06   0.04   0.11
  10   1     0.05   0.02   0.03    -0.07  -0.02  -0.03     0.20   0.03   0.02
  11   1    -0.23   0.05   0.15     0.31  -0.06  -0.18    -0.27   0.06   0.19
  12   1     0.05   0.01   0.03    -0.07  -0.00  -0.04     0.20  -0.01   0.03
                     10                     11                     12
                        a                      a                      a 
 Frequencies --  1126.2177              1129.5685              1161.8086
 Red. masses --    12.5613                 3.5993                 5.3403
 Frc consts  --     0.0000                 0.0000                 0.0000
 IR Inten    --    93.7823                 0.0368                21.3040
 Raman Activ --     0.0000                 0.0000                 0.0000
 Depolar     --     0.0000                 0.0000                 0.0000
 Atom AN      X      Y      Z        X      Y      Z        X      Y      Z
   1   6     0.17  -0.03  -0.07     0.00   0.14  -0.05     0.00  -0.25   0.09
   2   6    -0.42  -0.05  -0.15    -0.00  -0.23   0.08    -0.00   0.41  -0.14
   3   8     0.66   0.01   0.00     0.01  -0.10   0.03     0.00  -0.25   0.09
   4   6    -0.38   0.09   0.26    -0.01   0.35  -0.12    -0.00   0.20  -0.07
   5   1     0.08  -0.02  -0.07     0.00  -0.07   0.02    -0.00   0.11  -0.04
   6   1     0.01  -0.00  -0.04    -0.13  -0.01   0.11     0.22   0.02  -0.18
   7   1     0.01  -0.02  -0.04     0.13  -0.07  -0.08    -0.22   0.12   0.13
   8   1    -0.18  -0.01  -0.01    -0.14  -0.00  -0.20     0.14  -0.01   0.35
   9   1    -0.18  -0.00  -0.02     0.13   0.13   0.16    -0.14  -0.23  -0.26
  10   1    -0.11  -0.00   0.03     0.44  -0.22  -0.18     0.23  -0.13  -0.10
  11   1     0.04  -0.01  -0.04     0.00  -0.19   0.07     0.00  -0.10   0.03
  12   1    -0.10   0.02   0.02    -0.44  -0.07   0.28    -0.23  -0.04   0.16
                     13                     14                     15
                        a                      a                      a 
 Frequencies --  1194.3792              1255.4193              1348.6792
 Red. masses --     7.9169                 2.1612                 3.7902
 Frc consts  --     0.0000                 0.0000                 0.0000
 IR Inten    --    30.7139                 1.8784                12.1468
 Raman Activ --     0.0000                 0.0000                 0.0000
 Depolar     --     0.0000                 0.0000                 0.0000
 Atom AN      X      Y      Z        X      Y      Z        X      Y      Z
   1   6     0.05   0.07   0.20     0.00  -0.26   0.09    -0.02   0.05   0.13
   2   6    -0.11  -0.13  -0.37    -0.00   0.08  -0.03    -0.44   0.02   0.05
   3   8     0.08   0.15   0.42    -0.00   0.12  -0.04    -0.02  -0.05  -0.14
   4   6    -0.06  -0.12  -0.34     0.00  -0.02   0.01     0.02   0.02   0.07
   5   1     0.16  -0.04  -0.13    -0.00   0.08  -0.03     0.17  -0.06  -0.16
   6   1    -0.17   0.02  -0.01     0.19   0.00  -0.16     0.09   0.04  -0.08
   7   1    -0.17  -0.02   0.01    -0.19   0.10   0.13     0.09  -0.08  -0.04
   8   1     0.06  -0.03  -0.05    -0.62  -0.01  -0.05     0.57   0.04   0.03
   9   1     0.06  -0.01  -0.05     0.62   0.03   0.05     0.57  -0.00   0.05
  10   1     0.27   0.06   0.03    -0.01   0.02   0.01     0.00  -0.04  -0.03
  11   1    -0.35   0.07   0.22    -0.00   0.01  -0.00     0.08  -0.02  -0.05
  12   1     0.27  -0.02   0.06     0.01   0.01  -0.02    -0.00   0.01  -0.05
                     16                     17                     18
                        a                      a                      a 
 Frequencies --  1400.1101              1409.7202              1470.6225
 Red. masses --     3.3224                 2.6410                 1.5341
 Frc consts  --     0.0000                 0.0000                 0.0000
 IR Inten    --    10.7390                 0.0089                 5.3808
 Raman Activ --     0.0000                 0.0000                 0.0000
 Depolar     --     0.0000                 0.0000                 0.0000
 Atom AN      X      Y      Z        X      Y      Z        X      Y      Z
   1   6     0.39  -0.05  -0.16    -0.12   0.01   0.04    -0.00   0.01  -0.00
   2   6    -0.12   0.01   0.03     0.09   0.00   0.01    -0.00   0.00  -0.00
   3   8    -0.05  -0.02  -0.04    -0.08   0.01   0.03    -0.00   0.03  -0.01
   4   6    -0.08   0.02   0.05    -0.33   0.02   0.06    -0.00   0.20  -0.07
   5   1    -0.29   0.13   0.37     0.08  -0.04  -0.11     0.00  -0.05   0.02
   6   1    -0.44  -0.07   0.12     0.14   0.02  -0.03     0.03  -0.00   0.01
   7   1    -0.44   0.12   0.05     0.14  -0.03  -0.01    -0.03  -0.01  -0.01
   8   1     0.14   0.00   0.06    -0.07  -0.00   0.01    -0.01   0.00   0.00
   9   1     0.14   0.04   0.04    -0.07   0.01   0.01     0.01   0.00  -0.00
  10   1     0.15  -0.04  -0.01     0.49  -0.07   0.03    -0.40  -0.15  -0.18
  11   1     0.14  -0.04  -0.12     0.38  -0.12  -0.35     0.01  -0.67   0.24
  12   1     0.15   0.03  -0.03     0.49   0.08  -0.03     0.41  -0.00   0.23
                     19                     20                     21
                        a                      a                      a 
 Frequencies --  1474.6786              1491.7894              1495.4246
 Red. masses --     1.5384                 1.6296                 1.5774
 Frc consts  --     0.0000                 0.0000                 0.0000
 IR Inten    --     1.8666                 7.2549                 1.7223
 Raman Activ --     0.0000                 0.0000                 0.0000
 Depolar     --     0.0000                 0.0000                 0.0000
 Atom AN      X      Y      Z        X      Y      Z        X      Y      Z
   1   6     0.00  -0.20   0.07     0.01   0.03   0.08    -0.07  -0.06  -0.18
   2   6     0.00  -0.04   0.02     0.05  -0.04  -0.10    -0.03  -0.02  -0.06
   3   8    -0.00   0.01  -0.00    -0.02   0.01   0.03     0.00   0.01   0.02
   4   6    -0.00   0.01  -0.00     0.04   0.06   0.17     0.02   0.03   0.07
   5   1    -0.01   0.68  -0.24    -0.05   0.02   0.07     0.16  -0.07  -0.20
   6   1    -0.42   0.01  -0.19    -0.01   0.07  -0.24     0.06  -0.17   0.58
   7   1     0.42   0.14   0.14    -0.01  -0.21  -0.14     0.06   0.50   0.34
   8   1     0.02  -0.00  -0.02    -0.05  -0.08   0.26     0.02  -0.02   0.05
   9   1    -0.02   0.01   0.02    -0.05   0.22   0.15     0.02   0.04   0.03
  10   1    -0.03  -0.01  -0.01     0.03  -0.45  -0.32     0.02  -0.21  -0.15
  11   1     0.00  -0.05   0.02    -0.14   0.05   0.14    -0.07   0.02   0.07
  12   1     0.03  -0.00   0.02     0.03   0.15  -0.53     0.01   0.07  -0.24
                     22                     23                     24
                        a                      a                      a 
 Frequencies --  1500.0569              2824.0687              2861.0291
 Red. masses --     1.7723                 1.9643                 1.4203
 Frc consts  --     0.0000                 0.0000                 0.0000
 IR Inten    --     0.7194                84.9546                61.5383
 Raman Activ --     0.0000                 0.0000                 0.0000
 Depolar     --     0.0000                 0.0000                 0.0000
 Atom AN      X      Y      Z        X      Y      Z        X      Y      Z
   1   6    -0.03  -0.01  -0.01    -0.00   0.00  -0.00    -0.01  -0.00  -0.00
   2   6     0.03  -0.08  -0.22     0.00  -0.28   0.10    -0.04   0.06   0.18
   3   8    -0.02  -0.03  -0.07     0.00  -0.01   0.00     0.02   0.01   0.02
   4   6    -0.00  -0.03  -0.07    -0.00   0.00  -0.00    -0.00  -0.01  -0.02
   5   1     0.02  -0.01  -0.04     0.00   0.00  -0.00     0.01   0.00   0.01
   6   1     0.03  -0.01   0.04     0.00  -0.03  -0.01    -0.00   0.02   0.00
   7   1     0.03   0.04   0.03    -0.00  -0.01   0.02    -0.00  -0.01   0.02
   8   1     0.01  -0.17   0.60    -0.05   0.64   0.21     0.04  -0.67  -0.16
   9   1     0.00   0.51   0.36     0.04   0.37  -0.56     0.03   0.43  -0.54
  10   1    -0.05   0.22   0.15     0.01   0.00  -0.00    -0.00  -0.03   0.04
  11   1     0.06  -0.02  -0.06     0.00   0.00  -0.00     0.01   0.00   0.01
  12   1    -0.05  -0.08   0.25    -0.01   0.00   0.00    -0.00   0.05   0.01
                     25                     26                     27
                        a                      a                      a 
 Frequencies --  2882.4546              2908.5476              3028.5729
 Red. masses --     1.9253                 1.4225                 1.7040
 Frc consts  --     0.0000                 0.0000                 0.0000
 IR Inten    --    65.2703                64.8406                20.3270
 Raman Activ --     0.0000                 0.0000                 0.0000
 Depolar     --     0.0000                 0.0000                 0.0000
 Atom AN      X      Y      Z        X      Y      Z        X      Y      Z
   1   6    -0.00  -0.00   0.00     0.00   0.00   0.00    -0.00  -0.00  -0.00
   2   6     0.00  -0.00   0.00     0.00  -0.00  -0.01    -0.00   0.00   0.00
   3   8    -0.00   0.01  -0.00     0.02  -0.01  -0.02     0.01   0.00   0.00
   4   6    -0.00   0.27  -0.10     0.02  -0.06  -0.18     0.17   0.06   0.18
   5   1     0.00  -0.00   0.00    -0.00  -0.00  -0.00     0.01   0.00   0.01
   6   1     0.00   0.00   0.00    -0.00  -0.01  -0.00    -0.00   0.01   0.00
   7   1    -0.00   0.00  -0.00    -0.00   0.00  -0.00    -0.00  -0.00   0.00
   8   1    -0.01   0.00  -0.00     0.00   0.05   0.01    -0.00  -0.01  -0.00
   9   1     0.01   0.00  -0.00     0.00  -0.03   0.04    -0.00   0.01  -0.01
  10   1    -0.07  -0.37   0.56    -0.08  -0.43   0.53     0.02   0.01   0.03
  11   1    -0.00   0.05  -0.02     0.01  -0.01  -0.01    -0.65  -0.24  -0.68
  12   1     0.08  -0.64  -0.21    -0.09   0.67   0.15     0.02   0.02   0.03
                     28                     29                     30
                        a                      a                      a 
 Frequencies --  3046.2020              3051.7650              3055.3245
 Red. masses --     1.5901                 1.9586                 1.6166
 Frc consts  --     0.0000                 0.0000                 0.0000
 IR Inten    --    27.4474                26.9243                22.5750
 Raman Activ --     0.0000                 0.0000                 0.0000
 Depolar     --     0.0000                 0.0000                 0.0000
 Atom AN      X      Y      Z        X      Y      Z        X      Y      Z
   1   6    -0.19  -0.04  -0.12    -0.00   0.28  -0.10    -0.02  -0.08  -0.22
   2   6    -0.01  -0.00  -0.01    -0.00   0.02  -0.01     0.00  -0.00  -0.01
   3   8     0.00   0.00   0.00     0.00  -0.00   0.00     0.00   0.00   0.00
   4   6    -0.00  -0.00  -0.00    -0.00   0.00  -0.00    -0.00  -0.00  -0.00
   5   1     0.72   0.21   0.58     0.01   0.04  -0.01     0.13   0.03   0.08
   6   1    -0.02  -0.13  -0.05     0.03  -0.63  -0.21    -0.04   0.67   0.17
   7   1    -0.02   0.07  -0.12    -0.02  -0.38   0.57    -0.03  -0.41   0.53
   8   1    -0.00   0.01   0.00     0.00  -0.02  -0.01    -0.00   0.02   0.00
   9   1    -0.00  -0.00   0.01     0.00  -0.02   0.02    -0.00  -0.01   0.02
  10   1    -0.00  -0.00   0.00    -0.00  -0.00   0.00    -0.00  -0.00   0.00
  11   1     0.01   0.00   0.01     0.00   0.00   0.00     0.01   0.00   0.01
  12   1    -0.00   0.00   0.00     0.00  -0.00  -0.00    -0.00   0.00   0.00
