
                                 *****************
                                 * O   R   C   A *
                                 *****************

                                            #,                                       
                                            ###                                      
                                            ####                                     
                                            #####                                    
                                            ######                                   
                                           ########,                                 
                                     ,,################,,,,,                         
                               ,,#################################,,                 
                          ,,##########################################,,             
                       ,#########################################, ''#####,          
                    ,#############################################,,   '####,        
                  ,##################################################,,,,####,       
                ,###########''''           ''''###############################       
              ,#####''   ,,,,##########,,,,          '''####'''          '####       
            ,##' ,,,,###########################,,,                        '##       
           ' ,,###''''                  '''############,,,                           
         ,,##''                                '''############,,,,        ,,,,,,###''
      ,#''                                            '''#######################'''  
     '                                                          ''''####''''         
             ,#######,   #######,   ,#######,      ##                                
            ,#'     '#,  ##    ##  ,#'     '#,    #''#        ,####,   ,####,        
            ##       ##  ##   ,#'  ##            #'  '#       #'       #'  '#        
            ##       ##  #######   ##           ,######,      #####,   #    #        
            '#,     ,#'  ##    ##  '#,     ,#' ,#      #,     #,   #   #,  ,#        
             '#######'   ##     ##  '#######'  #'      '#     '####' # '####'        



                #########################################################
                #                        -***-                          #
                #          Department of theory and spectroscopy        #
                #                                                       #
                #                      Frank Neese                      #
                #                                                       #
                #     Directorship, Architecture, Infrastructure        #
                #                    SHARK, DRIVERS                     #
                #        Core code/Algorithms in most modules           #
                #                                                       #
                #        Max Planck Institute fuer Kohlenforschung      #
                #                Kaiser Wilhelm Platz 1                 #
                #                 D-45470 Muelheim/Ruhr                 #
                #                      Germany                          #
                #                                                       #
                #                  All rights reserved                  #
                #                        -***-                          #
                #########################################################


                         Program Version 6.0.0  -   RELEASE  -


 With contributions from (in alphabetic order):
   Daniel Aravena         : Magnetic Suceptibility
   Michael Atanasov       : Ab Initio Ligand Field Theory (pilot matlab implementation)
   Alexander A. Auer      : GIAO ZORA, VPT2 properties, NMR spectrum
   Ute Becker             : All parallelization in ORCA, NUMFREQ, NUMCALC
   Giovanni Bistoni       : ED, misc. LED, open-shell LED, HFLD
   Martin Brehm           : Molecular dynamics
   Dmytro Bykov           : pre 5.0 version of the SCF Hessian
   Marcos Casanova-Páez   : Triplet and SCS-CIS(D). UHF-(DLPNO)-IP/EA/STEOM-CCSD. UHF-CVS-IP/STEOM-CCSD
   Vijay G. Chilkuri      : MRCI spin determinant printing, contributions to CSF-ICE
   Pauline Colinet        : FMM embedding
   Dipayan Datta          : RHF DLPNO-CCSD density
   Achintya Kumar Dutta   : EOM-CC, STEOM-CC
   Nicolas Foglia         : Exact transition moments, OPA infrastructure, MCD improvements
   Dmitry Ganyushin       : Spin-Orbit,Spin-Spin,Magnetic field MRCI
   Miquel Garcia          : C-PCM and meta-GGA Hessian, CCSD/C-PCM, Gaussian charge scheme
   Tiago L. C. Gouveia    : GS-ROHF, GS-ROCIS
   Yang Guo               : DLPNO-NEVPT2, F12-NEVPT2, CIM, IAO-localization
   Andreas Hansen         : Spin unrestricted coupled pair/coupled cluster methods
   Ingolf Harden          : AUTO-CI MPn and infrastructure 
   Benjamin Helmich-Paris : MC-RPA, TRAH-(SCF,CASSCF), AVAS, COSX integrals, SCF dyn. polar.
   Lee Huntington         : MR-EOM, pCC
   Robert Izsak           : Overlap fitted RIJCOSX, COSX-SCS-MP3, EOM
   Riya Kayal             : Wick's Theorem for AUTO-CI, AUTO-CI UHF-CCSDT
   Emily Kempfer          : AUTO-CI, RHF CISDT and CCSDT
   Christian Kollmar      : KDIIS, OOCD, Brueckner-CCSD(T), CCSD density, CASPT2, CASPT2-K, improved NEVPT2
   Axel Koslowski         : Symmetry handling
   Simone Kossmann        : Meta GGA functionals, TD-DFT gradient, OOMP2, (MP2 Hessian; deprecated post 5.0)
   Lucas Lang             : DCDCAS
   Marvin Lechner         : AUTO-CI (C++ implementation), FIC-MRCC
   Spencer Leger          : CASSCF response
   Dagmar Lenk            : GEPOL surface, SMD, ORCA-2-JSON
   Dimitrios Liakos       : Extrapolation schemes; Compound Job, initial MDCI parallelization
   Dimitrios Manganas     : Further ROCIS development; embedding schemes. LFT, Crystal Embedding
   Dimitrios Pantazis     : SARC Basis sets
   Anastasios Papadopoulos: AUTO-CI, single reference methods and gradients
   Taras Petrenko         : pre 6.0 DFT Hessian and TD-DFT gradient, (ASA, deprecated), ECA, 1-Electron XAS/XES, NRVS
   Peter Pinski           : DLPNO-MP2, DLPNO-MP2 Gradient
   Christoph Reimann      : Effective Core Potentials
   Marius Retegan         : Local ZFS, SOC
   Christoph Riplinger    : Optimizer, TS searches, QM/MM, DLPNO-CCSD(T), (RO)-DLPNO pert. Triples
   Michael Roemelt        : Original ROCIS implementation
   Masaaki Saitow         : Open-shell DLPNO-CCSD energy and density
   Barbara Sandhoefer     : DKH picture change effects
   Kantharuban Sivalingam : CASSCF convergence/infrastructure, NEVPT2 and variants, FIC-MRCI
   Bernardo de Souza      : ESD, SOC TD-DFT
   Georgi Stoychev        : AutoAux, RI-MP2 NMR, DLPNO-MP2 response, X2C
   Van Anh Tran           : RI-MP2 g-tensors
   Willem Van den Heuvel  : Paramagnetic NMR
   Zikuan Wang            : NOTCH, Electric field optimization 
   Frank Wennmohs         : Technical directorship and infrastructure
   Hang Xu                : AUTO-CI-Response properties 


 We gratefully acknowledge several colleagues who have allowed us to
 interface, adapt or use parts of their codes:
   Stefan Grimme, W. Hujo, H. Kruse, P. Pracht,  : VdW corrections, initial TS optimization,
                  C. Bannwarth, S. Ehlert,         DFT functionals, gCP, sTDA/sTD-DF
                  L. Wittmann, M. Mueller
   Ed Valeev, F. Pavosevic, A. Kumar             : LibInt (2-el integral package), F12 methods
   Garnet Chan, S. Sharma, J. Yang, R. Olivares  : DMRG
   Ulf Ekstrom                                   : XCFun DFT Library
   Mihaly Kallay                                 : mrcc  (arbitrary order and MRCC methods)
   Frank Weinhold                                : gennbo (NPA and NBO analysis)
   Simon Mueller                                 : openCOSMO-RS
   Christopher J. Cramer and Donald G. Truhlar   : smd solvation model
   Lars Goerigk                                  : TD-DFT with DH, B97 family of functionals
   V. Asgeirsson, H. Jonsson                     : NEB implementation
   FAccTs GmbH                                   : IRC, NEB, NEB-TS, DLPNO-Multilevel, CI-OPT
                                                   MM, QMMM, 2- and 3-layer-ONIOM, Crystal-QMMM,
                                                   LR-CPCM, SF, NACMEs, symmetry and pop. for TD-DFT,
                                                   nearIR, NL-DFT gradient (VV10), updates on ESD,
                                                   ML-optimized integration grids, MBIS, APM,
                                                   GOAT, DOCKER, SOLVATOR, interface openCOSMO-RS
   S Lehtola, MJT Oliveira, MAL Marques          : LibXC Library
   Liviu Ungur et al                             : ANISO software


 Your calculation uses the libint2 library for the computation of 2-el integrals
 For citations please refer to: http://libint.valeyev.net

 Your ORCA version has been built with support for libXC version: 6.2.2
 For citations please refer to: https://libxc.gitlab.io

 This ORCA versions uses:
   CBLAS   interface :  Fast vector & matrix operations
   LAPACKE interface :  Fast linear algebra routines
   SCALAPACK package :  Parallel linear algebra routines
   Shared memory     :  Shared parallel matrices
   BLAS/LAPACK       :  OpenBLAS 0.3.27  USE64BITINT DYNAMIC_ARCH NO_AFFINITY SapphireRapids SINGLE_THREADED
        Core in use  :  SapphireRapids
   Copyright (c) 2011-2014, The OpenBLAS Project




***************************************
The coordinates will be read from file: censo.xyz
***************************************


Your calculation utilizes the geometrical counterpoise correction gCP
Please cite in your paper:
H.Kruse, S. Grimme J.Chem.Phys., 136, (2012), 154101 
   

Your calculation utilizes the atom-pairwise dispersion correction
based on EEQ partial charges (D4)


================================================================================

cite the ECPs for I  [Def2-ECP] as follows:
Ce-Yb(ecp-28): M. Dolg, H. Stoll, H.Preuss, J. Chem. Phys., 1989, 90, 1730-1734.
Y-Cd(ecp-28), Hf-Hg(ecp-46): D. Andrae,U. Haeussermann, M. Dolg, H. Stoll, H. Preuss, Theor. Chim. Acta, 1990, 77, 123-141.
In-Sb(ecp-28), Tl-Bi(ecp-46): B. Metz, H. Stoll, M. Dolg, J. Chem. Phys., 2000, 113, 2563-2569.
Te-Xe(ecp-28), Po-Rn(ecp-46): K. A. Peterson, D. Figgen, E. Goll, H. Stoll, M. Dolg, J. Chem. Phys., 2003, 119, 11113-11123.
Rb(ecp-28), Cs(ecp-46): T. Leininger, A. Nicklass, W. Kuechle, H. Stoll, M. Dolg, A. Bergner, Chem. Phys. Lett., 1996, 255, 274-280.
Sr(ecp-28), Ba(ecp-46): M. Kaupp, P. V. Schleyer, H. Stoll and H. Preuss, J. Chem. Phys., 1991, 94, 1360-1366.
La(ecp-46): M. Dolg, H. Stoll, A. Savin, H. Preuss, Theor. Chim. Acta, 1989, 75, 173-194.
Lu(ecp-28): X. Cao, M. Dolg, J. Chem. Phys., 2001, 115, 7348-7355.

ECP parameters for I  [Def2-ECP] have been obtained from:
TURBOMOLE (7.0.2)

----- Orbital basis set information -----
Your calculation utilizes the basis: def2-TZVP
   F. Weigend and R. Ahlrichs, Phys. Chem. Chem. Phys. 7, 3297 (2005).

----- AuxJ basis set information -----
Your calculation utilizes the basis: def2-mTZVPP/J
   Stefan Grimme, Andreas Hansen, Sebastian Ehlert, and Jan-Michael Mewes 
   J. Chem. Phys. 154, 000000 (2021). DOI: 10.1063/5.0040021

================================================================================
                                        WARNINGS
                       Please study these warnings very carefully!
================================================================================

Using LibXC functional ID 497 : Re-regularized SCAN exchange by Furness et al
[ 1]  J. W. Furness, A. D. Kaplan, J. Ning, J. P. Perdew, and J. Sun.,  J. Phys. Chem. Lett. 11, 8208-8215 (2020)
[ 2]  J. W. Furness, A. D. Kaplan, J. Ning, J. P. Perdew, and J. Sun.,  J. Phys. Chem. Lett. 11, 9248-9248 (2020)
Using LibXC functional ID 498 : Re-regularized SCAN correlation by Furness et al
[ 1]  J. W. Furness, A. D. Kaplan, J. Ning, J. P. Perdew, and J. Sun.,  J. Phys. Chem. Lett. 11, 8208-8215 (2020)
[ 2]  J. W. Furness, A. D. Kaplan, J. Ning, J. P. Perdew, and J. Sun.,  J. Phys. Chem. Lett. 11, 9248-9248 (2020)
Using LibXC functional ID 497 : Re-regularized SCAN exchange by Furness et al
[ 1]  J. W. Furness, A. D. Kaplan, J. Ning, J. P. Perdew, and J. Sun.,  J. Phys. Chem. Lett. 11, 8208-8215 (2020)
[ 2]  J. W. Furness, A. D. Kaplan, J. Ning, J. P. Perdew, and J. Sun.,  J. Phys. Chem. Lett. 11, 9248-9248 (2020)
Using LibXC functional ID 498 : Re-regularized SCAN correlation by Furness et al
[ 1]  J. W. Furness, A. D. Kaplan, J. Ning, J. P. Perdew, and J. Sun.,  J. Phys. Chem. Lett. 11, 8208-8215 (2020)
[ 2]  J. W. Furness, A. D. Kaplan, J. Ning, J. P. Perdew, and J. Sun.,  J. Phys. Chem. Lett. 11, 9248-9248 (2020)

================================================================================
                                       INPUT FILE
================================================================================
NAME = censo.inp
|  1> ! r2SCAN-3c DEF2-TZVP FREQ
|  2> * xyzfile 0 1 censo.xyz
|  3> 
|  4>                          ****END OF INPUT****
================================================================================

                       ****************************
                       * Single Point Calculation *
                       ****************************

---------------------------------
CARTESIAN COORDINATES (ANGSTROEM)
---------------------------------
  C     -2.569631   -0.449316   -0.000003
  C     -1.591689    0.695802    0.000001
  I      0.493384   -0.021886   -0.000001
  H     -2.462732   -1.075314    0.889249
  H     -3.584035   -0.029392   -0.000013
  H     -2.462718   -1.075322   -0.889248
  H     -1.649979    1.313949    0.894296
  H     -1.649952    1.313932   -0.894307

----------------------------
CARTESIAN COORDINATES (A.U.)
----------------------------
  NO LB      ZA    FRAG     MASS         X           Y           Z
   0 C     6.0000    0    12.011   -4.855900   -0.849083   -0.000005
   1 C     6.0000    0    12.011   -3.007855    1.314876    0.000003
   2 I    25.0000*   0   126.900    0.932360   -0.041359   -0.000002
   3 H     1.0000    0     1.008   -4.653889   -2.032049    1.680437
   4 H     1.0000    0     1.008   -6.772845   -0.055543   -0.000024
   5 H     1.0000    0     1.008   -4.653863   -2.032063   -1.680435
   6 H     1.0000    0     1.008   -3.118008    2.483004    1.689975
   7 H     1.0000    0     1.008   -3.117957    2.482972   -1.689996
* core charge reduced due to ECP

--------------------------------
INTERNAL COORDINATES (ANGSTROEM)
--------------------------------
 C      0   0   0     0.000000000000     0.00000000     0.00000000
 C      1   0   0     1.505877565050     0.00000000     0.00000000
 I      2   1   0     2.205131295251   111.50405421     0.00000000
 H      1   2   3     1.092735329078   111.84505063    61.25195059
 H      1   2   3     1.097884727122   108.01003598   180.00061108
 H      1   2   3     1.092735356145   111.84516285   298.74931597
 H      2   1   3     1.088699235195   113.39035397   243.50588824
 H      2   1   3     1.088699929794   113.39033533   116.49180612

---------------------------
INTERNAL COORDINATES (A.U.)
---------------------------
 C      0   0   0     0.000000000000     0.00000000     0.00000000
 C      1   0   0     2.845696189160     0.00000000     0.00000000
 I      2   1   0     4.167094237364   111.50405421     0.00000000
 H      1   2   3     2.064970508818   111.84505063    61.25195059
 H      1   2   3     2.074701460875   108.01003598   180.00061108
 H      1   2   3     2.064970559966   111.84516285   298.74931597
 H      2   1   3     2.057343396728   113.39035397   243.50588824
 H      2   1   3     2.057344709329   113.39033533   116.49180612

---------------------
BASIS SET INFORMATION
---------------------
There are 3 groups of distinct atoms

 Group   1 Type C   : 11s6p2d1f contracted to 5s3p2d1f pattern {62111/411/11/1}
 Group   2 Type I   : 11s10p8d2f contracted to 6s5p3d2f pattern {521111/34111/611/11}
 Group   3 Type H   : 5s1p contracted to 3s1p pattern {311/1}

Atom   0C    basis set group =>   1
Atom   1C    basis set group =>   1
Atom   2I    basis set group =>   2
Atom   3H    basis set group =>   3
Atom   4H    basis set group =>   3
Atom   5H    basis set group =>   3
Atom   6H    basis set group =>   3
Atom   7H    basis set group =>   3
---------------------------------
AUXILIARY/J BASIS SET INFORMATION
---------------------------------
There are 3 groups of distinct atoms

 Group   1 Type C   : 8s3p3d contracted to 6s3p3d pattern {311111/111/111}
 Group   2 Type I   : 11s5p5d3f1g contracted to 8s4p3d2f1g pattern {41111111/2111/311/21/1}
 Group   3 Type H   : 5s2p1d contracted to 3s1p1d pattern {311/2/1}

Atom   0C    basis set group =>   1
Atom   1C    basis set group =>   1
Atom   2I    basis set group =>   2
Atom   3H    basis set group =>   3
Atom   4H    basis set group =>   3
Atom   5H    basis set group =>   3
Atom   6H    basis set group =>   3
Atom   7H    basis set group =>   3
-------------------------
ECP PARAMETER INFORMATION
-------------------------

 Group 1, Type I  ECP Def2-ECP (replacing 28 core electrons, lmax=3)

Atom   2I    ECP group =>   1

------------------------------------------------------------------------------
                             ORCA STARTUP CALCULATIONS
                           -- RI-GTO INTEGRALS CHOSEN --
------------------------------------------------------------------------------
------------------------------------------------------------------------------
                   ___                                                        
                  /   \      - P O W E R E D   B Y -                         
                 /     \                                                     
                 |  |  |   _    _      __       _____    __    __             
                 |  |  |  | |  | |    /  \     |  _  \  |  |  /  |          
                  \  \/   | |  | |   /    \    | | | |  |  | /  /          
                 / \  \   | |__| |  /  /\  \   | |_| |  |  |/  /          
                |  |  |   |  __  | /  /__\  \  |    /   |      \           
                |  |  |   | |  | | |   __   |  |    \   |  |\   \          
                \     /   | |  | | |  |  |  |  | |\  \  |  | \   \       
                 \___/    |_|  |_| |__|  |__|  |_| \__\ |__|  \__/        
                                                                              
                      - O R C A' S   B I G   F R I E N D -                    
                                      &                                       
                       - I N T E G R A L  F E E D E R -                       
                                                                              
 v1 FN, 2020, v2 2021, v3 2022-2024                                           
------------------------------------------------------------------------------


----------------------
SHARK INTEGRAL PACKAGE
----------------------

Number of atoms                             ...      8
Number of basis functions                   ...    142
Number of shells                            ...     58
Maximum angular momentum                    ...      3
Integral batch strategy                     ... SHARK/LIBINT Hybrid
RI-J (if used) integral strategy            ... SPLIT-RIJ (Revised 2003 algorithm where possible)
Printlevel                                  ...      1
Contraction scheme used                     ... SEGMENTED contraction
Prescreening option                         ... SCHWARTZ
   Thresh                                   ... 1.000e-10
   Tcut                                     ... 1.000e-11
   Tpresel                                  ... 1.000e-11 
Coulomb Range Separation                    ... NOT USED
Exchange Range Separation                   ... NOT USED
Multipole approximations                    ... NOT USED
Finite Nucleus Model                        ... NOT USED
CABS basis                                  ... NOT available
Auxiliary Coulomb fitting basis             ... AVAILABLE
   # of basis functions in Aux-J            ...    173
   # of shells in Aux-J                     ...     67
   Maximum angular momentum in Aux-J        ...      4
Auxiliary J/K fitting basis                 ... NOT available
Auxiliary Correlation fitting basis         ... NOT available
Auxiliary 'external' fitting basis          ... NOT available

Checking pre-screening integrals            ... done (  0.0 sec) Dimension = 58
Check shell pair data                       ... done (  0.0 sec)
Shell pair information
Shell pair cut-off parameter TPreSel        ...   1.0e-11
Total number of shell pairs                 ...      1711
Shell pairs after pre-screening             ...      1651
Total number of primitive shell pairs       ...      5245
Primitive shell pairs kept                  ...      4148
          la=0 lb=0:    468 shell pairs
          la=1 lb=0:    476 shell pairs
          la=1 lb=1:    135 shell pairs
          la=2 lb=0:    212 shell pairs
          la=2 lb=1:    111 shell pairs
          la=2 lb=2:     28 shell pairs
          la=3 lb=0:    120 shell pairs
          la=3 lb=1:     63 shell pairs
          la=3 lb=2:     28 shell pairs
          la=3 lb=3:     10 shell pairs

Calculating one electron integrals          ... done (  0.0 sec)
Calculating ECP integrals                   ... done (  0.1 sec)
Calculating RI/J V-Matrix + Cholesky decomp.... done (  0.0 sec)
Calculating Nuclear repulsion               ... done (  0.0 sec) ENN=    119.796374858313 Eh

Diagonalization of the overlap matrix:
Smallest eigenvalue                        ... 5.038e-04
Time for diagonalization                   ...    0.002 sec
Threshold for overlap eigenvalues          ... 1.000e-07
Number of eigenvalues below threshold      ... 0
Time for construction of square roots      ...    0.011 sec
Total time needed                          ...    0.021 sec

-------------------
DFT GRID GENERATION
-------------------

General Integration Accuracy     IntAcc      ... 4.388
Radial Grid Type                 RadialGrid  ... OptM3 with GC (2021)
Angular Grid (max. ang.)         AngularGrid ... 4 (Lebedev-302)
Angular grid pruning method      GridPruning ... 4 (adaptive)
Weight generation scheme         WeightScheme... mBecke (2022)
Basis function cutoff            BFCut       ... 1.0000e-10
Integration weight cutoff        WCut        ... 1.0000e-14
Partially contracted basis set               ... off
Rotationally invariant grid construction     ... off
Angular grids for H and He will be reduced by one unit

Total number of grid points                  ...    39895
Total number of batches                      ...      627
Average number of points per batch           ...       63
Average number of grid points per atom       ...     4987
Initializing property integral containers    ... done (  0.0 sec)

SHARK setup successfully completed in   0.6 seconds

Maximum memory used throughout the entire STARTUP-calculation: 22.1 MB
-------------------------------------------------------------------------------
                                 ORCA GUESS
                   Start orbitals & Density for SCF / CASSCF
-------------------------------------------------------------------------------

------------
SCF SETTINGS
------------
Hamiltonian:
 Density Functional     Method          .... DFT(GTOs)
  Functional kind                       .... Exchange
  Functional name                       .... Re-regularized SCAN exchange by Furness et al
  Functional family                     .... MGGA
  Functional refs                              
    [ 0] J. W. Furness, A. D. Kaplan, J. Ning, J. P. Perdew, and J. Sun.,  J. Phys. Chem. Lett. 11, 8208-8215 (2020), doi: 10.1021/acs.jpclett.0c02405
    [ 1] J. W. Furness, A. D. Kaplan, J. Ning, J. P. Perdew, and J. Sun.,  J. Phys. Chem. Lett. 11, 9248-9248 (2020), doi: 10.1021/acs.jpclett.0c03077
  Functional external parameters        .... 6
    Parameter  0 _c1        =  6.670000e-01 : c1 parameter        
    Parameter  1 _c2        =  8.000000e-01 : c2 parameter        
    Parameter  2 _d         =  1.240000e+00 : d parameter         
    Parameter  3 _k1        =  6.500000e-02 : k1 parameter        
    Parameter  4 _eta       =  1.000000e-03 : eta parameter       
    Parameter  5 _dp2       =  3.610000e-01 : dp2 parameter       
  Functional kind                       .... Correlation
  Functional name                       .... Re-regularized SCAN correlation by Furness et al
  Functional family                     .... MGGA
  Functional refs                              
    [ 0] J. W. Furness, A. D. Kaplan, J. Ning, J. P. Perdew, and J. Sun.,  J. Phys. Chem. Lett. 11, 8208-8215 (2020), doi: 10.1021/acs.jpclett.0c02405
    [ 1] J. W. Furness, A. D. Kaplan, J. Ning, J. P. Perdew, and J. Sun.,  J. Phys. Chem. Lett. 11, 9248-9248 (2020), doi: 10.1021/acs.jpclett.0c03077
  Functional external parameters        .... 1
    Parameter  0 _eta       =  1.000000e-03 : Regularization parameter
 Gradients option       PostSCFGGA      .... off
 RI-approximation to the Coulomb term is turned on
   Number of AuxJ basis functions       .... 173


General Settings:
 Integral files         IntName         .... censo
 Hartree-Fock type      HFTyp           .... RHF
 Total Charge           Charge          ....    0
 Multiplicity           Mult            ....    1
 Number of Electrons    NEL             ....   42
 Basis Dimension        Dim             ....  142
 Nuclear Repulsion      ENuc            ....    119.7963748583 Eh

Convergence Acceleration:
 AO-DIIS                CNVDIIS         .... on
   Start iteration      DIISMaxIt       ....    12
   Startup error        DIISStart       ....  0.200000
   # of expansion vecs  DIISMaxEq       ....     5
   Bias factor          DIISBfac        ....   1.050
   Max. coefficient     DIISMaxC        ....  10.000
 MO-DIIS                CNVKDIIS        .... off
 Trust-Rad. Augm. Hess. CNVTRAH         .... auto
   Auto Start mean grad. ratio tolernc. ....  1.125000
   Auto Start start iteration           ....    50
   Auto Start num. interpolation iter.  ....    10
   Max. Number of Micro iterations      ....    24
   Max. Number of Macro iterations      .... Maxiter - #DIIS iter
   Number of Davidson start vectors     ....     2
   Converg. threshold    (grad. norm)   ....   5.000e-05
   Grad. Scal. Fac. for Micro threshold ....   0.100
   Minimum threshold for Micro iter.    ....   1.000e-02
   NR start threshold (gradient norm)   ....   1.000e-04
   Initial trust radius                 ....   0.400
   Minimum AH scaling param. (alpha)    ....   1.000
   Maximum AH scaling param. (alpha)    .... 1000.000
   Quad. conv. algorithm                .... NR
   White noise on init. David. guess    .... on
   Maximum white noise                  ....   0.010
   Pseudo random numbers                .... off
   Inactive MOs                         .... canonical
   Orbital update algorithm             .... Taylor
   Preconditioner                       .... Diag
   Full preconditioner red. dimension   ....   250
   COSX micro iterations for RIJONX calc.... off
 SOSCF                  CNVSOSCF        .... on
   Start iteration      SOSCFMaxIt      ....   150
   Startup grad/error   SOSCFStart      ....  0.003300
   Hessian update       SOSCFHessUp     .... L-BFGS
 Level Shifting         CNVShift        .... on
   Level shift para.    LevelShift      ....    0.2500
   Turn off err/grad.   ShiftErr        ....    0.0010
 Zerner damping         CNVZerner       .... off
 Static damping         CNVDamp         .... on
   Fraction old density DampFac         ....    0.7000
   Max. Damping (<1)    DampMax         ....    0.9800
   Min. Damping (>=0)   DampMin         ....    0.0000
   Turn off err/grad.   DampErr         ....    0.1000

SCF Procedure:
 Maximum # iterations   MaxIter         ....   125
 SCF integral mode      SCFMode         .... Direct
   Integral package                     .... SHARK and LIBINT hybrid scheme
 Reset frequency        DirectResetFreq ....    20
 Integral Threshold     Thresh          ....  1.000e-10 Eh
 Primitive CutOff       TCut            ....  1.000e-11 Eh

Convergence Tolerance:
 Convergence Check Mode ConvCheckMode   .... Total+1el-Energy
 Convergence forced     ConvForced      .... 0
 Energy Change          TolE            ....  1.000e-06 Eh
 1-El. energy change                    ....  1.000e-03 Eh
 Orbital Gradient       TolG            ....  5.000e-05
 Orbital Rotation angle TolX            ....  5.000e-05
 DIIS Error             TolErr          ....  1.000e-06

------------------------------
INITIAL GUESS: MODEL POTENTIAL
------------------------------
Loading Hartree-Fock densities                     ... done
Atomic calculation to generate a density for atom 2 (I  with ECP)
  Multiplicity assumed   :    2
  Atomic configuration   : 1s2 2s2 2p6 3s2 3p6 4s2 3d10 4p6 5s2 4d10 5p5 
  Number of open shells  : 1
  Command: orca censo_atom53.inp > censo_atom53.out
Returned from the atomic calculation with res=0
Calculating cut-offs                               ... done
Initializing the effective Hamiltonian             ... done
Setting up the integral package (SHARK)            ... done
Starting the Coulomb interaction                   ... done (   0.0 sec)
Making the grid                                    ... done (   0.1 sec)
Mapping shells                                     ... done
Starting the XC term evaluation                    ... done (   0.1 sec)
  promolecular density results
     # of electrons  =     69.996759725
     EX              =   -184.811832910
     EC              =     -3.400183523
     EX+EC           =   -188.212016433
Transforming the Hamiltonian                       ... done (   0.0 sec)
Diagonalizing the Hamiltonian                      ... done (   0.0 sec)
Back transforming the eigenvectors                 ... done (   0.0 sec)
Now organizing SCF variables                       ... done
                      ------------------
                      INITIAL GUESS DONE (   6.0 sec)
                      ------------------
             **** ENERGY FILE WAS UPDATED (censo.en.tmp) ****
Finished Guess after   6.2 sec
Maximum memory used throughout the entire GUESS-calculation: 14.6 MB

-------------------------------------------------------------------------------------------
                                      ORCA LEAN-SCF
                              memory conserving SCF solver
-------------------------------------------------------------------------------------------

----------------------------------------D-I-I-S--------------------------------------------
Iteration    Energy (Eh)           Delta-E    RMSDP     MaxDP     DIISErr   Damp  Time(sec)
-------------------------------------------------------------------------------------------
               ***  Starting incremental Fock matrix formation  ***
    1    -376.8944160349884100     0.00e+00  2.27e-03  7.44e-02  5.73e-01  0.700   0.8
    2    -376.9533023797736178    -5.89e-02  1.55e-03  5.17e-02  3.87e-01  0.700   0.8
    3    -376.9775331553691444    -2.42e-02  8.14e-04  3.16e-02  2.64e-01  0.700   0.8
                               ***Turning on AO-DIIS***
    4    -376.9916330754085720    -1.41e-02  4.00e-04  1.53e-02  1.82e-01  0.700   0.8
    5    -377.0018304053320435    -1.02e-02  2.46e-04  1.18e-02  1.27e-01  0.700   0.7
    6    -377.0089254600409845    -7.10e-03  1.62e-04  7.77e-03  8.97e-02  0.700   0.7
    7    -377.0139636586137044    -5.04e-03  4.01e-04  1.64e-02  6.30e-02  0.000   0.7
                              *** Initializing SOSCF ***
---------------------------------------S-O-S-C-F--------------------------------------
Iteration    Energy (Eh)           Delta-E    RMSDP     MaxDP     MaxGrad    Time(sec)
--------------------------------------------------------------------------------------
    8    -377.0257119200408624    -1.17e-02  8.12e-05  2.38e-03  2.60e-03     0.8
               *** Restarting incremental Fock matrix formation ***
    9    -377.0257350459118584    -2.31e-05  7.35e-05  1.53e-03  5.59e-04     0.8
   10    -377.0257222457872217     1.28e-05  5.04e-05  1.33e-03  1.44e-03     0.7
   11    -377.0257391454742901    -1.69e-05  8.84e-06  2.68e-04  6.87e-05     0.7
   12    -377.0257391615485290    -1.61e-08  3.36e-06  8.00e-05  6.28e-05     0.7
                 **** Energy Check signals convergence ****

               *****************************************************
               *                     SUCCESS                       *
               *           SCF CONVERGED AFTER  12 CYCLES          *
               *****************************************************

             **** ENERGY FILE WAS UPDATED (censo.en.tmp) ****

----------------
TOTAL SCF ENERGY
----------------

Total Energy       :       -377.02573916154853 Eh          -10259.39194 eV

Components:
Nuclear Repulsion  :        119.79637485831341 Eh            3259.82509 eV
Electronic Energy  :       -496.82211401986194 Eh          -13519.21703 eV
One Electron Energy:       -861.84189583339628 Eh          -23451.91026 eV
Two Electron Energy:        365.01978181353434 Eh            9932.69323 eV

Virial components:
Potential Energy   :       -569.27308664722091 Eh          -15490.70822 eV
Kinetic Energy     :        192.24734748567238 Eh            5231.31628 eV
Virial Ratio       :          2.96114923868922

DFT components:
N(Alpha)           :       20.999971681269 electrons
N(Beta)            :       20.999971681269 electrons
N(Total)           :       41.999943362538 electrons
E(X)               :      -33.425300444449 Eh       
E(C)               :       -1.576831258385 Eh       
E(XC)              :      -35.002131702834 Eh       

---------------
SCF CONVERGENCE
---------------

  Last Energy change         ...    1.6074e-08  Tolerance :   1.0000e-06
  Last MAX-Density change    ...    7.9976e-05  Tolerance :   1.0000e-05
  Last RMS-Density change    ...    3.3580e-06  Tolerance :   1.0000e-06
  Last DIIS Error            ...    2.5968e-03  Tolerance :   1.0000e-06
  Last Orbital Gradient      ...    6.2803e-05  Tolerance :   5.0000e-05
  Last Orbital Rotation      ...    4.9280e-05  Tolerance :   5.0000e-05


----------------
ORBITAL ENERGIES
----------------

  NO   OCC          E(Eh)            E(eV) 
   0   2.0000     -10.090567      -274.5783 
   1   2.0000     -10.044531      -273.3256 
   2   2.0000      -6.769045      -184.1951 
   3   2.0000      -4.790351      -130.3521 
   4   2.0000      -4.778345      -130.0254 
   5   2.0000      -4.777983      -130.0155 
   6   2.0000      -1.840787       -50.0904 
   7   2.0000      -1.838391       -50.0252 
   8   2.0000      -1.838181       -50.0194 
   9   2.0000      -1.828026       -49.7431 
  10   2.0000      -1.828006       -49.7426 
  11   2.0000      -0.759183       -20.6584 
  12   2.0000      -0.651781       -17.7359 
  13   2.0000      -0.581143       -15.8137 
  14   2.0000      -0.443817       -12.0769 
  15   2.0000      -0.410493       -11.1701 
  16   2.0000      -0.378225       -10.2920 
  17   2.0000      -0.346297        -9.4232 
  18   2.0000      -0.305415        -8.3108 
  19   2.0000      -0.233260        -6.3473 
  20   2.0000      -0.232425        -6.3246 
  21   0.0000      -0.059970        -1.6319 
  22   0.0000       0.048882         1.3301 
  23   0.0000       0.085836         2.3357 
  24   0.0000       0.093809         2.5527 
  25   0.0000       0.104856         2.8533 
  26   0.0000       0.118231         3.2172 
  27   0.0000       0.138403         3.7661 
  28   0.0000       0.168836         4.5943 
  29   0.0000       0.188995         5.1428 
  30   0.0000       0.196868         5.3571 
  31   0.0000       0.199924         5.4402 
*Only the first 10 virtual orbitals were printed.

                    ********************************
                    * MULLIKEN POPULATION ANALYSIS *
                    ********************************

-----------------------
MULLIKEN ATOMIC CHARGES
-----------------------
   0 C :   -0.300160
   1 C :   -0.182170
   2 I :   -0.137584
   3 H :    0.122344
   4 H :    0.110270
   5 H :    0.122345
   6 H :    0.132478
   7 H :    0.132478
Sum of atomic charges:   -0.0000000

--------------------------------
MULLIKEN REDUCED ORBITAL CHARGES
--------------------------------
  0 C s       :     3.255346  s :     3.255346
      pz      :     1.060701  p :     2.990315
      px      :     0.964084
      py      :     0.965531
      dz2     :     0.004082  d :     0.050714
      dxz     :     0.003072
      dyz     :     0.020914
      dx2y2   :     0.015886
      dxy     :     0.006761
      f0      :     0.000393  f :     0.003785
      f+1     :    -0.000026
      f-1     :     0.001306
      f+2     :    -0.000122
      f-2     :     0.000625
      f+3     :     0.000653
      f-3     :     0.000956

  1 C s       :     3.229032  s :     3.229032
      pz      :     1.047117  p :     2.858041
      px      :     0.834077
      py      :     0.976847
      dz2     :     0.007432  d :     0.090205
      dxz     :     0.012674
      dyz     :     0.025238
      dx2y2   :     0.030496
      dxy     :     0.014365
      f0      :     0.000524  f :     0.004892
      f+1     :     0.000168
      f-1     :     0.001273
      f+2     :     0.000018
      f-2     :     0.000686
      f+3     :     0.001011
      f-3     :     0.001212

  2 I s       :     3.973810  s :     3.973810
      pz      :     3.982671  p :    11.110501
      px      :     3.242695
      py      :     3.885135
      dz2     :     2.005273  d :    10.043452
      dxz     :     2.009651
      dyz     :     2.002948
      dx2y2   :     2.013531
      dxy     :     2.012049
      f0      :     0.000867  f :     0.009821
      f+1     :     0.001745
      f-1     :     0.000283
      f+2     :     0.000690
      f-2     :     0.000946
      f+3     :     0.002400
      f-3     :     0.002889

  3 H s       :     0.854612  s :     0.854612
      pz      :     0.010001  p :     0.023044
      px      :     0.005091
      py      :     0.007952

  4 H s       :     0.866956  s :     0.866956
      pz      :     0.005261  p :     0.022774
      px      :     0.011705
      py      :     0.005808

  5 H s       :     0.854612  s :     0.854612
      pz      :     0.010001  p :     0.023044
      px      :     0.005091
      py      :     0.007952

  6 H s       :     0.843891  s :     0.843891
      pz      :     0.010403  p :     0.023631
      px      :     0.005202
      py      :     0.008026

  7 H s       :     0.843891  s :     0.843891
      pz      :     0.010404  p :     0.023631
      px      :     0.005202
      py      :     0.008026



                     *******************************
                     * LOEWDIN POPULATION ANALYSIS *
                     *******************************

----------------------
LOEWDIN ATOMIC CHARGES
----------------------
   0 C :   -0.341683
   1 C :   -0.447575
   2 I :    0.165783
   3 H :    0.123935
   4 H :    0.127725
   5 H :    0.123935
   6 H :    0.123940
   7 H :    0.123940

-------------------------------
LOEWDIN REDUCED ORBITAL CHARGES
-------------------------------
  0 C s       :     2.845989  s :     2.845989
      pz      :     1.077150  p :     3.199779
      px      :     1.059584
      py      :     1.063045
      dz2     :     0.038180  d :     0.270200
      dxz     :     0.015128
      dyz     :     0.088718
      dx2y2   :     0.072885
      dxy     :     0.055290
      f0      :     0.002549  f :     0.025715
      f+1     :     0.002848
      f-1     :     0.003888
      f+2     :     0.002082
      f-2     :     0.004279
      f+3     :     0.003932
      f-3     :     0.006136

  1 C s       :     2.895100  s :     2.895100
      pz      :     1.087717  p :     3.158843
      px      :     0.995041
      py      :     1.076084
      dz2     :     0.045316  d :     0.365042
      dxz     :     0.041763
      dyz     :     0.098571
      dx2y2   :     0.105303
      dxy     :     0.074089
      f0      :     0.003104  f :     0.028590
      f+1     :     0.002387
      f-1     :     0.003932
      f+2     :     0.002765
      f-2     :     0.004106
      f+3     :     0.005182
      f-3     :     0.007114

  2 I s       :     3.718893  s :     3.718893
      pz      :     3.942185  p :    11.005413
      px      :     3.219567
      py      :     3.843661
      dz2     :     2.012851  d :    10.093635
      dxz     :     2.017837
      dyz     :     2.005419
      dx2y2   :     2.029769
      dxy     :     2.027760
      f0      :     0.001312  f :     0.016276
      f+1     :     0.003013
      f-1     :     0.000527
      f+2     :     0.001148
      f-2     :     0.001287
      f+3     :     0.003891
      f-3     :     0.005097

  3 H s       :     0.812949  s :     0.812949
      pz      :     0.029089  p :     0.063116
      px      :     0.013426
      py      :     0.020601

  4 H s       :     0.809707  s :     0.809707
      pz      :     0.014128  p :     0.062568
      px      :     0.031829
      py      :     0.016610

  5 H s       :     0.812949  s :     0.812949
      pz      :     0.029089  p :     0.063116
      px      :     0.013426
      py      :     0.020601

  6 H s       :     0.810312  s :     0.810312
      pz      :     0.031293  p :     0.065749
      px      :     0.012890
      py      :     0.021566

  7 H s       :     0.810311  s :     0.810311
      pz      :     0.031294  p :     0.065749
      px      :     0.012890
      py      :     0.021565



                      *****************************
                      * MAYER POPULATION ANALYSIS *
                      *****************************

  NA   - Mulliken gross atomic population
  ZA   - Total nuclear charge
  QA   - Mulliken gross atomic charge
  VA   - Mayer's total valence
  BVA  - Mayer's bonded valence
  FA   - Mayer's free valence

  ATOM       NA         ZA         QA         VA         BVA        FA
  0 C      6.3002     6.0000    -0.3002     3.9010     3.9010    -0.0000
  1 C      6.1822     6.0000    -0.1822     3.9224     3.9224    -0.0000
  2 I     25.1376    25.0000    -0.1376     1.0595     1.0595    -0.0000
  3 H      0.8777     1.0000     0.1223     0.9788     0.9788    -0.0000
  4 H      0.8897     1.0000     0.1103     0.9765     0.9765    -0.0000
  5 H      0.8777     1.0000     0.1223     0.9788     0.9788    -0.0000
  6 H      0.8675     1.0000     0.1325     0.9612     0.9612     0.0000
  7 H      0.8675     1.0000     0.1325     0.9612     0.9612    -0.0000

  Mayer bond orders larger than 0.100000
B(  0-C ,  1-C ) :   0.9986 B(  0-C ,  3-H ) :   0.9700 B(  0-C ,  4-H ) :   0.9479 
B(  0-C ,  5-H ) :   0.9700 B(  1-C ,  2-I ) :   1.0077 B(  1-C ,  6-H ) :   0.9565 
B(  1-C ,  7-H ) :   0.9565 

-------
TIMINGS
-------

Total SCF time: 0 days 0 hours 0 min 9 sec 

Total time                  ....       9.260 sec
Sum of individual times     ....       8.661 sec  ( 93.5%)

SCF preparation             ....       0.182 sec  (  2.0%)
Fock matrix formation       ....       7.590 sec  ( 82.0%)
  Startup                   ....       0.057 sec  (  0.8% of F)
  Split-RI-J                ....       0.647 sec  (  8.5% of F)
  XC integration            ....       6.298 sec  ( 83.0% of F)
    XC Preparation          ....       0.000 sec  (  0.0% of XC)
    Basis function eval.    ....       0.945 sec  ( 15.0% of XC)
    Density eval.           ....       1.581 sec  ( 25.1% of XC)
    XC-Functional eval.     ....       0.743 sec  ( 11.8% of XC)
    XC-Potential eval.      ....       2.107 sec  ( 33.5% of XC)
Diagonalization             ....       0.000 sec  (  0.0%)
Density matrix formation    ....       0.243 sec  (  2.6%)
Total Energy calculation    ....       0.034 sec  (  0.4%)
Population analysis         ....       0.030 sec  (  0.3%)
Orbital Transformation      ....       0.052 sec  (  0.6%)
Orbital Orthonormalization  ....       0.000 sec  (  0.0%)
DIIS solution               ....       0.350 sec  (  3.8%)
SOSCF solution              ....       0.180 sec  (  1.9%)
Finished LeanSCF after   9.4 sec

Maximum memory used throughout the entire LEANSCF-calculation: 14.7 MB

------------------------------------------------------------------------------
                         ORCA PROPERTY INTEGRAL CALCULATIONS
------------------------------------------------------------------------------

GBWName                                   ... censo.gbw
Number of atoms                           ...      8
Number of basis functions                 ...    142
Max core memory                           ...   1024 MB

Dipole integrals                          ... YES
Quadrupole integrals                      ...  NO
Linear momentum integrals                 ...  NO
Angular momentum integrals                ...  NO
Higher moments length integrals           ...  NO
Higher moments velocity integrals         ...  NO
Kinetic energy integrals                  ...  NO
GIAO right hand sides                     ...  NO
GIAO dipole derivative integrals          ...  NO
SOC integrals                             ...  NO
EPR diamagnetic integrals (GIAO)          ...  NO
EPR gauge integrals                       ...  NO
Field gradient integrals                  ...  NO (   0 nuclei)
Spin-dipole/Fermi contact integrals       ...  NO (   0 nuclei)
Contact density integrals                 ...  NO (   0 nuclei)
Nucleus-orbit integrals                   ...  NO (   0 nuclei)
Geometric perturbations                   ... YES (   8 nuclei)

Choice of electric origin   ... Center of mass
Position of electric origin ... (  0.0088,  0.0077, -0.0000) 
Choice of magnetic origin   ... GIAO
Position of magnetic origin ... (  0.0000,  0.0000,  0.0000) 

Calculating integrals                     ... Electric Dipole (Length)     done (  0.1 sec)
Calculating integrals                     ... Geometrical perturbation right hand sides

-----------------------
GEOMETRIC PERTURBATIONS (8 nuclei)
-----------------------

MaxCore                            ...   1024 MB
Number of batches                  ...      1

BATCH   0: Atoms    0 -    7 ( 24 perturbations)
   => H(core) and overlap derivative integrals     ... done (     0.0 sec)
   => Making and storing internal U-coefficients   ... done (     0.5 sec)
   => RI-J derivative integrals                    ... done (     0.7 sec)
   => RI-J response operators                      ... done (     0.1 sec)
   => ECP derivative integrals                     ... done (     2.6 sec)
   => XC derivative integrals                      ... done (    20.5 sec)
   => XC response operators                        ... done (     6.4 sec)
   => Completing and storing right hand sides      ... done (     0.2 sec)
   => Total time for right hand sides =  32.1 sec

  geometrical perturbations done ( 32.1 sec)

Property integrals calculated in  32.2 sec

Maximum memory used throughout the entire PROPINT-calculation: 40.0 MB


-------------------------------------------------------------------------------
                          DFT DISPERSION CORRECTION                            
                                                                               
                                DFTD4 V3.4.0                                   
-------------------------------------------------------------------------------
The R2SCAN3C composite method is recognized
Using three-body term ABC
Active option DFTDOPT                   ...         5   

-------------------------   ----------------
Dispersion correction           -0.001518653
-------------------------   ----------------

 ** NOTE ** -> element i  will be treated as br
------------------   -----------------
gCP correction             0.003622613
------------------   -----------------

-------------------------   --------------------
FINAL SINGLE POINT ENERGY      -377.023635201512
-------------------------   --------------------

------------------------------------------------------------------------------
                            ORCA SCF RESPONSE CALCULATION
------------------------------------------------------------------------------

GBWName                                 ... censo.gbw
Number of atoms                         ...      8
Number of basis functions               ...    142
Max core memory                         ...   1024 MB

Electric field perturbation             ...  NO
Quadrupolar field perturbation          ...  NO
Magnetic field perturbation (no GIAO)   ...  NO
Magnetic field perturbation (with GIAO) ...  NO
Linear momentum (velocity) perturbation ...  NO
Spin-orbit coupling perturbation        ...  NO
Choice of electric origin               ... Center of mass
Position of electric origin             ...     0.008783     0.007689    -0.000002
Choice of magnetic origin               ... GIAO
Position of magnetic origin             ...     0.000000     0.000000     0.000000
Nuclear geometric perturbations         ... YES (  24 perturbations)
Nucleus-orbit perturbations             ...  NO (   0 perturbations)
Spin-dipole/Fermi contact perturbations ...  NO (   0 perturbations)

Total number of real perturbations      ...     24
Total number of imaginary perturbations ...      0
Total number of triplet perturbations   ...      0
Total number of SOC perturbations       ...      0


                                **********************
                                * REAL PERTURBATIONS *
                                **********************



-------------------
SHARK CP-SCF DRIVER
-------------------

Dimension of the orbital basis          ...    142
Dimension of the CPSCF-problem          ...   2541
Number of operators                     ...      1
Max. number of iterations               ...    128
Convergence Tolerance                   ... 1.0e-03
Number of perturbations                 ...     24
Perturbation type                       ... REAL

----------------------------
POPLE LINEAR EQUATION SOLVER
----------------------------

  ITERATION   0:   ||err||_max =   2.1268e-01 (   3.8 sec   0/ 24 done)
  ITERATION   1:   ||err||_max =   2.8261e-02 (   3.8 sec   0/ 24 done)
  ITERATION   2:   ||err||_max =   7.9860e-03 (   4.0 sec   2/ 24 done)
  ITERATION   3:   ||err||_max =   1.9494e-03 (   4.9 sec  17/ 24 done)
  ITERATION   4:   ||err||_max =   5.5409e-04 (   1.8 sec  24/ 24 done)

CP-SCF equations solved in  21.2 sec
Response densities calculated in   0.2 sec

Maximum memory used throughout the entire SCFRESP-calculation: 20.9 MB

------------------------------------------------------------------------------
                              ORCA PROPERTY CALCULATIONS
------------------------------------------------------------------------------

GBWName                                 ... censo.gbw
Number of atoms                         ...      8
Number of basis functions               ...    142
Max core memory                         ...   1024 MB

Electric properties:
Dipole moment                           ... YES
Quadrupole moment                       ...  NO
Static polarizability (Dipole/Dipole)   ...  NO
Static polarizability (Dipole/Quad.)    ...  NO
Static polarizability (Quad./Quad.)     ...  NO
Static polarizability (Velocity)        ...  NO

Atomic electric properties:
Dipole moment                           ...  NO
Quadrupole moment                       ...  NO
Static polarizability                   ...  NO

Choice of electric origin               ... Center of mass
Position of electric origin             ...     0.008783     0.007689    -0.000002

General magnetic properties:
Magnetizability                         ...  NO

EPR properties:
g-Tensor (aka g-matrix)                 ...  NO
Zero-Field splitting spin-orbit         ...  NO
Zero-field splitting spin-spin          ...  NO
Hyperfine couplings                     ...  NO (   0 nuclei)
Quadrupole couplings                    ...  NO (   0 nuclei)
Contact density                         ...  NO (   0 nuclei)

NMR properties:
Chemical shifts                         ...  NO (   0 nuclei)
Spin-rotation constants                 ...  NO (   0 nuclei)
Spin-spin couplings                     ...  NO (   0 nuclei,    0 pairs)

Choice of magnetic origin               ... GIAO
Position of magnetic origin             ...     0.000000     0.000000     0.000000

Properties with geometric perturbations:
SCF Hessian                             ... YES
IR spectrum                             ... YES
VCD spectrum                            ...  NO
X-ray spectroscopy properties:
SCF XES/XAS/RIXS spectra                ...  NO


-------------
DIPOLE MOMENT
-------------

Method             : SCF
Type of density    : Electron Density
Multiplicity       :   1
Irrep              :   0
Energy             :  -377.0257391615485290 Eh
Relativity type    : 
Basis              : AO
                                X                 Y                 Z
Electronic contribution:     45.691740995      -2.087449135       0.000018579
Nuclear contribution   :    -46.558985968       2.284143732      -0.000022246
                        -----------------------------------------
Total Dipole Moment    :     -0.867244973       0.196694597      -0.000003667
                        -----------------------------------------
Magnitude (a.u.)       :      0.889270829
Magnitude (Debye)      :      2.260346815



--------------------
Rotational spectrum 
--------------------
 
Rotational constants in cm-1:             0.973495             0.096607             0.090926 
Rotational constants in MHz :         29184.651050          2896.219082          2725.889274 

Dipole components along the rotational axes: 
x,y,z [a.u.] :    -0.866910     0.198165    -0.000004 
x,y,z [Debye]:    -2.203511     0.503695    -0.000011 

 

Dipole moment calculation done in   0.0 sec 

-----------
SCF HESSIAN
-----------

Occupied/Occupied contributions to the Hessian:
   => Occupied/Occupied contributions              ... done (  0.0 sec)
Perturbed density contributions to the Hessian:
   => Perturbed density contributions              ... done (  0.0 sec)
Explicit contributions to the Hessian:
   => Nuclear repulsion Hessian                    ... done (  0.0 sec)
   => HCore and overlap Hessian                    ... done (  0.9 sec)
   => ECP Hessian                                  ... done (  8.5 sec)
   => RI-J Hessian                                 ... done (  1.5 sec)
   => XC-Hessian                                   ... done ( 11.0 sec)
   => Van der Waals-Hessian                        ... done (  0.7 sec)
   => GCP-Hessian                                  ... done (  0.0 sec)
   => Explicit contributions done
Dipole derivatives                                 ... done (  0.0 sec)
Mass weighting the Hessian           ... done
Calculating normal modes             ... done
Scaling frequencies                  ... done

-----------------------
VIBRATIONAL FREQUENCIES
-----------------------

Scaling factor for frequencies =  1.000000000  (already applied!)

     0:       0.00 cm**-1
     1:       0.00 cm**-1
     2:       0.00 cm**-1
     3:       0.00 cm**-1
     4:       0.00 cm**-1
     5:       0.00 cm**-1
     6:     251.41 cm**-1
     7:     275.72 cm**-1
     8:     474.04 cm**-1
     9:     756.90 cm**-1
    10:     970.80 cm**-1
    11:     989.62 cm**-1
    12:    1069.36 cm**-1
    13:    1218.98 cm**-1
    14:    1258.81 cm**-1
    15:    1402.28 cm**-1
    16:    1473.28 cm**-1
    17:    1475.14 cm**-1
    18:    1491.67 cm**-1
    19:    2999.73 cm**-1
    20:    3074.90 cm**-1
    21:    3092.40 cm**-1
    22:    3109.35 cm**-1
    23:    3165.40 cm**-1


------------
NORMAL MODES
------------

These modes are the Cartesian displacements weighted by the diagonal matrix
M(i,i)=1/sqrt(m[i]) where m[i] is the mass of the displaced atom
Thus, these vectors are normalized but *not* orthogonal

                  0          1          2          3          4          5    
      0       0.000000   0.000000   0.000000   0.000000   0.000000   0.000000
      1       0.000000   0.000000   0.000000   0.000000   0.000000   0.000000
      2       0.000000   0.000000   0.000000   0.000000   0.000000   0.000000
      3       0.000000   0.000000   0.000000   0.000000   0.000000   0.000000
      4       0.000000   0.000000   0.000000   0.000000   0.000000   0.000000
      5       0.000000   0.000000   0.000000   0.000000   0.000000   0.000000
      6       0.000000   0.000000   0.000000   0.000000   0.000000   0.000000
      7       0.000000   0.000000   0.000000   0.000000   0.000000   0.000000
      8       0.000000   0.000000   0.000000   0.000000   0.000000   0.000000
      9       0.000000   0.000000   0.000000   0.000000   0.000000   0.000000
     10       0.000000   0.000000   0.000000   0.000000   0.000000   0.000000
     11       0.000000   0.000000   0.000000   0.000000   0.000000   0.000000
     12       0.000000   0.000000   0.000000   0.000000   0.000000   0.000000
     13       0.000000   0.000000   0.000000   0.000000   0.000000   0.000000
     14       0.000000   0.000000   0.000000   0.000000   0.000000   0.000000
     15       0.000000   0.000000   0.000000   0.000000   0.000000   0.000000
     16       0.000000   0.000000   0.000000   0.000000   0.000000   0.000000
     17       0.000000   0.000000   0.000000   0.000000   0.000000   0.000000
     18       0.000000   0.000000   0.000000   0.000000   0.000000   0.000000
     19       0.000000   0.000000   0.000000   0.000000   0.000000   0.000000
     20       0.000000   0.000000   0.000000   0.000000   0.000000   0.000000
     21       0.000000   0.000000   0.000000   0.000000   0.000000   0.000000
     22       0.000000   0.000000   0.000000   0.000000   0.000000   0.000000
     23       0.000000   0.000000   0.000000   0.000000   0.000000   0.000000
                  6          7          8          9         10         11    
      0       0.360658   0.000008   0.023886  -0.000001  -0.172843   0.000017
      1      -0.035969  -0.000001   0.035267  -0.000000  -0.037993   0.000005
      2       0.000001  -0.009844   0.000000  -0.017932   0.000007   0.067887
      3       0.124054   0.000003   0.399814  -0.000001   0.116094  -0.000015
      4       0.156814   0.000003  -0.281917   0.000001   0.057258  -0.000007
      5      -0.000005   0.072537  -0.000001  -0.100470  -0.000007  -0.067361
      6      -0.057493  -0.000001  -0.042862   0.000000  -0.001238   0.000000
      7      -0.010914  -0.000000   0.023180  -0.000000   0.002418  -0.000000
      8       0.000000  -0.006330   0.000000   0.003478   0.000000   0.003255
      9       0.551025  -0.402160  -0.263012   0.190233   0.233682  -0.194935
     10      -0.012881   0.280178  -0.009700   0.282700  -0.064070  -0.280196
     11      -0.006432   0.236714   0.005035   0.161846  -0.059096  -0.115440
     12       0.241256   0.000011   0.218405  -0.000004  -0.389137   0.000038
     13      -0.331494  -0.000008   0.498118  -0.000004  -0.609054   0.000055
     14       0.000043  -0.616762   0.000001   0.126270  -0.000030  -0.214771
     15       0.550970   0.402179  -0.263017  -0.190231   0.233735   0.194901
     16      -0.012840  -0.280177  -0.009705  -0.282698  -0.063995   0.280213
     17       0.006400   0.236722  -0.005036   0.161845   0.059069  -0.115451
     18       0.059496  -0.014836   0.327476   0.122736   0.376995   0.579856
     19       0.145602  -0.035685  -0.228946  -0.510930   0.101560  -0.077726
     20       0.004727   0.096612  -0.037229   0.261542  -0.013390   0.014845
     21       0.059496   0.014837   0.327452  -0.122730   0.376840  -0.579909
     22       0.145603   0.035692  -0.228941   0.510932   0.101567   0.077702
     23      -0.004738   0.096612   0.037227   0.261524   0.013394   0.014821
                 12         13         14         15         16         17    
      0      -0.044569  -0.051599  -0.000000  -0.098175   0.025539  -0.000001
      1      -0.226820   0.063061  -0.000001  -0.095790   0.001412   0.000000
      2       0.000003   0.000003   0.129544  -0.000000   0.000003   0.043870
      3       0.142107   0.116340  -0.000001   0.001149  -0.025730   0.000001
      4       0.225770  -0.031319   0.000000  -0.002385  -0.089164   0.000004
      5      -0.000002  -0.000002  -0.098472   0.000000   0.000001   0.023190
      6       0.000373   0.002570  -0.000000   0.000136   0.000486  -0.000000
      7      -0.002090  -0.001866   0.000000  -0.000106  -0.000302   0.000000
      8       0.000000   0.000000  -0.000932  -0.000000   0.000000  -0.000043
      9      -0.478799   0.172913  -0.168478   0.468856  -0.074922   0.505717
     10      -0.237976  -0.002458  -0.329916   0.225479   0.011256  -0.013032
     11       0.044702  -0.066864  -0.089706   0.144666   0.018209  -0.045545
     12       0.157875  -0.145481   0.000004   0.201140   0.003095   0.000005
     13       0.290808  -0.194689   0.000002   0.585405  -0.052846  -0.000002
     14      -0.000006  -0.000008  -0.229618  -0.000003  -0.000038  -0.690283
     15      -0.478790   0.172924   0.168474   0.468855  -0.074975  -0.505712
     16      -0.237962  -0.002437   0.329916   0.225478   0.011259   0.013032
     17      -0.044714   0.066860  -0.089709  -0.144660  -0.018215  -0.045552
     18      -0.204695  -0.647637  -0.475234   0.000060   0.043934   0.018623
     19       0.230339   0.028118  -0.288380   0.073414   0.556956   0.046311
     20      -0.010678  -0.072687   0.078086  -0.045033  -0.419234  -0.006088
     21      -0.204721  -0.647635   0.475269   0.000058   0.043923  -0.018627
     22       0.230352   0.028146   0.288372   0.073415   0.556967  -0.046368
     23       0.010675   0.072678   0.078084   0.045032   0.419227  -0.006130
                 18         19         20         21         22         23    
      0      -0.022462   0.054228   0.043335   0.023168  -0.000000   0.000000
      1       0.048188   0.011479  -0.065133  -0.029585  -0.000000  -0.000000
      2      -0.000000   0.000000   0.000001  -0.000003   0.090658  -0.022482
      3      -0.023080   0.000721   0.000415   0.004009   0.000000   0.000002
      4       0.003109   0.000581   0.028802  -0.059676  -0.000004  -0.000004
      5      -0.000000  -0.000000  -0.000002   0.000006  -0.022352  -0.094320
      6       0.000027  -0.000040  -0.000059  -0.000010  -0.000000  -0.000000
      7      -0.000023   0.000010   0.000013   0.000042   0.000000   0.000000
      8      -0.000000   0.000000  -0.000000   0.000000  -0.000009   0.000042
      9       0.170097   0.052925  -0.044538  -0.021623  -0.074545   0.016615
     10      -0.502880  -0.226956   0.293338   0.136440   0.397064  -0.097583
     11      -0.397601   0.324882  -0.442132  -0.203450  -0.551959   0.134067
     12       0.104967  -0.757873  -0.447840  -0.230555  -0.000006  -0.000002
     13       0.311089   0.320073   0.180799   0.089801   0.000002   0.000001
     14      -0.000002  -0.000007  -0.000004  -0.000003   0.018055  -0.003473
     15       0.170089   0.052930  -0.044544  -0.021632   0.074553  -0.016618
     16      -0.502877  -0.226959   0.293335   0.136472  -0.397062   0.097586
     17       0.397608  -0.324879   0.442120   0.203491  -0.551945   0.134069
     18       0.047055   0.001165   0.011509  -0.024366  -0.009304  -0.027217
     19       0.043184  -0.005574  -0.168100   0.347813   0.094240   0.390068
     20      -0.020784  -0.012788  -0.260762   0.533661   0.136581   0.560956
     21       0.047054   0.001164   0.011503  -0.024354   0.009297   0.027199
     22       0.043184  -0.005574  -0.168110   0.347844  -0.094198  -0.390021
     23       0.020785   0.012788   0.260787  -0.533727   0.136523   0.560909


-----------
IR SPECTRUM
-----------

 Mode   freq       eps      Int      T**2         TX        TY        TZ
       cm**-1   L/(mol*cm) km/mol    a.u.
----------------------------------------------------------------------------
  6:    251.41   0.000410    2.07  0.000508  ( 0.022520 -0.001107  0.000000)
  7:    275.72   0.000002    0.01  0.000002  ( 0.000001 -0.000000 -0.001349)
  8:    474.04   0.002180   11.01  0.001435  ( 0.037877 -0.000371  0.000000)
  9:    756.90   0.000980    4.95  0.000404  (-0.000001  0.000000  0.020103)
 10:    970.80   0.004058   20.51  0.001304  ( 0.036110 -0.000626  0.000000)
 11:    989.62   0.000023    0.12  0.000007  (-0.000006  0.000000  0.002703)
 12:   1069.36   0.000143    0.72  0.000042  ( 0.006234 -0.001719 -0.000000)
 13:   1218.98   0.016289   82.32  0.004170  ( 0.063273 -0.012904 -0.000000)
 14:   1258.81   0.000083    0.42  0.000020  (-0.000001  0.000000 -0.004525)
 15:   1402.28   0.000973    4.92  0.000217  ( 0.003408  0.014317  0.000000)
 16:   1473.28   0.000282    1.42  0.000060  (-0.000841  0.007681 -0.000002)
 17:   1475.14   0.002346   11.85  0.000496  ( 0.000000 -0.000000 -0.022277)
 18:   1491.67   0.000483    2.44  0.000101  ( 0.006004 -0.008062  0.000000)
 19:   2999.73   0.004639   23.44  0.000483  ( 0.021414  0.004902  0.000000)
 20:   3074.90   0.000454    2.29  0.000046  ( 0.003618 -0.005742  0.000000)
 21:   3092.40   0.003112   15.73  0.000314  ( 0.006661 -0.016421 -0.000000)
 22:   3109.35   0.001726    8.72  0.000173  ( 0.000000 -0.000001  0.013160)
 23:   3165.40   0.000781    3.95  0.000077  ( 0.000000 -0.000001 -0.008773)

* The epsilon (eps) is given for a Dirac delta lineshape.
** The dipole moment derivative (T) already includes vibrational overlap.

The first frequency considered to be a vibration is 6
The total number of vibrations considered is 18


--------------------------
THERMOCHEMISTRY AT 298.15K
--------------------------

Temperature         ...   298.15 K
Pressure            ...     1.00 atm
Total Mass          ...   155.96 AMU
Quasi RRHO          ...     True
Cut-Off Frequency   ...     1.00 cm^-1

Throughout the following assumptions are being made:
  (1) The electronic state is orbitally nondegenerate
  (2) There are no thermally accessible electronically excited states
  (3) Hindered rotations indicated by low frequency modes are not
      treated as such but are treated as vibrations and this may
      cause some error
  (4) All equations used are the standard statistical mechanics
      equations for an ideal gas
  (5) All vibrations are strictly harmonic

freq.     251.41  E(vib)   ...       0.30 
freq.     275.72  E(vib)   ...       0.28 
freq.     474.04  E(vib)   ...       0.15 
freq.     756.90  E(vib)   ...       0.06 
freq.     970.80  E(vib)   ...       0.03 
freq.     989.62  E(vib)   ...       0.02 
freq.    1069.36  E(vib)   ...       0.02 
freq.    1218.98  E(vib)   ...       0.01 
freq.    1258.81  E(vib)   ...       0.01 
freq.    1402.28  E(vib)   ...       0.00 
freq.    1473.28  E(vib)   ...       0.00 
freq.    1475.14  E(vib)   ...       0.00 
freq.    1491.67  E(vib)   ...       0.00 
freq.    2999.73  E(vib)   ...       0.00 
freq.    3074.90  E(vib)   ...       0.00 
freq.    3092.40  E(vib)   ...       0.00 
freq.    3109.35  E(vib)   ...       0.00 
freq.    3165.40  E(vib)   ...       0.00 

------------
INNER ENERGY
------------

The inner energy is: U= E(el) + E(ZPE) + E(vib) + E(rot) + E(trans)
    E(el)   - is the total energy from the electronic structure calculation
              = E(kin-el) + E(nuc-el) + E(el-el) + E(nuc-nuc)
    E(ZPE)  - the the zero temperature vibrational energy from the frequency calculation
    E(vib)  - the the finite temperature correction to E(ZPE) due to population
              of excited vibrational states
    E(rot)  - is the rotational thermal energy
    E(trans)- is the translational thermal energy

Summary of contributions to the inner energy U:
Electronic energy                ...   -377.02363520 Eh
Zero point energy                ...      0.06504125 Eh      40.81 kcal/mol
Thermal vibrational correction   ...      0.00143167 Eh       0.90 kcal/mol
Thermal rotational correction    ...      0.00141627 Eh       0.89 kcal/mol
Thermal translational correction ...      0.00141627 Eh       0.89 kcal/mol
-----------------------------------------------------------------------
Total thermal energy                   -376.95432974 Eh


Summary of corrections to the electronic energy:
(perhaps to be used in another calculation)
Total thermal correction                  0.00426422 Eh       2.68 kcal/mol
Non-thermal (ZPE) correction              0.06504125 Eh      40.81 kcal/mol
-----------------------------------------------------------------------
Total correction                          0.06930547 Eh      43.49 kcal/mol


--------
ENTHALPY
--------

The enthalpy is H = U + kB*T
                kB is Boltzmann's constant
Total thermal energy              ...   -376.95432974 Eh 
Thermal Enthalpy correction       ...      0.00094421 Eh       0.59 kcal/mol
-----------------------------------------------------------------------
Total Enthalpy                    ...   -376.95338553 Eh


Note: Rotational entropy computed according to Herzberg 
Infrared and Raman Spectra, Chapter V,1, Van Nostrand Reinhold, 1945 
Point Group:  Cs, Symmetry Number:   1  
Rotational constants in cm-1:     0.973495     0.096607     0.090926 

Vibrational entropy computed according to the QRRHO of S. Grimme
Chem.Eur.J. 2012 18 9955 using a reference frequency of 100.0 cm-1


-------
ENTROPY
-------

The entropy contributions are T*S = T*(S(el)+S(vib)+S(rot)+S(trans))
     S(el)   - electronic entropy
     S(vib)  - vibrational entropy
     S(rot)  - rotational entropy
     S(trans)- translational entropy
The entropies will be listed as multiplied by the temperature to get
units of energy

Electronic entropy                ...      0.00000000 Eh      0.00 kcal/mol
Vibrational entropy               ...      0.00221633 Eh      1.39 kcal/mol
Rotational entropy                ...      0.01175875 Eh      7.38 kcal/mol
Translational entropy             ...      0.01950069 Eh     12.24 kcal/mol
-----------------------------------------------------------------------
Final entropy term                ...      0.03347577 Eh     21.01 kcal/mol

In case the symmetry of your molecule has not been determined correctly
or in case you have a reason to use a different symmetry number we print 
out the resulting rotational entropy values for sn=1,12:

 non-linear molecules -----------------------------------
|  sn= 1 | S(rot)=       0.01175875 Eh      7.38 kcal/mol|
|  sn= 2 | S(rot)=       0.01110429 Eh      6.97 kcal/mol|
|  sn= 3 | S(rot)=       0.01072146 Eh      6.73 kcal/mol|
|  sn= 4 | S(rot)=       0.01044984 Eh      6.56 kcal/mol|
|  sn= 5 | S(rot)=       0.01023915 Eh      6.43 kcal/mol|
|  sn= 6 | S(rot)=       0.01006701 Eh      6.32 kcal/mol|
|  sn= 7 | S(rot)=       0.00992146 Eh      6.23 kcal/mol|
|  sn= 8 | S(rot)=       0.00979538 Eh      6.15 kcal/mol|
|  sn= 9 | S(rot)=       0.00968417 Eh      6.08 kcal/mol|
|  sn=10 | S(rot)=       0.00958469 Eh      6.01 kcal/mol|
|  sn=11 | S(rot)=       0.00949470 Eh      5.96 kcal/mol|
|  sn=12 | S(rot)=       0.00941255 Eh      5.91 kcal/mol|
 linear molecules ---------------------------------------
|  Dinfh | S(rot)=       0.00758968 Eh      4.76 kcal/mol|
|  Cinfv | S(rot)=       0.00824414 Eh      5.17 kcal/mol|
 --------------------------------------------------------


-------------------
GIBBS FREE ENERGY
-------------------

The Gibbs free energy is G = H - T*S

Total enthalpy                    ...   -376.95338553 Eh 
Total entropy correction          ...     -0.03347577 Eh    -21.01 kcal/mol
-----------------------------------------------------------------------
Final Gibbs free energy         ...   -376.98686130 Eh

For completeness - the Gibbs free energy minus the electronic energy
G-E(el)                           ...      0.03677390 Eh     23.08 kcal/mol


Maximum memory used throughout the entire PROP-calculation: 54.0 MB

--------------------------------
SUGGESTED CITATIONS FOR THIS RUN
--------------------------------

Below you find a list of papers that are relevant to this ORCA run
We neither can nor want to force you to cite these papers, but we appreciate if you do
You receive ORCA, which is the product of decades of hard work by many enthusiastic individuals, for free
The only thing we kindly ask in return is that you cite our papers,
We deeply appreciate it, if you show your appreciation for ORCA by not just citing the generic ORCA reference.

Please note that relegating all ORCA citations to the supporting information does *not* help us.
SI sections are not indexed - citations you put there will not count into any citation statistics
But we need these citations in order to attract the funding resources that allow us to do what we are doing

Therefore, if you are a happy ORCA user, please consider citing a few of the papers listed below in the main body of your paper

In addition to the list printed below, the program has created the file censo.bibtex that contains the list in bibtex format
You can import this file easily into all common literature databanks and citation aid programs


List of essential papers. We consider these as the minimum necessary citations

  1. Neese,F.
     Software update: the ORCA program system, version 5.0
     WIRES Comput. Molec. Sci., 2022 12(1)e1606
     doi.org/10.1002/wcms.1606
  2. Grimme,S.; Hansen,A.; Ehlert,S.; Mewes,J.
     r2SCAN-3c: A 'Swiss army knife' composite electronic-structure method
     J. Chem. Phys., 2021 154 064103
     doi.org/10.1063/5.0040021

List of papers to cite with high priority. The work reported in these papers was absolutely
necessary for this run to complete.
Our perspective: the developers of density functionals and basis sets usually get cited in chemistry papers
Good! But without the algorithms to do something with them, the functionals or basis sets would not do anything.
Hence, in our opinion, the algorithm design and method developments papers are equally worthy of getting cited

  1. Neese,F.
     An improvement of the resolution of the identity approximation for the formation of the Coulomb matrix
     J. Comp. Chem., 2003 24(14)1740-1747
     doi.org/10.1002/jcc.10318
  2. Bykov,D.; Petrenko,T.; Izsak,R.; Kossmann,S.; Becker,U.; Valeev,E.; Neese,F.
     Efficient implementation of the analytic second derivatives of Hartree-Fock and hybrid DFT energies: a detailed analysis of different approximations
     Molec. Phys., 2015 113 1961-1977
     doi.org/10.1080/00268976.2015.1025114
  3. Neese,F.
     The SHARK Integral Generation and Digestion System
     J. Comp. Chem., 2022  1-16
     doi.org/10.1002/jcc.26942
  4. Lehtola,S.; Steigemann,C.; Oliveira,M.; Marques,M.
     Recent developments in Libxc - A comprehensive library of functionals for density functional theory
     Software X, 2018 7 
     doi.org/10.1016/j.softx.2017.11.002
  5. Caldeweyher,E.; Bannwarth,C.; Grimme,S.
     Extension of the D3 dispersion coefficient model
     J. Chem. Phys., 2017 147 034112-XXXX
     doi.org/10.1063/1.4993215
  6. Caldeweyher,E.; Ehlert,S.; Hansen,A.; Neugebauer,H.; Spicher,S.; Bannwarth,C.; Grimme,S.
     A generally applicable atomic-charge dependent London dispersion correction
     J. Chem. Phys., 2019 150 154122-XXXX
     doi.org/10.1063/1.5090222
  7. Caldeweyher,E.; Mewes,J.; Ehlert,S.; Grimme,S.
     Extension and evaluation of the D4 London-dispersion model for periodic systems
     Phys. Chem. Chem. Phys., 2020 22(16)8499-8512
     doi.org/10.1039/D0CP00502A

List of suggested additional citations. These are papers that are important in the 'surrounding' of 
of this run, or papers that preceded the highly important papers. If you like your results we are grateful for a citation.

  1. Neese,F.
     The ORCA program system
     WIRES Comput. Molec. Sci., 2012 2(1)73-78
     doi.org/10.1002/wcms.81
  2. Neese,F.
     Software update: the ORCA program system, version 4.0
     WIRES Comput. Molec. Sci., 2018 8(1)1-6
     doi.org/10.1002/wcms.1327
  3. Neese,F.; Wennmohs,F.; Becker,U.; Riplinger,C.
     The ORCA quantum chemistry program package
     J. Chem. Phys., 2020 152 Art. No. L224108
     doi.org/10.1063/5.0004608

List of optional additional citations

  1. Neese,F.
     Approximate second-order SCF convergence for spin unrestricted wavefunctions
     Chem. Phys. Lett., 2000 325(1-3)93-98
     doi.org/10.1016/s0009-2614(00)00662-x

Timings for individual modules:

Sum of individual times          ...       93.689 sec (=   1.561 min)
Startup calculation              ...        0.661 sec (=   0.011 min)   0.7 %
SCF iterations                   ...       15.632 sec (=   0.261 min)  16.7 %
Property integrals               ...       32.235 sec (=   0.537 min)  34.4 %
SCF Response                     ...       22.402 sec (=   0.373 min)  23.9 %
Property calculations            ...       22.759 sec (=   0.379 min)  24.3 %
                             ****ORCA TERMINATED NORMALLY****
TOTAL RUN TIME: 0 days 0 hours 1 minutes 34 seconds 329 msec
