
                                 *****************
                                 * O   R   C   A *
                                 *****************

                                            #,                                       
                                            ###                                      
                                            ####                                     
                                            #####                                    
                                            ######                                   
                                           ########,                                 
                                     ,,################,,,,,                         
                               ,,#################################,,                 
                          ,,##########################################,,             
                       ,#########################################, ''#####,          
                    ,#############################################,,   '####,        
                  ,##################################################,,,,####,       
                ,###########''''           ''''###############################       
              ,#####''   ,,,,##########,,,,          '''####'''          '####       
            ,##' ,,,,###########################,,,                        '##       
           ' ,,###''''                  '''############,,,                           
         ,,##''                                '''############,,,,        ,,,,,,###''
      ,#''                                            '''#######################'''  
     '                                                          ''''####''''         
             ,#######,   #######,   ,#######,      ##                                
            ,#'     '#,  ##    ##  ,#'     '#,    #''#        ,####,   ,####,        
            ##       ##  ##   ,#'  ##            #'  '#       #'       #'  '#        
            ##       ##  #######   ##           ,######,      #####,   #    #        
            '#,     ,#'  ##    ##  '#,     ,#' ,#      #,     #,   #   #,  ,#        
             '#######'   ##     ##  '#######'  #'      '#     '####' # '####'        



                #########################################################
                #                        -***-                          #
                #          Department of theory and spectroscopy        #
                #                                                       #
                #                      Frank Neese                      #
                #                                                       #
                #     Directorship, Architecture, Infrastructure        #
                #                    SHARK, DRIVERS                     #
                #        Core code/Algorithms in most modules           #
                #                                                       #
                #        Max Planck Institute fuer Kohlenforschung      #
                #                Kaiser Wilhelm Platz 1                 #
                #                 D-45470 Muelheim/Ruhr                 #
                #                      Germany                          #
                #                                                       #
                #                  All rights reserved                  #
                #                        -***-                          #
                #########################################################


                         Program Version 6.0.1  -  RELEASE   -


 With contributions from (in alphabetic order):
[Max-Planck-Institut fuer Kohlenforschung]                               
  Daniel Aravena         : Magnetic Suceptibility                        
  Michael Atanasov       : Ab Initio Ligand Field Theory (pilot matlab implementation)
  Alexander A. Auer      : GIAO ZORA, VPT2 properties, NMR spectrum      
  Ute Becker             : All parallelization in ORCA, NUMFREQ, NUMCALC 
  Giovanni Bistoni       : ED, misc. LED, open-shell LED, HFLD           
  Martin Brehm           : Molecular dynamics                            
  Dmytro Bykov           : pre 5.0 version of the SCF Hessian            
  Marcos Casanova-Páez   : Triplet and SCS-CIS(D). UHF-(DLPNO)-IP/EA/STEOM-CCSD. UHF-CVS-IP/STEOM-CCSD   
  Vijay G. Chilkuri      : MRCI spin determinant printing, contributions to CSF-ICE 
  Pauline Colinet        : FMM embedding                                 
  Dipayan Datta          : RHF DLPNO-CCSD density                        
  Achintya Kumar Dutta   : EOM-CC, STEOM-CC                              
  Nicolas Foglia         : Exact transition moments, OPA infrastructure, MCD improvements    
  Dmitry Ganyushin       : Spin-Orbit,Spin-Spin,Magnetic field MRCI      
  Miquel Garcia-Rates    : C-PCM and meta-GGA Hessian, CCSD/C-PCM, Gaussian charge scheme 
  Tiago L. C. Gouveia    : GS-ROHF, GS-ROCIS                             
  Yang Guo               : DLPNO-NEVPT2, F12-NEVPT2, CIM, IAO-localization        
  Andreas Hansen         : Spin unrestricted coupled pair/coupled cluster methods 
  Ingolf Harden          : AUTO-CI MPn and infrastructure                
  Benjamin Helmich-Paris : MC-RPA, TRAH-(SCF,CASSCF), AVAS, COSX integrals, SCF dyn. polar. 
  Lee Huntington         : MR-EOM, pCC                                   
  Robert Izsak           : Overlap fitted RIJCOSX, COSX-SCS-MP3, EOM     
  Riya Kayal             : Wick's Theorem for AUTO-CI, AUTO-CI UHF-CCSDT 
  Emily Kempfer          : AUTO-CI, RHF CISDT and CCSDT                  
  Christian Kollmar      : KDIIS, OOCD, Brueckner-CCSD(T), CCSD density, CASPT2, CASPT2-K, improved NEVPT2 
  Axel Koslowski         : Symmetry handling                             
  Simone Kossmann        : meta-GGA functionals, TD-DFT gradient, OOMP2, (MP2 Hessian; deprecated post 5.0) 
  Lucas Lang             : DCDCAS                                        
  Marvin Lechner         : AUTO-CI (C++ implementation), FIC-MRCC        
  Spencer Leger          : CASSCF response                               
  Dagmar Lenk            : GEPOL surface, SMD, ORCA-2-JSON               
  Dimitrios Liakos       : Extrapolation schemes; Compound Job, initial MDCI parallelization 
  Dimitrios Manganas     : Further ROCIS development; embedding schemes. LFT, Crystal Embedding 
  Dimitrios Pantazis     : SARC Basis sets                               
  Anastasios Papadopoulos: AUTO-CI, single reference methods and gradients 
  Taras Petrenko         : pre 6.0 DFT Hessian and TD-DFT gradient, (ASA, deprecated), ECA, 1-Electron XAS/XES, NRVS 
  Peter Pinski           : DLPNO-MP2, DLPNO-MP2 Gradient                 
  Christoph Reimann      : Effective Core Potentials                     
  Marius Retegan         : Local ZFS, SOC                                
  Christoph Riplinger    : Optimizer, TS searches, QM/MM, DLPNO-CCSD(T), (RO)-DLPNO pert. Triples 
  Michael Roemelt        : Original ROCIS implementation                 
  Masaaki Saitow         : Open-shell DLPNO-CCSD energy and density      
  Barbara Sandhoefer     : DKH picture change effects                    
  Kantharuban Sivalingam : CASSCF convergence/infrastructure, NEVPT2 and variants, FIC-MRCI 
  Bernardo de Souza      : ESD, SOC TD-DFT                               
  Georgi L. Stoychev     : AutoAux, RI-MP2 NMR, DLPNO-MP2 response, X2C  
  Van Anh Tran           : RI-MP2 g-tensors                              
  Willem Van den Heuvel  : Paramagnetic NMR                              
  Zikuan Wang            : NOTCH, Electric field optimization            
  Frank Wennmohs         : Technical directorship and infrastructure     
  Hang Xu                : AUTO-CI-Response properties                   
                                                                         
[FACCTs GmbH]                                                            
  Markus Bursch, Miquel Garcia-Rates, Christoph Riplinger, Bernardo de Souza, Georgi L. Stoychev 
                                                                 
  APM, Basis sets (HGBS, AHGBS, def-TZVP (Ac-Lr), def2-XVPD (La-Lu)), CI-OPT, improved COSX, DLPNO-Multilevel,           
  DOCKER, DRACO, updates on ESD, GOAT, IRC, LR-CPCM, MBIS, meta-GGA TD-DFT gradient, ML-optimized integration grids, 
  MM, NACMEs, nearIR, NEB, NEB-TS, NL-DFT gradient (VV10), 2- and 3-layer-ONIOM, interface openCOSMO-RS, QMMM,   
  Crystal-QMMM, SF, symmetry and pop. for TD-DFT, r2SCAN hybrids, SOLVATOR                                   
                                                                         
[Other institutions]                                                     
  V. Asgeirsson          : NEB                                           
  Christoph Bannwarth    : sTDA-DFT, sTD-DFT, PBEh-3c, B97-3c, D3        
  Sebastian Ehlert       : rSCAN, r2SCAN, r2SCAN-3c, D4, dhf basis sets  
  Marvin Friede          : D4 for Fr, Ra, Ac-Lr                          
  Lars Goerigk           : TD-DFT with DH, B97 family of functionals     
  Stefan Grimme          : VdW corrections, initial TS optimization, DFT functionals, gCP, sTDA/sTD-DF 
  Waldemar Hujo          : DFT-NL                                        
  H. Jonsson             : NEB                                           
  Holger Kruse           : gCP                                           
  Marcel Mueller         : wB97X-3c, vDZP basis set                      
  Hagen Neugebauer       : wr2SCAN                                       
  Tobias Risthaus        : range-separated hybrid DFT                    
  Lukas Wittmann         : regularized MP2, r2SCAN double-hybrids, wr2SCAN        
                                                                         
We gratefully acknowledge several colleagues who have allowed us to      
interface, adapt or use parts of their codes:                            
  Ed Valeev, F. Pavosevic, A. Kumar             : LibInt (2-el integral package), F12 methods 
  Garnet Chan, S. Sharma, J. Yang, R. Olivares  : DMRG                   
  Ulf Ekstrom                                   : XCFun DFT Library      
  Mihaly Kallay                                 : mrcc  (arbitrary order and MRCC methods)
  Frank Weinhold                                : gennbo (NPA and NBO analysis)           
  Simon Mueller                                 : openCOSMO-RS                            
  Christopher J. Cramer and Donald G. Truhlar   : smd solvation model                     
  S Lehtola, MJT Oliveira, MAL Marques          : LibXC Library                           
  Liviu Ungur et al                             : ANISO software                          


 Your calculation uses the libint2 library for the computation of 2-el integrals
 For citations please refer to: http://libint.valeyev.net

 Your ORCA version has been built with support for libXC version: 6.2.2
 For citations please refer to: https://libxc.gitlab.io

 This ORCA versions uses:
   CBLAS   interface :  Fast vector & matrix operations
   LAPACKE interface :  Fast linear algebra routines
   SCALAPACK package :  Parallel linear algebra routines
   Shared memory     :  Shared parallel matrices
   BLAS/LAPACK       :  OpenBLAS 0.3.27  USE64BITINT DYNAMIC_ARCH NO_AFFINITY Zen SINGLE_THREADED
        Core in use  :  Zen
   Copyright (c) 2011-2014, The OpenBLAS Project


Your calculation utilizes the geometrical counterpoise correction gCP
Please cite in your paper:
H.Kruse, S. Grimme J.Chem.Phys., 136, (2012), 154101 
   

Your calculation utilizes the atom-pairwise dispersion correction
based on EEQ partial charges (D4)


================================================================================

----- Orbital basis set information -----
Your calculation utilizes the basis: def2-mTZVPP
   Stefan Grimme, Andreas Hansen, Sebastian Ehlert, and Jan-Michael Mewes 
   J. Chem. Phys. 154, 064103 (2021). DOI: 10.1063/5.0040021

----- AuxJ basis set information -----
Your calculation utilizes the auxiliary basis: def2/J
   F. Weigend, Phys. Chem. Chem. Phys. 8, 1057 (2006).

================================================================================
                                        WARNINGS
                       Please study these warnings very carefully!
================================================================================



WARNING: SCAN, rSCAN, or r2SCAN functional requested.
  ===> : libXC variant has now been activated.



================================================================================
                                       INPUT FILE
================================================================================
NAME = sp.inp
|  1> ! r2scan-3c def2/J RI DEFGRID2 scfconv6 printgap
|  2> %output
|  3>     printlevel normal
|  4> end
|  5> * xyz 0 1
|  6> C 2.3961298844 -0.6569425769 -0.1037649546
|  7> C 1.0808691764 -0.1222098347 0.4477314799
|  8> H 1.1053577251 -0.1717654162 1.5492669204
|  9> C 0.7629222847 1.3094720486 -0.0002401986
| 10> C -0.7612914811 1.3113453962 -0.0019362774
| 11> C -1.0839961035 -0.1197856596 -0.4491091992
| 12> H -1.1190466704 -0.1684551858 -1.550253798
| 13> O 0.0003132206 -0.9275398698 -0.0070627487
| 14> C -2.3949560435 -0.6534588752 0.1139558461
| 15> H 3.2230349283 -0.0481773662 0.2528859697
| 16> H 2.5415155858 -1.6831578984 0.2214283389
| 17> H 2.3789374528 -0.638610153 -1.1907266659
| 18> H 1.1936724355 2.0541932895 0.6653302853
| 19> H 1.1437279839 1.4727991648 -1.0099059627
| 20> H -1.1414059874 1.4767703396 1.0076482071
| 21> H -1.1901767894 2.0568116858 -0.6678834706
| 22> H -2.543284182 -1.6799873359 -0.2091815586
| 23> H -3.2246587095 -0.0446916036 -0.236388789
| 24> H -2.3688052394 -0.6341799748 1.2008060057
| 25> *
| 26> 
| 27>                          ****END OF INPUT****
================================================================================

                       ****************************
                       * Single Point Calculation *
                       ****************************

---------------------------------
CARTESIAN COORDINATES (ANGSTROEM)
---------------------------------
  C      2.396130   -0.656943   -0.103765
  C      1.080869   -0.122210    0.447731
  H      1.105358   -0.171765    1.549267
  C      0.762922    1.309472   -0.000240
  C     -0.761291    1.311345   -0.001936
  C     -1.083996   -0.119786   -0.449109
  H     -1.119047   -0.168455   -1.550254
  O      0.000313   -0.927540   -0.007063
  C     -2.394956   -0.653459    0.113956
  H      3.223035   -0.048177    0.252886
  H      2.541516   -1.683158    0.221428
  H      2.378937   -0.638610   -1.190727
  H      1.193672    2.054193    0.665330
  H      1.143728    1.472799   -1.009906
  H     -1.141406    1.476770    1.007648
  H     -1.190177    2.056812   -0.667883
  H     -2.543284   -1.679987   -0.209182
  H     -3.224659   -0.044692   -0.236389
  H     -2.368805   -0.634180    1.200806

----------------------------
CARTESIAN COORDINATES (A.U.)
----------------------------
  NO LB      ZA    FRAG     MASS         X           Y           Z
   0 C     6.0000    0    12.011    4.528029   -1.241442   -0.196087
   1 C     6.0000    0    12.011    2.042547   -0.230943    0.846090
   2 H     1.0000    0     1.008    2.088823   -0.324590    2.927690
   3 C     6.0000    0    12.011    1.441714    2.474544   -0.000454
   4 C     6.0000    0    12.011   -1.438632    2.478084   -0.003659
   5 C     6.0000    0    12.011   -2.048456   -0.226362   -0.848693
   6 H     1.0000    0     1.008   -2.114692   -0.318334   -2.929555
   7 O     8.0000    0    15.999    0.000592   -1.752796   -0.013347
   8 C     6.0000    0    12.011   -4.525811   -1.234858    0.215345
   9 H     1.0000    0     1.008    6.090653   -0.091042    0.477885
  10 H     1.0000    0     1.008    4.802768   -3.180707    0.418439
  11 H     1.0000    0     1.008    4.495540   -1.206798   -2.250147
  12 H     1.0000    0     1.008    2.255714    3.881863    1.257292
  13 H     1.0000    0     1.008    2.161333    2.783187   -1.908446
  14 H     1.0000    0     1.008   -2.156945    2.790692    1.904179
  15 H     1.0000    0     1.008   -2.249108    3.886811   -1.262117
  16 H     1.0000    0     1.008   -4.806111   -3.174716   -0.395296
  17 H     1.0000    0     1.008   -6.093722   -0.084455   -0.446710
  18 H     1.0000    0     1.008   -4.476393   -1.198426    2.269194

--------------------------------
INTERNAL COORDINATES (ANGSTROEM)
--------------------------------
 C      0   0   0     0.000000000000     0.00000000     0.00000000
 C      1   0   0     1.523154014818     0.00000000     0.00000000
 H      2   1   0     1.102921471073   109.06699231     0.00000000
 C      2   1   3     1.533454226786   113.64298375   122.82462220
 C      4   2   1     1.524215860687   102.05277632   150.50952163
 C      5   4   2     1.533700751185   102.09811582   325.29920918
 H      6   5   4     1.102776809915   109.81613164   272.38058874
 O      2   1   3     1.422320438374   109.96629039   241.61328897
 C      6   5   4     1.523307359193   113.59162903   149.98223098
 H      1   2   3     1.086999041025   109.96707518   299.02251877
 H      1   2   3     1.086280611256   109.80594719    59.21711641
 H      1   2   3     1.087252233524   110.02344324   178.57263556
 H      4   2   1     1.087722155746   112.23204414   272.14787073
 H      4   2   1     1.091381547684   109.73276853    33.48868681
 H      5   4   2     1.091381363750   110.33105673    81.90950281
 H      5   4   2     1.087726188311   113.31702166   204.40871834
 H      9   6   5     1.086360759423   109.79158544   182.16748821
 H      9   6   5     1.087081169132   109.97003498    61.97641712
 H      9   6   5     1.087335647341   110.03284733   301.52176646

---------------------------
INTERNAL COORDINATES (A.U.)
---------------------------
 C      0   0   0     0.000000000000     0.00000000     0.00000000
 C      1   0   0     2.878343947788     0.00000000     0.00000000
 H      2   1   0     2.084219527549   109.06699231     0.00000000
 C      2   1   3     2.897808527530   113.64298375   122.82462220
 C      4   2   1     2.880350545677   102.05277632   150.50952163
 C      5   4   2     2.898274391128   102.09811582   325.29920918
 H      6   5   4     2.083946157579   109.81613164   272.38058874
 O      2   1   3     2.687796103206   109.96629039   241.61328897
 C      6   5   4     2.878633726662   113.59162903   149.98223098
 H      1   2   3     2.054130495373   109.96707518   299.02251877
 H      1   2   3     2.052772859862   109.80594719    59.21711641
 H      1   2   3     2.054608959854   110.02344324   178.57263556
 H      4   2   1     2.055496984158   112.23204414   272.14787073
 H      4   2   1     2.062412232738   109.73276853    33.48868681
 H      5   4   2     2.062411885154   110.33105673    81.90950281
 H      5   4   2     2.055504604601   113.31702166   204.40871834
 H      9   6   5     2.052924317948   109.79158544   182.16748821
 H      9   6   5     2.054285695003   109.97003498    61.97641712
 H      9   6   5     2.054766589124   110.03284733   301.52176646

---------------------
BASIS SET INFORMATION
---------------------
There are 3 groups of distinct atoms

 Group   1 Type C   : 11s6p1d contracted to 5s3p1d pattern {62111/411/1}
 Group   2 Type H   : 4s1p contracted to 2s1p pattern {31/1}
 Group   3 Type O   : 11s6p2d contracted to 5s3p2d pattern {62111/411/11}

Atom   0C    basis set group =>   1
Atom   1C    basis set group =>   1
Atom   2H    basis set group =>   2
Atom   3C    basis set group =>   1
Atom   4C    basis set group =>   1
Atom   5C    basis set group =>   1
Atom   6H    basis set group =>   2
Atom   7O    basis set group =>   3
Atom   8C    basis set group =>   1
Atom   9H    basis set group =>   2
Atom  10H    basis set group =>   2
Atom  11H    basis set group =>   2
Atom  12H    basis set group =>   2
Atom  13H    basis set group =>   2
Atom  14H    basis set group =>   2
Atom  15H    basis set group =>   2
Atom  16H    basis set group =>   2
Atom  17H    basis set group =>   2
Atom  18H    basis set group =>   2
---------------------------------
AUXILIARY/J BASIS SET INFORMATION
---------------------------------
There are 3 groups of distinct atoms

 Group   1 Type C   : 12s5p4d2f1g contracted to 6s4p3d1f1g pattern {711111/2111/211/2/1}
 Group   2 Type H   : 5s2p1d contracted to 3s1p1d pattern {311/2/1}
 Group   3 Type O   : 12s5p4d2f1g contracted to 6s4p3d1f1g pattern {711111/2111/211/2/1}

Atom   0C    basis set group =>   1
Atom   1C    basis set group =>   1
Atom   2H    basis set group =>   2
Atom   3C    basis set group =>   1
Atom   4C    basis set group =>   1
Atom   5C    basis set group =>   1
Atom   6H    basis set group =>   2
Atom   7O    basis set group =>   3
Atom   8C    basis set group =>   1
Atom   9H    basis set group =>   2
Atom  10H    basis set group =>   2
Atom  11H    basis set group =>   2
Atom  12H    basis set group =>   2
Atom  13H    basis set group =>   2
Atom  14H    basis set group =>   2
Atom  15H    basis set group =>   2
Atom  16H    basis set group =>   2
Atom  17H    basis set group =>   2
Atom  18H    basis set group =>   2

Checking for AutoStart:
The File: sp.gbw exists
Trying to determine its content:
     ... Fine, the file contains calculation information
     ... Fine, the calculation information was read
     ... Fine, the file contains a basis set
     ... Fine, the basis set was read
     ... Fine, the file contains a geometry
     ... Fine, the geometry was read
     ... Fine, the file contains a set of orbitals
     ... Fine, the orbitals can be read
     => possible old guess file was deleted
     => GBW file was renamed to GES file
     => GES file is set as startup file
     => Guess is set to MORead
     ... now leaving AutoStart

------------------------------------------------------------------------------
                             ORCA STARTUP CALCULATIONS
                           -- RI-GTO INTEGRALS CHOSEN --
------------------------------------------------------------------------------
------------------------------------------------------------------------------
                   ___                                                        
                  /   \      - P O W E R E D   B Y -                         
                 /     \                                                     
                 |  |  |   _    _      __       _____    __    __             
                 |  |  |  | |  | |    /  \     |  _  \  |  |  /  |          
                  \  \/   | |  | |   /    \    | | | |  |  | /  /          
                 / \  \   | |__| |  /  /\  \   | |_| |  |  |/  /          
                |  |  |   |  __  | /  /__\  \  |    /   |      \           
                |  |  |   | |  | | |   __   |  |    \   |  |\   \          
                \     /   | |  | | |  |  |  |  | |\  \  |  | \   \       
                 \___/    |_|  |_| |__|  |__|  |_| \__\ |__|  \__/        
                                                                              
                      - O R C A' S   B I G   F R I E N D -                    
                                      &                                       
                       - I N T E G R A L  F E E D E R -                       
                                                                              
 v1 FN, 2020, v2 2021, v3 2022-2024                                           
------------------------------------------------------------------------------


----------------------
SHARK INTEGRAL PACKAGE
----------------------

Number of atoms                             ...     19
Number of basis functions                   ...    198
Number of shells                            ...    100
Maximum angular momentum                    ...      2
Integral batch strategy                     ... SHARK/LIBINT Hybrid
RI-J (if used) integral strategy            ... SPLIT-RIJ (Revised 2003 algorithm where possible)
Printlevel                                  ...      1
Contraction scheme used                     ... SEGMENTED contraction
Prescreening option                         ... SCHWARTZ
   Thresh                                   ... 1.000e-10
   Tcut                                     ... 1.000e-11
   Tpresel                                  ... 1.000e-11 
Coulomb Range Separation                    ... NOT USED
Exchange Range Separation                   ... NOT USED
Multipole approximations                    ... NOT USED
Finite Nucleus Model                        ... NOT USED
CABS basis                                  ... NOT available
Auxiliary Coulomb fitting basis             ... AVAILABLE
   # of basis functions in Aux-J            ...    475
   # of shells in Aux-J                     ...    165
   Maximum angular momentum in Aux-J        ...      4
Auxiliary J/K fitting basis                 ... NOT available
Auxiliary Correlation fitting basis         ... NOT available
Auxiliary 'external' fitting basis          ... NOT available

Checking pre-screening integrals            ... done (  0.0 sec) Dimension = 100
Check shell pair data                       ... done (  0.0 sec)
Shell pair information
Shell pair cut-off parameter TPreSel        ...   1.0e-11
Total number of shell pairs                 ...      5050
Shell pairs after pre-screening             ...      4661
Total number of primitive shell pairs       ...     17768
Primitive shell pairs kept                  ...     11928
          la=0 lb=0:   1614 shell pairs
          la=1 lb=0:   1789 shell pairs
          la=1 lb=1:    521 shell pairs
          la=2 lb=0:    450 shell pairs
          la=2 lb=1:    252 shell pairs
          la=2 lb=2:     35 shell pairs

Calculating one electron integrals          ... done (  0.0 sec)
Calculating RI/J V-Matrix + Cholesky decomp.... done (  0.0 sec)
Calculating Nuclear repulsion               ... done (  0.0 sec) ENN=    332.427738666394 Eh

Diagonalization of the overlap matrix:
Smallest eigenvalue                        ... 9.096e-05
Time for diagonalization                   ...    0.006 sec
Threshold for overlap eigenvalues          ... 1.000e-07
Number of eigenvalues below threshold      ... 0
Time for construction of square roots      ...    0.005 sec
Total time needed                          ...    0.012 sec

-------------------
DFT GRID GENERATION
-------------------

General Integration Accuracy     IntAcc      ... 4.388
Radial Grid Type                 RadialGrid  ... OptM3 with GC (2021)
Angular Grid (max. ang.)         AngularGrid ... 4 (Lebedev-302)
Angular grid pruning method      GridPruning ... 4 (adaptive)
Weight generation scheme         WeightScheme... mBecke (2022)
Basis function cutoff            BFCut       ... 1.0000e-10
Integration weight cutoff        WCut        ... 1.0000e-14
Partially contracted basis set               ... off
Rotationally invariant grid construction     ... off
Angular grids for H and He will be reduced by one unit
Diffuse basis detected: some atoms will have their outermost
                        angular grid increased by 1.

Total number of grid points                  ...    80659
Total number of batches                      ...     1270
Average number of points per batch           ...       63
Average number of grid points per atom       ...     4245
Initializing property integral containers    ... done (  0.0 sec)

SHARK setup successfully completed in   1.1 seconds

Maximum memory used throughout the entire STARTUP-calculation: 36.8 MB
-------------------------------------------------------------------------------
                                 ORCA GUESS
                   Start orbitals & Density for SCF / CASSCF
-------------------------------------------------------------------------------

------------
SCF SETTINGS
------------
Hamiltonian:
 Density Functional     Method          .... DFT(GTOs)
  Functional kind                       .... Exchange
  Functional name                       .... Re-regularized SCAN exchange by Furness et al
  Functional family                     .... MGGA
  Functional refs                              
    [ 0] J. W. Furness, A. D. Kaplan, J. Ning, J. P. Perdew, and J. Sun.,  J. Phys. Chem. Lett. 11, 8208-8215 (2020), doi: 10.1021/acs.jpclett.0c02405
    [ 1] J. W. Furness, A. D. Kaplan, J. Ning, J. P. Perdew, and J. Sun.,  J. Phys. Chem. Lett. 11, 9248-9248 (2020), doi: 10.1021/acs.jpclett.0c03077
  Functional external parameters        .... 6
    Parameter  0 _c1        =  6.670000e-01 : c1 parameter        
    Parameter  1 _c2        =  8.000000e-01 : c2 parameter        
    Parameter  2 _d         =  1.240000e+00 : d parameter         
    Parameter  3 _k1        =  6.500000e-02 : k1 parameter        
    Parameter  4 _eta       =  1.000000e-03 : eta parameter       
    Parameter  5 _dp2       =  3.610000e-01 : dp2 parameter       
  Functional kind                       .... Correlation
  Functional name                       .... Re-regularized SCAN correlation by Furness et al
  Functional family                     .... MGGA
  Functional refs                              
    [ 0] J. W. Furness, A. D. Kaplan, J. Ning, J. P. Perdew, and J. Sun.,  J. Phys. Chem. Lett. 11, 8208-8215 (2020), doi: 10.1021/acs.jpclett.0c02405
    [ 1] J. W. Furness, A. D. Kaplan, J. Ning, J. P. Perdew, and J. Sun.,  J. Phys. Chem. Lett. 11, 9248-9248 (2020), doi: 10.1021/acs.jpclett.0c03077
  Functional external parameters        .... 1
    Parameter  0 _eta       =  1.000000e-03 : Regularization parameter
 Gradients option       PostSCFGGA      .... off
 RI-approximation to the Coulomb term is turned on
   Number of AuxJ basis functions       .... 475


General Settings:
 Integral files         IntName         .... sp
 Hartree-Fock type      HFTyp           .... RHF
 Total Charge           Charge          ....    0
 Multiplicity           Mult            ....    1
 Number of Electrons    NEL             ....   56
 Basis Dimension        Dim             ....  198
 Nuclear Repulsion      ENuc            ....    332.4277386664 Eh

Convergence Acceleration:
 AO-DIIS                CNVDIIS         .... on
   Start iteration      DIISMaxIt       ....    12
   Startup error        DIISStart       ....  0.200000
   # of expansion vecs  DIISMaxEq       ....     5
   Bias factor          DIISBfac        ....   1.050
   Max. coefficient     DIISMaxC        ....  10.000
 MO-DIIS                CNVKDIIS        .... off
 Trust-Rad. Augm. Hess. CNVTRAH         .... auto
   Auto Start mean grad. ratio tolernc. ....  1.125000
   Auto Start start iteration           ....     1
   Auto Start num. interpolation iter.  ....    10
   Max. Number of Micro iterations      ....    24
   Max. Number of Macro iterations      .... Maxiter - #DIIS iter
   Number of Davidson start vectors     ....     2
   Converg. threshold    (grad. norm)   ....   3.330e-04
   Grad. Scal. Fac. for Micro threshold ....   0.100
   Minimum threshold for Micro iter.    ....   1.000e-02
   NR start threshold (gradient norm)   ....   1.000e-04
   Initial trust radius                 ....   0.400
   Minimum AH scaling param. (alpha)    ....   1.000
   Maximum AH scaling param. (alpha)    .... 1000.000
   Quad. conv. algorithm                .... NR
   White noise on init. David. guess    .... on
   Maximum white noise                  ....   0.010
   Pseudo random numbers                .... off
   Inactive MOs                         .... canonical
   Orbital update algorithm             .... Taylor
   Preconditioner                       .... Diag
   Full preconditioner red. dimension   ....   250
   COSX micro iterations for RIJONX calc.... off
 SOSCF                  CNVSOSCF        .... on
   Start iteration      SOSCFMaxIt      ....   150
   Startup grad/error   SOSCFStart      ....  0.003300
   Hessian update       SOSCFHessUp     .... L-BFGS
 Level Shifting         CNVShift        .... on
   Level shift para.    LevelShift      ....    0.2500
   Turn off err/grad.   ShiftErr        ....    0.0010
 Zerner damping         CNVZerner       .... off
 Static damping         CNVDamp         .... on
   Fraction old density DampFac         ....    0.7000
   Max. Damping (<1)    DampMax         ....    0.9800
   Min. Damping (>=0)   DampMin         ....    0.0000
   Turn off err/grad.   DampErr         ....    0.1000

SCF Procedure:
 Maximum # iterations   MaxIter         ....   125
 SCF integral mode      SCFMode         .... Direct
   Integral package                     .... SHARK and LIBINT hybrid scheme
 Reset frequency        DirectResetFreq ....    20
 Integral Threshold     Thresh          ....  1.000e-10 Eh
 Primitive CutOff       TCut            ....  1.000e-11 Eh

Convergence Tolerance:
 Convergence Check Mode ConvCheckMode   .... Total+1el-Energy
 Convergence forced     ConvForced      .... 0
 Energy Change          TolE            ....  1.000e-06 Eh
 1-El. energy change                    ....  1.000e-03 Eh
 Orbital Gradient       TolG            ....  3.330e-04
 Orbital Rotation angle TolX            ....  3.330e-04
 DIIS Error             TolErr          ....  1.000e-06

---------------------
INITIAL GUESS: MOREAD
---------------------
Guess MOs are being read from file: sp.ges
Input Geometry matches current geometry (good)
Atom 0: N(Shells)= 9 and 6 - projection required
Input basis set needs projection
NBasis(read)= 122
NBasis(calc)= 198
Basis set overlap was calculated
Using GuessMode=FMatrix for the initial guess
C*T matrix was formed
Effective Fockian was calculated
Effective Fockian was diagonalized
Initial density was built
                      ------------------
                      INITIAL GUESS DONE (   0.0 sec)
                      ------------------
             **** ENERGY FILE WAS UPDATED (sp.en.tmp) ****
Finished Guess after   0.1 sec
Maximum memory used throughout the entire GUESS-calculation: 14.4 MB

-------------------------------------------------------------------------------------------
                                      ORCA LEAN-SCF
                              memory conserving SCF solver
-------------------------------------------------------------------------------------------

----------------------------------------D-I-I-S--------------------------------------------
Iteration    Energy (Eh)           Delta-E    RMSDP     MaxDP     DIISErr   Damp  Time(sec)
-------------------------------------------------------------------------------------------
               ***  Starting incremental Fock matrix formation  ***
    1    -310.8406298981053624     0.00e+00  4.91e-03  2.04e-01  6.26e-01  0.700   1.6
    2    -310.8885545198520504    -4.79e-02  3.86e-03  1.39e-01  4.40e-01  0.700   1.5
    3    -310.9224370736172887    -3.39e-02  2.80e-03  9.48e-02  3.08e-01  0.700   1.4
    4    -310.9462180418348680    -2.38e-02  1.99e-03  6.52e-02  2.16e-01  0.700   1.4
                               ***Turning on AO-DIIS***
    5    -310.9628949494560857    -1.67e-02  1.41e-03  4.31e-02  1.51e-01  0.700   1.4
    6    -310.9745847218364361    -1.17e-02  1.00e-03  2.97e-02  1.06e-01  0.700   1.3
    7    -310.9827773227683565    -8.19e-03  7.06e-04  2.07e-02  7.40e-02  0.700   1.4
    8    -310.9885171069995522    -5.74e-03  1.65e-03  4.77e-02  5.19e-02  0.000   1.3
                              *** Initializing SOSCF ***
---------------------------------------S-O-S-C-F--------------------------------------
Iteration    Energy (Eh)           Delta-E    RMSDP     MaxDP     MaxGrad    Time(sec)
--------------------------------------------------------------------------------------
    9    -311.0019266025424258    -1.34e-02  1.12e-05  3.40e-04  7.91e-05     1.4
                  *** Gradient check signals convergence ***

               *****************************************************
               *                     SUCCESS                       *
               *           SCF CONVERGED AFTER   9 CYCLES          *
               *****************************************************

             **** ENERGY FILE WAS UPDATED (sp.en.tmp) ****

----------------
TOTAL SCF ENERGY
----------------

Total Energy       :       -311.00192660254243 Eh           -8462.79266 eV

Components:
Nuclear Repulsion  :        332.42773866639357 Eh            9045.81865 eV
Electronic Energy  :       -643.42966526893599 Eh          -17508.61131 eV
One Electron Energy:      -1079.23235266266670 Eh          -29367.40533 eV
Two Electron Energy:        435.80268739373071 Eh           11858.79401 eV

Virial components:
Potential Energy   :       -620.62654451428682 Eh          -16888.10685 eV
Kinetic Energy     :        309.62461791174439 Eh            8425.31419 eV
Virial Ratio       :          2.00444831777294

DFT components:
N(Alpha)           :       28.000055058418 electrons
N(Beta)            :       28.000055058418 electrons
N(Total)           :       56.000110116835 electrons
E(X)               :      -43.810776289590 Eh       
E(C)               :       -1.770625494993 Eh       
E(XC)              :      -45.581401784583 Eh       

---------------
SCF CONVERGENCE
---------------

  Last Energy change         ...    1.3409e-02  Tolerance :   1.0000e-06
  Last MAX-Density change    ...    3.4038e-04  Tolerance :   1.0000e-05
  Last RMS-Density change    ...    1.1222e-05  Tolerance :   1.0000e-06
  Last DIIS Error            ...    7.9113e-05  Tolerance :   1.0000e-06
  Last Orbital Gradient      ...    7.9113e-05  Tolerance :   3.3300e-04
  Last Orbital Rotation      ...    7.9113e-05  Tolerance :   3.3300e-04


----------------
ORBITAL ENERGIES
----------------

  NO   OCC          E(Eh)            E(eV) 
   0   2.0000     -18.938584      -515.3451 
   1   2.0000     -10.076453      -274.1942 
   2   2.0000     -10.076437      -274.1938 
   3   2.0000     -10.028776      -272.8969 
   4   2.0000     -10.028633      -272.8930 
   5   2.0000     -10.014497      -272.5083 
   6   2.0000     -10.014476      -272.5077 
   7   2.0000      -0.994616       -27.0649 
   8   2.0000      -0.752596       -20.4792 
   9   2.0000      -0.745424       -20.2840 
  10   2.0000      -0.677492       -18.4355 
  11   2.0000      -0.607669       -16.5355 
  12   2.0000      -0.560271       -15.2458 
  13   2.0000      -0.520221       -14.1559 
  14   2.0000      -0.472146       -12.8477 
  15   2.0000      -0.449012       -12.2182 
  16   2.0000      -0.399194       -10.8626 
  17   2.0000      -0.396976       -10.8023 
  18   2.0000      -0.388025       -10.5587 
  19   2.0000      -0.371066       -10.0972 
  20   2.0000      -0.354021        -9.6334 
  21   2.0000      -0.338982        -9.2242 
  22   2.0000      -0.332459        -9.0467 
  23   2.0000      -0.310535        -8.4501 
  24   2.0000      -0.299062        -8.1379 
  25   2.0000      -0.295332        -8.0364 
  26   2.0000      -0.276994        -7.5374 
  27   2.0000      -0.207449        -5.6450 
  28   0.0000       0.080970         2.2033 
  29   0.0000       0.097510         2.6534 
  30   0.0000       0.109745         2.9863 
  31   0.0000       0.114794         3.1237 
  32   0.0000       0.128972         3.5095 
  33   0.0000       0.136780         3.7220 
  34   0.0000       0.139181         3.7873 
  35   0.0000       0.153956         4.1893 
  36   0.0000       0.161691         4.3998 
  37   0.0000       0.167266         4.5515 
  38   0.0000       0.172313         4.6889 
*Only the first 10 virtual orbitals were printed.

                    ********************************
                    * MULLIKEN POPULATION ANALYSIS *
                    ********************************

-----------------------
MULLIKEN ATOMIC CHARGES
-----------------------
   0 C :   -0.497002
   1 C :    0.053060
   2 H :    0.135741
   3 C :   -0.332443
   4 C :   -0.332621
   5 C :    0.052931
   6 H :    0.135861
   7 O :   -0.250781
   8 C :   -0.496991
   9 H :    0.141222
  10 H :    0.155023
  11 H :    0.149589
  12 H :    0.155463
  13 H :    0.164853
  14 H :    0.164913
  15 H :    0.155516
  16 H :    0.155097
  17 H :    0.141230
  18 H :    0.149339
Sum of atomic charges:    0.0000000

--------------------------------
MULLIKEN REDUCED ORBITAL CHARGES
--------------------------------
  0 C s       :     3.354201  s :     3.354201
      pz      :     1.063410  p :     3.116854
      px      :     0.967717
      py      :     1.085727
      dz2     :     0.007878  d :     0.025947
      dxz     :     0.004051
      dyz     :     0.002310
      dx2y2   :     0.005761
      dxy     :     0.005947

  1 C s       :     3.160559  s :     3.160559
      pz      :     1.042016  p :     2.719379
      px      :     0.815460
      py      :     0.861903
      dz2     :     0.016599  d :     0.067001
      dxz     :     0.011125
      dyz     :     0.008140
      dx2y2   :     0.014812
      dxy     :     0.016325

  2 H s       :     0.847559  s :     0.847559
      pz      :     0.011173  p :     0.016700
      px      :     0.002655
      py      :     0.002872

  3 C s       :     3.279862  s :     3.279862
      pz      :     1.102094  p :     3.017277
      px      :     0.935786
      py      :     0.979397
      dz2     :     0.006987  d :     0.035305
      dxz     :     0.006117
      dyz     :     0.006129
      dx2y2   :     0.009511
      dxy     :     0.006560

  4 C s       :     3.278942  s :     3.278942
      pz      :     1.102613  p :     3.018391
      px      :     0.935693
      py      :     0.980084
      dz2     :     0.006984  d :     0.035289
      dxz     :     0.006107
      dyz     :     0.006138
      dx2y2   :     0.009492
      dxy     :     0.006568

  5 C s       :     3.160329  s :     3.160329
      pz      :     1.044000  p :     2.719804
      px      :     0.814514
      py      :     0.861290
      dz2     :     0.016475  d :     0.066936
      dxz     :     0.011168
      dyz     :     0.008094
      dx2y2   :     0.014828
      dxy     :     0.016371

  6 H s       :     0.847429  s :     0.847429
      pz      :     0.011177  p :     0.016710
      px      :     0.002661
      py      :     0.002872

  7 O s       :     3.741975  s :     3.741975
      pz      :     1.734493  p :     4.504880
      px      :     1.209123
      py      :     1.561265
      dz2     :     0.004721  d :     0.003925
      dxz     :    -0.003351
      dyz     :     0.000011
      dx2y2   :     0.002041
      dxy     :     0.000503

  8 C s       :     3.354276  s :     3.354276
      pz      :     1.062200  p :     3.116766
      px      :     0.968515
      py      :     1.086051
      dz2     :     0.007913  d :     0.025948
      dxz     :     0.004052
      dyz     :     0.002292
      dx2y2   :     0.005734
      dxy     :     0.005957

  9 H s       :     0.840426  s :     0.840426
      pz      :     0.004367  p :     0.018352
      px      :     0.008098
      py      :     0.005887

 10 H s       :     0.826642  s :     0.826642
      pz      :     0.004221  p :     0.018335
      px      :     0.003750
      py      :     0.010364

 11 H s       :     0.832235  s :     0.832235
      pz      :     0.011127  p :     0.018176
      px      :     0.003421
      py      :     0.003628

 12 H s       :     0.826231  s :     0.826231
      pz      :     0.006334  p :     0.018306
      px      :     0.004823
      py      :     0.007149

 13 H s       :     0.817298  s :     0.817298
      pz      :     0.009891  p :     0.017849
      px      :     0.004374
      py      :     0.003584

 14 H s       :     0.817238  s :     0.817238
      pz      :     0.009889  p :     0.017849
      px      :     0.004371
      py      :     0.003589

 15 H s       :     0.826178  s :     0.826178
      pz      :     0.006338  p :     0.018306
      px      :     0.004814
      py      :     0.007155

 16 H s       :     0.826574  s :     0.826574
      pz      :     0.004210  p :     0.018329
      px      :     0.003754
      py      :     0.010366

 17 H s       :     0.840423  s :     0.840423
      pz      :     0.004338  p :     0.018347
      px      :     0.008124
      py      :     0.005885

 18 H s       :     0.832487  s :     0.832487
      pz      :     0.011123  p :     0.018174
      px      :     0.003424
      py      :     0.003628


------------------------
MULLIKEN OVERLAP CHARGES
------------------------
B(  0-C ,  1-C ) :   0.4064 B(  0-C ,  3-C ) :  -0.0855 B(  0-C ,  5-C ) :   0.0550 
B(  0-C ,  9-H ) :   0.8374 B(  0-C , 10-H ) :   0.8000 B(  0-C , 11-H ) :   0.8734 
B(  1-C ,  2-H ) :   0.6144 B(  1-C ,  3-C ) :   0.1845 B(  1-C ,  4-C ) :   0.0816 
B(  1-C ,  5-C ) :  -0.6677 B(  1-C ,  6-H ) :   0.0808 B(  1-C ,  7-O ) :   0.2885 
B(  1-C ,  8-C ) :   0.0540 B(  1-C ,  9-H ) :  -0.0988 B(  1-C , 11-H ) :  -0.1212 
B(  1-C , 13-H ) :  -0.1434 B(  2-H ,  4-C ) :  -0.0675 B(  2-H ,  5-C ) :   0.0814 
B(  2-H ,  7-O ) :  -0.1136 B(  3-C ,  5-C ) :   0.0800 B(  3-C ,  6-H ) :  -0.0672 
B(  3-C ,  7-O ) :  -0.1330 B(  3-C , 12-H ) :   0.7912 B(  3-C , 13-H ) :   0.9212 
B(  3-C , 14-H ) :  -0.1075 B(  3-C , 15-H ) :  -0.0519 B(  4-C ,  5-C ) :   0.1751 
B(  4-C ,  7-O ) :  -0.1354 B(  4-C ,  8-C ) :  -0.0863 B(  4-C , 12-H ) :  -0.0534 
B(  4-C , 13-H ) :  -0.1067 B(  4-C , 14-H ) :   0.9224 B(  4-C , 15-H ) :   0.7893 
B(  5-C ,  6-H ) :   0.6139 B(  5-C ,  7-O ) :   0.2926 B(  5-C ,  8-C ) :   0.4132 
B(  5-C , 14-H ) :  -0.1439 B(  5-C , 17-H ) :  -0.0992 B(  5-C , 18-H ) :  -0.1213 
B(  6-H ,  7-O ) :  -0.1128 B(  8-C , 16-H ) :   0.8009 B(  8-C , 17-H ) :   0.8371 
B(  8-C , 18-H ) :   0.8730 


                     *******************************
                     * LOEWDIN POPULATION ANALYSIS *
                     *******************************

----------------------
LOEWDIN ATOMIC CHARGES
----------------------
   0 C :   -0.386875
   1 C :    0.064455
   2 H :    0.164393
   3 C :   -0.266853
   4 C :   -0.267042
   5 C :    0.064334
   6 H :    0.164616
   7 O :   -0.748950
   8 C :   -0.387141
   9 H :    0.156688
  10 H :    0.160038
  11 H :    0.157644
  12 H :    0.163153
  13 H :    0.162109
  14 H :    0.162068
  15 H :    0.163186
  16 H :    0.160030
  17 H :    0.156661
  18 H :    0.157487

-------------------------------
LOEWDIN REDUCED ORBITAL CHARGES
-------------------------------
  0 C s       :     2.973595  s :     2.973595
      pz      :     1.142045  p :     3.351998
      px      :     1.066085
      py      :     1.143867
      dz2     :     0.019347  d :     0.061282
      dxz     :     0.008754
      dyz     :     0.005549
      dx2y2   :     0.013303
      dxy     :     0.014330

  1 C s       :     2.832341  s :     2.832341
      pz      :     1.055782  p :     2.958604
      px      :     0.935978
      py      :     0.966844
      dz2     :     0.038970  d :     0.144599
      dxz     :     0.022727
      dyz     :     0.015102
      dx2y2   :     0.033425
      dxy     :     0.034376

  2 H s       :     0.795815  s :     0.795815
      pz      :     0.026231  p :     0.039791
      px      :     0.006463
      py      :     0.007098

  3 C s       :     2.932135  s :     2.932135
      pz      :     1.140547  p :     3.257606
      px      :     1.060663
      py      :     1.056396
      dz2     :     0.015602  d :     0.077112
      dxz     :     0.012943
      dyz     :     0.013855
      dx2y2   :     0.021830
      dxy     :     0.012881

  4 C s       :     2.932107  s :     2.932107
      pz      :     1.140623  p :     3.257875
      px      :     1.060717
      py      :     1.056534
      dz2     :     0.015591  d :     0.077061
      dxz     :     0.012910
      dyz     :     0.013872
      dx2y2   :     0.021783
      dxy     :     0.012905

  5 C s       :     2.832401  s :     2.832401
      pz      :     1.056905  p :     2.958785
      px      :     0.935358
      py      :     0.966522
      dz2     :     0.038652  d :     0.144480
      dxz     :     0.022892
      dyz     :     0.014980
      dx2y2   :     0.033431
      dxy     :     0.034525

  6 H s       :     0.795602  s :     0.795602
      pz      :     0.026240  p :     0.039782
      px      :     0.006450
      py      :     0.007091

  7 O s       :     3.495177  s :     3.495177
      pz      :     1.782873  p :     4.766743
      px      :     1.370076
      py      :     1.613794
      dz2     :     0.086588  d :     0.487030
      dxz     :     0.084124
      dyz     :     0.051565
      dx2y2   :     0.137337
      dxy     :     0.127416

  8 C s       :     2.973832  s :     2.973832
      pz      :     1.141443  p :     3.352021
      px      :     1.066588
      py      :     1.143990
      dz2     :     0.019422  d :     0.061289
      dxz     :     0.008756
      dyz     :     0.005494
      dx2y2   :     0.013253
      dxy     :     0.014363

  9 H s       :     0.799635  s :     0.799635
      pz      :     0.010064  p :     0.043677
      px      :     0.019565
      py      :     0.014048

 10 H s       :     0.796432  s :     0.796432
      pz      :     0.009597  p :     0.043530
      px      :     0.008150
      py      :     0.025783

 11 H s       :     0.799000  s :     0.799000
      pz      :     0.027778  p :     0.043356
      px      :     0.007623
      py      :     0.007955

 12 H s       :     0.792354  s :     0.792354
      pz      :     0.015274  p :     0.044493
      px      :     0.011427
      py      :     0.017792

 13 H s       :     0.794268  s :     0.794268
      pz      :     0.024810  p :     0.043623
      px      :     0.010384
      py      :     0.008429

 14 H s       :     0.794301  s :     0.794301
      pz      :     0.024807  p :     0.043631
      px      :     0.010378
      py      :     0.008447

 15 H s       :     0.792318  s :     0.792318
      pz      :     0.015287  p :     0.044496
      px      :     0.011407
      py      :     0.017802

 16 H s       :     0.796448  s :     0.796448
      pz      :     0.009572  p :     0.043522
      px      :     0.008157
      py      :     0.025792

 17 H s       :     0.799665  s :     0.799665
      pz      :     0.009984  p :     0.043675
      px      :     0.019648
      py      :     0.014042

 18 H s       :     0.799165  s :     0.799165
      pz      :     0.027758  p :     0.043348
      px      :     0.007637
      py      :     0.007953


---------------------------------
LOEWDIN BOND ORDERS (THRESH 0.050000)
---------------------------------
B(  0-C ,  1-C ) :   1.0586 B(  0-C ,  3-C ) :   0.0694 B(  0-C ,  7-O ) :   0.1618 
B(  0-C ,  9-H ) :   0.9180 B(  0-C , 10-H ) :   0.9190 B(  0-C , 11-H ) :   0.9202 
B(  1-C ,  2-H ) :   0.8021 B(  1-C ,  3-C ) :   0.9932 B(  1-C ,  4-C ) :   0.0748 
B(  1-C ,  5-C ) :   0.0743 B(  1-C ,  7-O ) :   1.3418 B(  2-H ,  7-O ) :   0.0988 
B(  3-C ,  4-C ) :   1.0826 B(  3-C ,  5-C ) :   0.0746 B(  3-C ,  7-O ) :   0.1576 
B(  3-C , 12-H ) :   0.8922 B(  3-C , 13-H ) :   0.8843 B(  4-C ,  5-C ) :   0.9931 
B(  4-C ,  7-O ) :   0.1571 B(  4-C ,  8-C ) :   0.0696 B(  4-C , 14-H ) :   0.8843 
B(  4-C , 15-H ) :   0.8922 B(  5-C ,  6-H ) :   0.8023 B(  5-C ,  7-O ) :   1.3418 
B(  5-C ,  8-C ) :   1.0586 B(  6-H ,  7-O ) :   0.0988 B(  7-O ,  8-C ) :   0.1617 
B(  8-C , 16-H ) :   0.9190 B(  8-C , 17-H ) :   0.9180 B(  8-C , 18-H ) :   0.9203 


------------------------------------------
LOEWDIN REDUCED ORBITAL POPULATIONS PER MO
-------------------------------------------
THRESHOLD FOR PRINTING IS 0.1%%
                      0         1         2         3         4         5   
                 -18.93858 -10.07645 -10.07644 -10.02878 -10.02863 -10.01450
                   2.00000   2.00000   2.00000   2.00000   2.00000   2.00000
                  --------  --------  --------  --------  --------  --------
 0 C  s               0.0       0.0       0.0       0.0       0.0      99.7
 1 C  s               0.0      99.3       0.0       0.0       0.0       0.0
 3 C  s               0.0       0.0       0.0      35.3      64.4       0.0
 4 C  s               0.0       0.0       0.0      64.3      35.4       0.0
 5 C  s               0.0       0.0      99.3       0.0       0.0       0.0
 7 O  s              99.9       0.0       0.0       0.0       0.0       0.0
 7 O  dxy             0.0       0.2       0.2       0.0       0.0       0.0

                      6         7         8         9        10        11   
                 -10.01448  -0.99462  -0.75260  -0.74542  -0.67749  -0.60767
                   2.00000   2.00000   2.00000   2.00000   2.00000   2.00000
                  --------  --------  --------  --------  --------  --------
 0 C  s               0.0       0.7       1.5      11.3      19.4      11.0
 0 C  pz              0.0       0.1       0.0       0.2       0.0       0.2
 0 C  px              0.0       1.1       0.1       1.2       0.0       1.6
 0 C  py              0.0       0.0       0.4       0.2       0.0       0.5
 1 C  s               0.0       8.4       3.0      13.2       2.0       2.7
 1 C  pz              0.0       1.1       0.1       0.1       0.0       0.6
 1 C  px              0.0       4.8       0.5       2.3       6.5       2.0
 1 C  py              0.0       1.4       6.6       0.1       1.4       2.7
 1 C  dxz             0.0       0.1       0.0       0.0       0.1       0.0
 1 C  dx2y2           0.0       0.1       0.1       0.0       0.1       0.1
 1 C  dxy             0.0       0.3       0.2       0.0       0.1       0.0
 2 H  s               0.0       0.5       0.4       2.0       0.4       1.0
 2 H  pz              0.0       0.1       0.0       0.2       0.0       0.1
 3 C  s               0.0       1.3      22.1       2.4       2.4       6.5
 3 C  pz              0.0       0.0       0.0       0.2       0.0       0.3
 3 C  px              0.0       0.2       1.7       2.0       1.4       2.8
 3 C  py              0.0       1.6       0.1       1.1       0.6       0.1
 3 C  dx2y2           0.0       0.0       0.0       0.1       0.0       0.1
 4 C  s               0.0       1.3      22.1       2.4       2.4       6.5
 4 C  pz              0.0       0.0       0.0       0.2       0.0       0.3
 4 C  px              0.0       0.2       1.7       2.0       1.4       2.8
 4 C  py              0.0       1.6       0.1       1.1       0.6       0.1
 4 C  dx2y2           0.0       0.0       0.0       0.1       0.0       0.1
 5 C  s               0.0       8.4       3.0      13.2       2.0       2.7
 5 C  pz              0.0       1.0       0.1       0.1       0.1       0.6
 5 C  px              0.1       4.8       0.5       2.2       6.5       2.0
 5 C  py              0.0       1.4       6.6       0.1       1.3       2.7
 5 C  dxz             0.0       0.1       0.0       0.0       0.1       0.0
 5 C  dx2y2           0.0       0.1       0.1       0.0       0.1       0.1
 5 C  dxy             0.0       0.3       0.2       0.0       0.1       0.0
 6 H  s               0.0       0.5       0.4       2.0       0.4       1.0
 6 H  pz              0.0       0.1       0.0       0.2       0.0       0.1
 7 O  s               0.0      52.4       8.4       0.0       0.9       0.0
 7 O  pz              0.0       0.0       0.0       1.2       0.0       1.2
 7 O  px              0.0       0.0       0.0      10.1       0.0       1.6
 7 O  py              0.0       2.9       1.1       0.0       0.1       0.0
 7 O  dz2             0.0       0.3       0.5       0.0       0.2       0.0
 7 O  dxz             0.0       0.2       0.1       0.0       0.0       0.0
 7 O  dyz             0.0       0.0       0.0       0.3       0.0       0.2
 7 O  dx2y2           0.0       0.0       0.2       0.0       2.0       0.0
 7 O  dxy             0.0       0.0       0.0       2.4       0.0       1.1
 8 C  s              99.7       0.7       1.5      11.3      19.4      11.0
 8 C  pz              0.0       0.1       0.0       0.2       0.0       0.2
 8 C  px              0.0       1.1       0.1       1.2       0.0       1.6
 8 C  py              0.0       0.0       0.4       0.2       0.0       0.5
 9 H  s               0.0       0.0       0.3       1.7       4.2       3.3
 9 H  px              0.0       0.0       0.0       0.1       0.2       0.1
 9 H  py              0.0       0.0       0.0       0.0       0.1       0.1
10 H  s               0.0       0.0       0.2       1.7       4.0       3.6
10 H  py              0.0       0.0       0.0       0.1       0.3       0.3
11 H  s               0.0       0.0       0.2       1.6       3.8       3.2
11 H  pz              0.0       0.0       0.0       0.2       0.3       0.3
12 H  s               0.0       0.1       3.2       0.4       0.5       2.5
12 H  pz              0.0       0.0       0.1       0.0       0.0       0.1
12 H  py              0.0       0.0       0.1       0.0       0.0       0.1
13 H  s               0.0       0.1       3.2       0.4       0.4       1.6
13 H  pz              0.0       0.0       0.3       0.0       0.0       0.1
14 H  s               0.0       0.1       3.2       0.4       0.4       1.6
14 H  pz              0.0       0.0       0.3       0.0       0.0       0.1
15 H  s               0.0       0.1       3.2       0.4       0.5       2.5
15 H  pz              0.0       0.0       0.1       0.0       0.0       0.1
15 H  py              0.0       0.0       0.1       0.0       0.0       0.1
16 H  s               0.0       0.0       0.2       1.7       4.0       3.6
16 H  py              0.0       0.0       0.0       0.1       0.3       0.3
17 H  s               0.0       0.0       0.3       1.7       4.2       3.3
17 H  px              0.0       0.0       0.0       0.1       0.2       0.1
17 H  py              0.0       0.0       0.0       0.0       0.1       0.1
18 H  s               0.0       0.0       0.2       1.6       3.8       3.2
18 H  pz              0.0       0.0       0.0       0.1       0.3       0.3

                     12        13        14        15        16        17   
                  -0.56027  -0.52022  -0.47215  -0.44901  -0.39919  -0.39698
                   2.00000   2.00000   2.00000   2.00000   2.00000   2.00000
                  --------  --------  --------  --------  --------  --------
 0 C  s               1.0       1.7       0.3       0.2       0.2       0.1
 0 C  pz              0.6       1.8       1.9       4.5       2.4       0.5
 0 C  px              1.2       2.2       3.0       0.9       5.1       1.0
 0 C  py              0.3       1.1       0.1       0.1       7.0      13.8
 1 C  s               2.5       7.3       0.1       0.4       0.1       1.0
 1 C  pz              2.3       3.1      11.1       6.5       5.0       0.3
 1 C  px              1.3       0.2       0.4       3.0       2.9       5.4
 1 C  py              5.5       1.4       2.6       2.3       0.1       2.5
 2 H  s               1.9       5.4       3.1       3.4       1.3       0.1
 2 H  pz              0.2       0.3       0.1       0.1       0.0       0.0
 3 C  s               7.1       1.8       0.0       0.4       0.1       1.1
 3 C  pz              1.0       0.8      11.7       0.9       1.1       1.4
 3 C  px              4.4       0.6       0.0       1.7      11.9       0.2
 3 C  py              0.7       8.7       0.1      10.0       0.0       5.8
 3 C  dx2y2           0.0       0.1       0.0       0.0       0.1       0.0
 3 C  dxy             0.0       0.0       0.0       0.0       0.0       0.2
 4 C  s               7.1       1.8       0.0       0.4       0.1       1.0
 4 C  pz              1.0       0.8      11.8       0.9       1.6       1.1
 4 C  px              4.4       0.6       0.0       1.7      11.5       0.5
 4 C  py              0.7       8.7       0.1      10.1       0.0       5.8
 4 C  dx2y2           0.0       0.1       0.0       0.0       0.1       0.0
 4 C  dxy             0.0       0.0       0.0       0.0       0.0       0.2
 5 C  s               2.5       7.3       0.1       0.4       0.2       0.9
 5 C  pz              2.4       3.0      11.0       6.6       5.1       0.1
 5 C  px              1.3       0.3       0.4       3.1       3.7       4.6
 5 C  py              5.5       1.4       2.7       2.3       0.1       2.4
 6 H  s               1.9       5.3       3.1       3.4       1.2       0.2
 6 H  pz              0.2       0.3       0.1       0.1       0.0       0.0
 7 O  s               0.0       5.2       0.0       1.8       0.3       0.0
 7 O  pz              5.8       0.0       1.3       0.0       0.0       5.1
 7 O  px             12.1       0.0      15.7       0.0       0.0       4.4
 7 O  py              0.0       4.8       0.0      11.5       1.4       0.0
 7 O  dz2             0.0       0.0       0.0       0.5       0.2       0.0
 7 O  dxz             0.0       1.3       0.0       1.2       0.6       0.0
 7 O  dyz             0.5       0.0       0.8       0.0       0.0       0.0
 7 O  dx2y2           0.0       0.0       0.0       1.1       0.6       0.0
 7 O  dxy             0.1       0.0       0.1       0.0       0.0       1.1
 8 C  s               1.0       1.8       0.3       0.2       0.2       0.1
 8 C  pz              0.6       1.8       1.8       4.5       1.9       0.8
 8 C  px              1.2       2.2       3.0       0.8       5.6       0.6
 8 C  py              0.3       1.1       0.1       0.1       8.8      11.5
 9 H  s               0.8       0.7       1.6       0.1       0.6       0.6
 9 H  py              0.0       0.0       0.0       0.0       0.1       0.0
10 H  s               0.1       1.3       0.2       0.0       5.0       5.7
10 H  py              0.0       0.1       0.0       0.0       0.1       0.1
11 H  s               0.7       1.7       0.2       2.0       0.5       0.3
12 H  s               3.3       1.6       1.3       4.5       0.3       5.6
12 H  pz              0.1       0.1       0.0       0.1       0.0       0.1
13 H  s               4.7       1.5       2.8       0.1       2.1       0.1
13 H  pz              0.3       0.1       0.1       0.0       0.1       0.0
14 H  s               4.7       1.5       2.8       0.1       2.2       0.2
14 H  pz              0.3       0.1       0.1       0.0       0.1       0.0
15 H  s               3.2       1.6       1.3       4.6       0.1       5.8
15 H  pz              0.1       0.1       0.0       0.1       0.0       0.1
16 H  s               0.1       1.3       0.2       0.0       5.9       4.5
16 H  py              0.0       0.1       0.0       0.0       0.2       0.1
17 H  s               0.8       0.7       1.6       0.1       0.5       0.7
17 H  py              0.0       0.0       0.0       0.0       0.1       0.0
18 H  s               0.7       1.7       0.2       2.0       0.4       0.4

                     18        19        20        21        22        23   
                  -0.38803  -0.37107  -0.35402  -0.33898  -0.33246  -0.31053
                   2.00000   2.00000   2.00000   2.00000   2.00000   2.00000
                  --------  --------  --------  --------  --------  --------
 0 C  pz              8.0       1.2       8.9      16.4       6.6       1.3
 0 C  px              1.1      12.8       6.8       0.1       3.4       0.3
 0 C  py              0.3      11.8       5.0       0.0       5.1       4.2
 0 C  dz2             0.0       0.0       0.1       0.3       0.2       0.1
 0 C  dxy             0.0       0.2       0.1       0.0       0.1       0.0
 1 C  s               0.0       0.2       0.0       0.1       0.2       0.1
 1 C  pz              3.9       0.4       0.8       2.7       3.0       1.6
 1 C  px              0.1       0.7       6.1       1.2       0.3       1.3
 1 C  py              1.3       1.3       0.1       0.4       1.7       0.9
 1 C  dz2             0.0       0.0       0.0       0.1       0.2       0.1
 1 C  dxy             0.0       0.2       0.3       0.0       0.1       0.0
 2 H  s               1.6       0.0       0.2       2.0       3.2       1.3
 3 C  s               0.0       0.0       0.0       0.1       0.0       0.1
 3 C  pz             15.6       0.6       0.8       7.2       1.3       1.5
 3 C  px              0.1       1.0       0.0       0.3       0.0      16.8
 3 C  py              0.5       0.0       0.1       0.9       1.4       0.3
 3 C  dz2             0.1       0.0       0.0       0.0       0.0       0.0
 3 C  dxz             0.0       0.0       0.0       0.2       0.0       0.0
 3 C  dyz             0.0       0.0       0.0       0.0       0.1       0.0
 3 C  dx2y2           0.0       0.0       0.0       0.0       0.0       0.4
 4 C  s               0.0       0.0       0.0       0.2       0.0       0.1
 4 C  pz             15.3       0.6       0.8       7.3       1.2       1.4
 4 C  px              0.0       1.0       0.0       0.3       0.0      16.8
 4 C  py              0.4       0.0       0.1       0.9       1.4       0.3
 4 C  dxz             0.0       0.0       0.0       0.2       0.0       0.0
 4 C  dyz             0.0       0.0       0.0       0.0       0.1       0.0
 4 C  dx2y2           0.0       0.0       0.0       0.0       0.0       0.4
 5 C  s               0.0       0.2       0.0       0.1       0.2       0.1
 5 C  pz              4.2       0.4       0.9       2.6       3.0       1.6
 5 C  px              0.1       0.7       6.0       1.1       0.3       1.4
 5 C  py              1.3       1.4       0.1       0.4       1.7       0.8
 5 C  dz2             0.0       0.0       0.0       0.1       0.2       0.1
 5 C  dxy             0.0       0.2       0.3       0.0       0.1       0.1
 6 H  s               1.6       0.0       0.3       1.9       3.2       1.3
 7 O  s               0.0       1.4       0.0       0.0       0.0       0.6
 7 O  pz              5.1       0.0      15.4       0.0       0.2       0.0
 7 O  px              1.3       0.0       0.7       0.0      12.3       0.0
 7 O  py              0.0       0.1       0.0       0.3       0.0      18.7
 7 O  dz2             0.0       0.5       0.0       0.6       0.0       0.1
 7 O  dyz             0.0       0.0       0.2       0.0       0.2       0.0
 7 O  dx2y2           0.0       1.2       0.0       0.0       0.0       0.0
 7 O  dxy             0.2       0.0       0.1       0.0       0.2       0.0
 8 C  pz              8.2       1.0       9.4      16.0       6.6       1.3
 8 C  px              1.4      13.0       6.4       0.1       3.5       0.3
 8 C  py              0.3      12.3       4.8       0.0       5.2       4.2
 8 C  dz2             0.0       0.0       0.1       0.3       0.2       0.1
 8 C  dxy             0.0       0.2       0.1       0.0       0.1       0.0
 9 H  s               0.7      12.9       2.7       0.7       8.0       0.2
 9 H  pz              0.0       0.0       0.2       0.1       0.0       0.0
 9 H  px              0.0       0.1       0.0       0.0       0.1       0.0
10 H  s               0.9       2.7       3.4       0.9       0.8       3.6
10 H  px              0.0       0.1       0.1       0.0       0.0       0.0
11 H  s               3.3       0.6       4.6       9.3       4.4       1.1
11 H  pz              0.1       0.0       0.1       0.1       0.1       0.0
12 H  s               1.3       0.3       0.5       3.3       1.9       4.3
13 H  s               6.7       0.1       0.4       3.0       0.5       0.0
13 H  pz              0.1       0.0       0.0       0.0       0.0       0.0
13 H  px              0.1       0.0       0.0       0.0       0.0       0.2
14 H  s               6.5       0.1       0.4       3.0       0.5       0.0
14 H  pz              0.1       0.0       0.0       0.0       0.0       0.0
14 H  px              0.1       0.0       0.0       0.0       0.0       0.2
15 H  s               1.3       0.3       0.5       3.4       1.8       4.3
16 H  s               1.0       2.9       3.3       0.9       0.9       3.6
16 H  px              0.0       0.1       0.1       0.0       0.0       0.0
17 H  s               0.8      13.0       2.5       0.7       8.1       0.1
17 H  pz              0.0       0.0       0.2       0.1       0.0       0.0
17 H  px              0.0       0.1       0.0       0.0       0.1       0.0
18 H  s               3.4       0.5       4.8       9.1       4.4       1.1
18 H  pz              0.1       0.0       0.1       0.1       0.1       0.0

                     24        25        26        27        28        29   
                  -0.29906  -0.29533  -0.27699  -0.20745   0.08097   0.09751
                   2.00000   2.00000   2.00000   2.00000   0.00000   0.00000
                  --------  --------  --------  --------  --------  --------
 0 C  s               0.4       0.1       0.2       0.7       3.2      11.4
 0 C  pz              1.3       0.8       0.0       0.5       0.3       0.0
 0 C  px              2.7       5.2       0.8       2.7       3.1       0.7
 0 C  py              1.1       4.1       2.0       0.1       0.4       0.4
 0 C  dz2             0.0       0.1       0.0       0.0       0.0       0.0
 0 C  dxz             0.0       0.1       0.0       0.0       0.3       0.0
 0 C  dx2y2           0.0       0.1       0.1       0.0       0.0       0.3
 0 C  dxy             0.0       0.0       0.0       0.1       0.3       0.0
 1 C  s               0.2       0.3       0.3       0.1       4.3       1.6
 1 C  pz              5.1       1.5       0.0       3.3       4.2       0.3
 1 C  px              1.8       5.2       0.1       0.5       3.3       4.9
 1 C  py              0.0       8.1       7.9       0.1       0.9       0.0
 1 C  dz2             0.3       0.0       0.0       0.9       0.1       0.0
 1 C  dxz             0.0       0.1       0.0       0.5       0.1       0.1
 1 C  dyz             0.0       0.0       0.0       0.1       0.0       0.0
 1 C  dx2y2           0.0       0.2       0.8       0.1       0.0       0.1
 1 C  dxy             0.1       0.0       0.0       0.0       0.4       0.6
 2 H  s               4.4       0.8       0.2       6.5       1.7       0.3
 2 H  pz              0.0       0.0       0.0       0.0       0.8       0.2
 2 H  px              0.0       0.1       0.0       0.0       0.2       0.2
 3 C  s               0.3       0.5       0.4       0.1       6.2       3.6
 3 C  pz             10.9       0.1       1.3       0.3       0.3       0.1
 3 C  px              4.7       0.2       2.7       0.1       0.9       8.3
 3 C  py              0.2      11.7       8.3       0.5       2.0       2.2
 3 C  dz2             0.4       0.0       0.0       0.0       0.2       0.1
 3 C  dxz             0.3       0.0       0.0       0.0       0.0       0.0
 3 C  dyz             0.1       0.1       0.0       0.0       0.3       0.1
 3 C  dx2y2           0.0       0.1       0.0       0.0       0.0       0.9
 3 C  dxy             0.0       0.2       0.0       0.0       0.6       0.0
 4 C  s               0.3       0.5       0.4       0.1       6.2       3.7
 4 C  pz             10.9       0.0       1.4       0.3       0.3       0.1
 4 C  px              4.7       0.2       2.7       0.1       0.9       8.3
 4 C  py              0.1      11.7       8.3       0.4       2.0       2.2
 4 C  dz2             0.4       0.0       0.0       0.0       0.2       0.1
 4 C  dxz             0.3       0.0       0.0       0.0       0.0       0.0
 4 C  dyz             0.1       0.1       0.0       0.0       0.3       0.1
 4 C  dx2y2           0.0       0.1       0.0       0.0       0.0       0.9
 4 C  dxy             0.0       0.2       0.0       0.0       0.6       0.0
 5 C  s               0.2       0.3       0.3       0.1       4.3       1.6
 5 C  pz              5.4       1.3       0.0       3.3       4.1       0.3
 5 C  px              1.5       5.5       0.1       0.5       3.3       5.0
 5 C  py              0.0       8.0       7.9       0.0       0.9       0.0
 5 C  dz2             0.3       0.0       0.0       0.9       0.1       0.0
 5 C  dxz             0.0       0.1       0.0       0.5       0.1       0.1
 5 C  dyz             0.0       0.0       0.0       0.1       0.0       0.0
 5 C  dx2y2           0.0       0.2       0.8       0.1       0.0       0.1
 5 C  dxy             0.1       0.0       0.0       0.0       0.4       0.6
 6 H  s               4.5       0.7       0.2       6.4       1.7       0.3
 6 H  pz              0.0       0.0       0.0       0.0       0.8       0.2
 6 H  px              0.0       0.1       0.0       0.0       0.2       0.2
 7 O  s               0.1       0.0       3.7       0.0       2.8       0.0
 7 O  pz              0.0       0.3       0.0      53.3       0.0       1.4
 7 O  px              0.0       0.6       0.0       9.4       0.0       1.2
 7 O  py              0.2       0.0      39.5       0.0       1.1       0.0
 7 O  dz2             1.4       0.0       0.1       0.0       0.8       0.0
 7 O  dxz             0.4       0.0       0.2       0.0       2.4       0.0
 7 O  dyz             0.0       0.0       0.0       0.3       0.0       2.0
 7 O  dx2y2           0.2       0.0       1.6       0.0       0.2       0.0
 7 O  dxy             0.0       0.7       0.0       0.0       0.0       3.2
 8 C  s               0.4       0.1       0.2       0.7       3.2      11.4
 8 C  pz              1.4       0.7       0.0       0.5       0.4       0.0
 8 C  px              2.3       5.5       0.7       2.7       3.1       0.7
 8 C  py              1.0       4.3       1.9       0.1       0.4       0.4
 8 C  dz2             0.0       0.1       0.0       0.0       0.0       0.0
 8 C  dxz             0.0       0.1       0.0       0.0       0.3       0.0
 8 C  dx2y2           0.0       0.1       0.1       0.0       0.0       0.3
 8 C  dxy             0.0       0.0       0.0       0.1       0.3       0.0
 9 H  s               0.0       0.3       0.1       0.4       2.1       0.9
 9 H  pz              0.0       0.0       0.0       0.0       0.1       0.1
 9 H  px              0.0       0.0       0.0       0.0       0.1       0.2
 9 H  py              0.0       0.1       0.0       0.0       0.3       0.6
10 H  s               0.3       3.9       1.4       0.1       0.4       2.5
10 H  pz              0.0       0.0       0.0       0.0       0.1       0.1
10 H  px              0.0       0.1       0.0       0.0       0.2       0.0
10 H  py              0.0       0.0       0.0       0.0       0.1       0.9
11 H  s               0.7       1.2       0.0       0.3       0.7       1.2
11 H  pz              0.0       0.0       0.0       0.0       0.2       0.7
11 H  px              0.0       0.0       0.0       0.0       0.2       0.0
12 H  s               1.8       3.0       0.0       0.0       3.6       0.4
12 H  pz              0.0       0.1       0.0       0.0       0.8       0.2
12 H  px              0.1       0.0       0.1       0.0       0.1       0.5
12 H  py              0.0       0.0       0.1       0.0       0.3       0.0
13 H  s              11.5       0.2       0.2       0.2       2.1       0.3
13 H  pz              0.1       0.0       0.0       0.0       0.9       0.1
13 H  px              0.0       0.0       0.0       0.0       0.0       0.5
13 H  py              0.0       0.1       0.1       0.0       0.0       0.2
14 H  s              11.6       0.1       0.2       0.2       2.1       0.3
14 H  pz              0.1       0.0       0.0       0.0       0.9       0.1
14 H  px              0.0       0.0       0.0       0.0       0.0       0.5
14 H  py              0.0       0.1       0.1       0.0       0.0       0.2
15 H  s               1.6       3.2       0.0       0.0       3.6       0.4
15 H  pz              0.0       0.1       0.0       0.0       0.8       0.2
15 H  px              0.1       0.0       0.1       0.0       0.1       0.5
15 H  py              0.0       0.0       0.1       0.0       0.3       0.0
16 H  s               0.2       4.0       1.4       0.1       0.4       2.5
16 H  pz              0.0       0.0       0.0       0.0       0.1       0.1
16 H  px              0.0       0.1       0.0       0.0       0.2       0.0
16 H  py              0.0       0.0       0.0       0.0       0.1       0.9
17 H  s               0.0       0.3       0.1       0.4       2.1       0.9
17 H  pz              0.0       0.0       0.0       0.0       0.1       0.1
17 H  px              0.0       0.0       0.0       0.0       0.1       0.2
17 H  py              0.0       0.1       0.0       0.0       0.3       0.6
18 H  s               0.8       1.1       0.0       0.3       0.7       1.2
18 H  pz              0.0       0.0       0.0       0.0       0.2       0.7
18 H  px              0.0       0.0       0.0       0.0       0.2       0.0

                     30        31        32        33        34        35   
                   0.10975   0.11479   0.12897   0.13678   0.13918   0.15396
                   0.00000   0.00000   0.00000   0.00000   0.00000   0.00000
                  --------  --------  --------  --------  --------  --------
 0 C  s               0.9       0.2       5.4       2.6      11.1       0.7
 0 C  pz              0.6       3.2       0.7       3.4       0.5       4.1
 0 C  px              1.3       1.1       0.6       2.2       8.7       3.3
 0 C  py              0.2       0.7       0.1       4.0       3.0       1.5
 0 C  dz2             0.1       0.0       0.4       0.6       0.0       0.5
 0 C  dxz             0.0       0.0       0.0       0.2       0.1       0.3
 0 C  dyz             0.0       0.0       0.0       0.2       0.0       0.3
 0 C  dx2y2           0.6       0.1       0.2       0.2       0.0       0.0
 0 C  dxy             0.3       0.1       0.0       0.1       0.3       0.3
 1 C  s               1.0       0.7       3.4       1.4       3.8       2.3
 1 C  pz              1.5       5.5       2.4       6.4       0.6       0.5
 1 C  px              2.9       0.3       4.4       5.0       1.4       3.4
 1 C  py             13.7       0.5       0.2       0.1       1.5       4.1
 1 C  dz2             0.0       0.7       0.1       0.2       0.1       0.0
 1 C  dxz             0.1       0.0       0.3       0.5       0.1       0.0
 1 C  dyz             0.6       0.4       0.0       0.1       0.0       0.1
 1 C  dx2y2           1.0       0.0       0.0       0.0       0.0       0.0
 1 C  dxy             0.5       0.0       0.2       0.0       0.2       0.8
 2 H  s               0.4       3.6       0.3       1.1       0.0       1.3
 2 H  pz              0.1       1.1       0.3       0.9       0.0       0.5
 2 H  px              0.1       0.0       0.4       0.6       0.2       0.0
 2 H  py              1.0       0.1       0.0       0.0       0.0       0.2
 3 C  s               4.1       0.7       4.4       1.0       0.7       1.5
 3 C  pz              0.0      11.1       0.1       0.7       0.8       2.4
 3 C  px              1.6       1.1       2.1       4.3       0.6       4.8
 3 C  py              1.5       1.1      11.3       1.5       7.4       2.8
 3 C  dz2             0.1       0.1       0.0       0.1       0.5       0.7
 3 C  dxz             0.0       0.9       0.0       0.2       0.0       0.6
 3 C  dyz             0.2       1.1       0.0       0.1       0.1       0.1
 3 C  dx2y2           0.0       0.2       1.0       0.1       0.3       0.3
 3 C  dxy             0.3       0.0       0.0       0.0       0.4       0.0
 4 C  s               4.0       0.6       4.5       0.9       0.8       1.5
 4 C  pz              0.0      11.2       0.1       0.8       0.8       2.4
 4 C  px              1.7       1.1       2.0       4.5       0.7       4.8
 4 C  py              1.5       1.0      11.5       1.0       7.8       2.9
 4 C  dz2             0.1       0.1       0.0       0.0       0.6       0.7
 4 C  dxz             0.0       0.9       0.0       0.2       0.0       0.6
[...]
 4 C  pz              3.3       0.1       4.6       0.1       0.0       0.0
 4 C  px              3.7       0.4       0.0       0.1       0.2       0.0
 4 C  py              0.0       2.6       1.8       0.0       0.1       0.0
 4 C  dz2             8.4       2.7       0.2       0.1       0.0       0.0
 4 C  dxz             2.8       0.0       2.9       0.0       0.0       0.0
 4 C  dyz             0.4       0.7       6.6       0.0       0.1       0.0
 4 C  dx2y2           0.6       0.0       0.1       0.0       0.2       0.0
 4 C  dxy             0.0       0.6       1.2       0.1       0.1       0.0
 5 C  s               0.1       1.1       0.1       1.1       0.5       3.2
 5 C  pz              0.4       4.6       1.8       1.2       0.6       0.0
 5 C  px              0.1       0.3       0.1       3.1       3.4       0.0
 5 C  py              0.0       0.4       0.1       0.7       1.7       0.0
 5 C  dz2             0.3       7.3       2.5       1.9       1.4       0.0
 5 C  dxz             0.2       0.2       0.4       1.1       1.2       0.0
 5 C  dyz             0.0       0.0       0.0       0.3       0.9       0.0
 5 C  dx2y2           0.0       0.1       0.0       0.3       0.4       0.0
 5 C  dxy             0.0       0.9       0.5       2.6       4.8       0.0
 6 H  s               0.2       3.3       1.2       0.5       0.3       0.0
 6 H  pz              0.5       8.6       2.8       0.6       0.3       0.0
 6 H  px              0.0       0.1       0.0       0.2       0.2       0.0
 7 O  s               0.0       0.0       1.6      35.1       0.0       0.0
 7 O  pz              0.1       0.3       0.0       0.0       4.7       0.0
 7 O  px              0.1       0.1       0.0       0.0      27.9       0.0
 7 O  py              0.0       0.0       0.1      16.0       0.0       0.0
 7 O  dz2             0.0       0.0       0.0       9.0       0.0       0.0
 7 O  dxz             0.0       0.0       0.0       9.2       0.0       0.0
 7 O  dyz             0.0       0.1       0.0       0.0       4.9       0.0
 7 O  dx2y2           0.0       0.0       0.1       1.7       0.0       0.0
 7 O  dxy             0.0       0.3       0.0       0.0      28.0       0.0
 8 C  s               0.0       0.4       0.1       0.0       0.0      32.9
 8 C  pz              0.7       1.0       0.1       0.1       0.0       0.0
 8 C  px              0.0       0.6       0.3       0.0       0.1       0.0
 8 C  py              0.5       0.1       0.0       0.0       0.0       0.0
 8 C  dz2             1.9       2.8       0.5       0.0       0.0       0.0
 8 C  dxz             0.0       0.3       0.2       0.1       0.1       0.0
 8 C  dyz             0.1       0.0       0.0       0.0       0.0       0.0
 8 C  dx2y2           0.2       0.1       0.0       0.0       0.0       0.0
 8 C  dxy             0.2       0.2       0.3       0.1       0.2       0.0
 9 H  px              0.1       0.0       0.1       0.0       0.1       0.0
 9 H  py              0.0       0.0       0.1       0.0       0.0       0.0
10 H  s               0.8       0.0       0.0       0.0       0.0       0.0
10 H  pz              0.1       0.0       0.0       0.0       0.0       0.0
10 H  px              0.0       0.1       0.0       0.0       0.0       0.0
10 H  py              1.7       0.0       0.0       0.0       0.0       0.0
11 H  s               0.5       1.0       0.1       0.0       0.0       0.0
11 H  pz              1.0       2.7       0.4       0.0       0.0       0.0
12 H  s               0.4       0.8       4.4       0.0       0.0       0.0
12 H  pz              0.2       1.1       2.0       0.0       0.0       0.0
12 H  px              0.7       0.4       2.3       0.0       0.0       0.0
12 H  py              0.2       0.5       6.0       0.0       0.0       0.0
13 H  s               5.0       0.3       1.9       0.0       0.0       0.0
13 H  pz             11.8       1.3       2.8       0.0       0.0       0.0
13 H  px              1.7       0.1       0.6       0.0       0.0       0.0
13 H  py              0.6       0.0       0.1       0.0       0.0       0.0
14 H  s               4.5       0.4       1.9       0.0       0.0       0.0
14 H  pz             10.8       1.4       2.8       0.0       0.0       0.0
14 H  px              1.4       0.1       0.6       0.1       0.0       0.0
14 H  py              0.5       0.0       0.1       0.0       0.0       0.0
15 H  s               0.3       0.7       4.6       0.0       0.0       0.0
15 H  pz              0.1       1.0       2.1       0.0       0.0       0.0
15 H  px              0.6       0.4       2.4       0.0       0.0       0.0
15 H  py              0.1       0.4       6.2       0.0       0.0       0.0
16 H  s               0.6       0.0       0.0       0.0       0.0       0.0
16 H  px              0.0       0.1       0.0       0.0       0.0       0.0
16 H  py              1.3       0.0       0.0       0.0       0.0       0.0
17 H  py              0.0       0.0       0.1       0.0       0.0       0.0
18 H  s               0.7       0.9       0.2       0.0       0.0       0.0
18 H  pz              1.7       2.5       0.5       0.0       0.0       0.0

                    192       193       194       195       196       197   
                  21.95791  22.01432  22.06729  22.10006  22.15371  43.82402
                   0.00000   0.00000   0.00000   0.00000   0.00000   0.00000
                  --------  --------  --------  --------  --------  --------
 0 C  s              44.1      13.4       2.3       0.3       0.7       0.0
 1 C  s               0.8       4.1       0.4      42.2      49.0       0.0
 3 C  s               2.0      32.0      47.4       6.8       0.3       0.0
 4 C  s               2.9      31.9      47.1       7.4       0.2       0.0
 5 C  s               0.5       4.1       0.5      42.8      48.7       0.0
 7 O  s               0.0       0.0       0.0       0.1       0.0      99.9
 8 C  s              49.4      14.0       2.2       0.3       0.8       0.0



                      *****************************
                      * MAYER POPULATION ANALYSIS *
                      *****************************

  NA   - Mulliken gross atomic population
  ZA   - Total nuclear charge
  QA   - Mulliken gross atomic charge
  VA   - Mayer's total valence
  BVA  - Mayer's bonded valence
  FA   - Mayer's free valence

  ATOM       NA         ZA         QA         VA         BVA        FA
  0 C      6.4970     6.0000    -0.4970     3.9218     3.9218     0.0000
  1 C      5.9469     6.0000     0.0531     3.5019     3.5019     0.0000
  2 H      0.8643     1.0000     0.1357     0.9490     0.9490     0.0000
  3 C      6.3324     6.0000    -0.3324     3.6676     3.6676     0.0000
  4 C      6.3326     6.0000    -0.3326     3.6677     3.6677     0.0000
  5 C      5.9471     6.0000     0.0529     3.5045     3.5045     0.0000
  6 H      0.8641     1.0000     0.1359     0.9490     0.9490     0.0000
  7 O      8.2508     8.0000    -0.2508     1.6584     1.6584     0.0000
  8 C      6.4970     6.0000    -0.4970     3.9218     3.9218     0.0000
  9 H      0.8588     1.0000     0.1412     0.9644     0.9644    -0.0000
 10 H      0.8450     1.0000     0.1550     0.9603     0.9603     0.0000
 11 H      0.8504     1.0000     0.1496     0.9647     0.9647     0.0000
 12 H      0.8445     1.0000     0.1555     0.9649     0.9649     0.0000
 13 H      0.8351     1.0000     0.1649     0.9608     0.9608     0.0000
 14 H      0.8351     1.0000     0.1649     0.9608     0.9608     0.0000
 15 H      0.8445     1.0000     0.1555     0.9648     0.9648     0.0000
 16 H      0.8449     1.0000     0.1551     0.9603     0.9603     0.0000
 17 H      0.8588     1.0000     0.1412     0.9644     0.9644     0.0000
 18 H      0.8507     1.0000     0.1493     0.9647     0.9647     0.0000

  Mayer bond orders larger than 0.100000
B(  0-C ,  1-C ) :   0.9510 B(  0-C ,  9-H ) :   0.9739 B(  0-C , 10-H ) :   0.9712 
B(  0-C , 11-H ) :   0.9865 B(  1-C ,  2-H ) :   0.9108 B(  1-C ,  3-C ) :   0.9258 
B(  1-C ,  7-O ) :   0.8235 B(  3-C ,  4-C ) :   0.8699 B(  3-C , 12-H ) :   0.9672 
B(  3-C , 13-H ) :   0.9989 B(  4-C ,  5-C ) :   0.9261 B(  4-C , 14-H ) :   0.9991 
B(  4-C , 15-H ) :   0.9668 B(  5-C ,  6-H ) :   0.9107 B(  5-C ,  7-O ) :   0.8259 
B(  5-C ,  8-C ) :   0.9521 B(  8-C , 16-H ) :   0.9713 B(  8-C , 17-H ) :   0.9738 
B(  8-C , 18-H ) :   0.9864 

-------
TIMINGS
-------

Total SCF time: 0 days 0 hours 0 min 14 sec 

Total time                  ....      14.828 sec
Sum of individual times     ....      14.793 sec  ( 99.8%)

SCF preparation             ....       0.573 sec  (  3.9%)
Fock matrix formation       ....      12.547 sec  ( 84.6%)
  Startup                   ....       0.006 sec  (  0.0% of F)
  Split-RI-J                ....       2.472 sec  ( 19.7% of F)
  XC integration            ....       9.963 sec  ( 79.4% of F)
    XC Preparation          ....       0.000 sec  (  0.0% of XC)
    Basis function eval.    ....       1.857 sec  ( 18.6% of XC)
    Density eval.           ....       3.289 sec  ( 33.0% of XC)
    XC-Functional eval.     ....       1.198 sec  ( 12.0% of XC)
    XC-Potential eval.      ....       3.295 sec  ( 33.1% of XC)
Diagonalization             ....       0.000 sec  (  0.0%)
Density matrix formation    ....       0.040 sec  (  0.3%)
Total Energy calculation    ....       0.003 sec  (  0.0%)
Population analysis         ....       1.477 sec  ( 10.0%)
Orbital Transformation      ....       0.019 sec  (  0.1%)
Orbital Orthonormalization  ....       0.000 sec  (  0.0%)
DIIS solution               ....       0.126 sec  (  0.8%)
  MO trafo                  ....       0.000 sec  (  0.0 % of DIIS)
  Orb grad                  ....       0.000 sec  (  0.0 % of DIIS)
  Energy W gradient         ....       0.000 sec  (  0.0 % of DIIS)
  DIIS error                ....       0.013 sec  ( 10.2 % of DIIS)
  DIIS work                 ....       0.101 sec  ( 80.4 % of DIIS)
  Form Q                    ....       0.000 sec  (  0.0 % of DIIS)
  Form QpQm                 ....       0.000 sec  (  0.0 % of DIIS)
  Exp/Cayley                ....       0.000 sec  (  0.0 % of DIIS)
  Orb update                ....       0.000 sec  (  0.0 % of DIIS)
  Wake-sleep                ....       0.002 sec  (  1.5 % of DIIS)
SOSCF solution              ....       0.009 sec  (  0.1%)
  MO trafo                  ....       0.009 sec  ( 99.6 % of SOSCF)
  Orb grad                  ....       0.000 sec  (  0.0 % of SOSCF)
  Rot update                ....       0.000 sec  (  0.0 % of SOSCF)
  Step                      ....       0.000 sec  (  0.0 % of SOSCF)
Finished LeanSCF after  16.2 sec

Maximum memory used throughout the entire LEANSCF-calculation: 22.4 MB


-------------------------------------------------------------------------------
                          DFT DISPERSION CORRECTION                            
                                                                               
                                DFTD4 V3.4.0                                   
-------------------------------------------------------------------------------
The R2SCAN3C composite method is recognized
Using three-body term ABC
Active option DFTDOPT                   ...         5   

-------------------------   ----------------
Dispersion correction           -0.004973740
-------------------------   ----------------

------------------   -----------------
gCP correction             0.010053746
------------------   -----------------

-------------------------   --------------------
FINAL SINGLE POINT ENERGY      -310.996846595750
-------------------------   --------------------


------------------------------------------------------------------------------
                              ORCA PROPERTY CALCULATIONS
------------------------------------------------------------------------------

GBWName                                 ... sp.gbw
Number of atoms                         ...     19
Number of basis functions               ...    198
Max core memory                         ...   1024 MB

Electric properties:
Dipole moment                           ... YES
Quadrupole moment                       ...  NO
Static polarizability (Dipole/Dipole)   ...  NO
Static polarizability (Dipole/Quad.)    ...  NO
Static polarizability (Quad./Quad.)     ...  NO
Static polarizability (Velocity)        ...  NO

Atomic electric properties:
Dipole moment                           ...  NO
Quadrupole moment                       ...  NO
Static polarizability                   ...  NO

Choice of electric origin               ... Center of mass
Position of electric origin             ...    -0.000000     0.000011     0.000000

General magnetic properties:
Magnetizability                         ...  NO

EPR properties:
g-Tensor (aka g-matrix)                 ...  NO
Zero-Field splitting spin-orbit         ...  NO
Zero-field splitting spin-spin          ...  NO
Hyperfine couplings                     ...  NO (   0 nuclei)
Quadrupole couplings                    ...  NO (   0 nuclei)
Contact density                         ...  NO (   0 nuclei)

NMR properties:
Chemical shifts                         ...  NO (   0 nuclei)
Spin-rotation constants                 ...  NO (   0 nuclei)
Spin-spin couplings                     ...  NO (   0 nuclei,    0 pairs)

Choice of magnetic origin               ... GIAO
Position of magnetic origin             ...     0.000000     0.000000     0.000000

Properties with geometric perturbations:
SCF Hessian                             ...  NO
IR spectrum                             ...  NO
VCD spectrum                            ...  NO
X-ray spectroscopy properties:
SCF XES/XAS/RIXS spectra                ...  NO


-------------
DIPOLE MOMENT
-------------

Method             : SCF
Type of density    : Electron Density
Multiplicity       :   1
Irrep              :   0
Energy             :  -311.0019266025424258 Eh
Relativity type    : 
Basis              : AO
                                X                 Y                 Z
Electronic contribution:      0.000790276      -1.248597949      -0.027210131
Nuclear contribution   :     -0.001056856       1.854642981       0.030878586
                        -----------------------------------------
Total Dipole Moment    :     -0.000266581       0.606045032       0.003668455
                        -----------------------------------------
Magnitude (a.u.)       :      0.606056194
Magnitude (Debye)      :      1.540472421



--------------------
Rotational spectrum 
--------------------
 
Rotational constants in cm-1:             0.166838             0.067623             0.052917 
Rotational constants in MHz :          5001.667307          2027.289088          1586.412387 

Dipole components along the rotational axes: 
x,y,z [a.u.] :     0.000857     0.606042     0.004092 
x,y,z [Debye]:     0.002178     1.540436     0.010402 

 

Dipole moment calculation done in   0.6 sec 

Maximum memory used throughout the entire PROP-calculation: 13.0 MB

--------------------------------
SUGGESTED CITATIONS FOR THIS RUN
--------------------------------

Below you find a list of papers that are relevant to this ORCA run
We neither can nor want to force you to cite these papers, but we appreciate if you do
You receive ORCA, which is the product of decades of hard work by many enthusiastic individuals, for free
The only thing we kindly ask in return is that you cite our papers,
We deeply appreciate it, if you show your appreciation for ORCA by not just citing the generic ORCA reference.

Please note that relegating all ORCA citations to the supporting information does *not* help us.
SI sections are not indexed - citations you put there will not count into any citation statistics
But we need these citations in order to attract the funding resources that allow us to do what we are doing

Therefore, if you are a happy ORCA user, please consider citing a few of the papers listed below in the main body of your paper

In addition to the list printed below, the program has created the file sp.bibtex that contains the list in bibtex format
You can import this file easily into all common literature databanks and citation aid programs


List of essential papers. We consider these as the minimum necessary citations

  1. Neese,F.
     Software update: the ORCA program system, version 5.0
     WIRES Comput. Molec. Sci., 2022 12(1)e1606
     doi.org/10.1002/wcms.1606
  2. Grimme,S.; Hansen,A.; Ehlert,S.; Mewes,J.
     r2SCAN-3c: A 'Swiss army knife' composite electronic-structure method
     J. Chem. Phys., 2021 154 064103
     doi.org/10.1063/5.0040021

List of papers to cite with high priority. The work reported in these papers was absolutely
necessary for this run to complete.
Our perspective: the developers of density functionals and basis sets usually get cited in chemistry papers
Good! But without the algorithms to do something with them, the functionals or basis sets would not do anything.
Hence, in our opinion, the algorithm design and method developments papers are equally worthy of getting cited

  1. Neese,F.
     An improvement of the resolution of the identity approximation for the formation of the Coulomb matrix
     J. Comp. Chem., 2003 24(14)1740-1747
     doi.org/10.1002/jcc.10318
  2. Neese,F.
     The SHARK Integral Generation and Digestion System
     J. Comp. Chem., 2022  1-16
     doi.org/10.1002/jcc.26942
  3. Lehtola,S.; Steigemann,C.; Oliveira,M.; Marques,M.
     Recent developments in Libxc - A comprehensive library of functionals for density functional theory
     Software X, 2018 7 
     doi.org/10.1016/j.softx.2017.11.002
  4. Caldeweyher,E.; Bannwarth,C.; Grimme,S.
     Extension of the D3 dispersion coefficient model
     J. Chem. Phys., 2017 147 034112
     doi.org/10.1063/1.4993215
  5. Caldeweyher,E.; Ehlert,S.; Hansen,A.; Neugebauer,H.; Spicher,S.; Bannwarth,C.; Grimme,S.
     A generally applicable atomic-charge dependent London dispersion correction
     J. Chem. Phys., 2019 150 154122
     doi.org/10.1063/1.5090222
  6. Caldeweyher,E.; Mewes,J.; Ehlert,S.; Grimme,S.
     Extension and evaluation of the D4 London-dispersion model for periodic systems
     Phys. Chem. Chem. Phys., 2020 22(16)8499-8512
     doi.org/10.1039/D0CP00502A
  7. Wittmann,L.; Gordiy,I.; Friede,M.; Helmich-Paris,B.; Grimme,S.; Hansen,A.; Bursch,M.
     Extension of the D3 and D4 London Dispersion Corrections to the full Actinides Series
     Phys. Chem. Chem. Phys., 2024 26(32)21379-21394
     doi.org/https://doi.org/10.1039/D4CP01514B 

List of suggested additional citations. These are papers that are important in the 'surrounding' of 
of this run, or papers that preceded the highly important papers. If you like your results we are grateful for a citation.

  1. Neese,F.
     The ORCA program system
     WIRES Comput. Molec. Sci., 2012 2(1)73-78
     doi.org/10.1002/wcms.81
  2. Neese,F.
     Software update: the ORCA program system, version 4.0
     WIRES Comput. Molec. Sci., 2018 8(1)1-6
     doi.org/10.1002/wcms.1327
  3. Neese,F.; Wennmohs,F.; Becker,U.; Riplinger,C.
     The ORCA quantum chemistry program package
     J. Chem. Phys., 2020 152 Art. No. L224108
     doi.org/10.1063/5.0004608

List of optional additional citations

  1. Neese,F.
     Approximate second-order SCF convergence for spin unrestricted wavefunctions
     Chem. Phys. Lett., 2000 325(1-3)93-98
     doi.org/10.1016/s0009-2614(00)00662-x

Timings for individual modules:

Sum of individual times          ...       17.998 sec (=   0.300 min)
Startup calculation              ...        1.109 sec (=   0.018 min)   6.2 %
SCF iterations                   ...       16.275 sec (=   0.271 min)  90.4 %
Property calculations            ...        0.614 sec (=   0.010 min)   3.4 %
                             ****ORCA TERMINATED NORMALLY****
TOTAL RUN TIME: 0 days 0 hours 0 minutes 19 seconds 769 msec
