
                                 *****************
                                 * O   R   C   A *
                                 *****************

                                            #,                                       
                                            ###                                      
                                            ####                                     
                                            #####                                    
                                            ######                                   
                                           ########,                                 
                                     ,,################,,,,,                         
                               ,,#################################,,                 
                          ,,##########################################,,             
                       ,#########################################, ''#####,          
                    ,#############################################,,   '####,        
                  ,##################################################,,,,####,       
                ,###########''''           ''''###############################       
              ,#####''   ,,,,##########,,,,          '''####'''          '####       
            ,##' ,,,,###########################,,,                        '##       
           ' ,,###''''                  '''############,,,                           
         ,,##''                                '''############,,,,        ,,,,,,###''
      ,#''                                            '''#######################'''  
     '                                                          ''''####''''         
             ,#######,   #######,   ,#######,      ##                                
            ,#'     '#,  ##    ##  ,#'     '#,    #''#        ,####,   ,####,        
            ##       ##  ##   ,#'  ##            #'  '#       #'       #'  '#        
            ##       ##  #######   ##           ,######,      #####,   #    #        
            '#,     ,#'  ##    ##  '#,     ,#' ,#      #,     #,   #   #,  ,#        
             '#######'   ##     ##  '#######'  #'      '#     '####' # '####'        



                #########################################################
                #                        -***-                          #
                #          Department of theory and spectroscopy        #
                #                                                       #
                #                      Frank Neese                      #
                #                                                       #
                #     Directorship, Architecture, Infrastructure        #
                #                    SHARK, DRIVERS                     #
                #        Core code/Algorithms in most modules           #
                #                                                       #
                #        Max Planck Institute fuer Kohlenforschung      #
                #                Kaiser Wilhelm Platz 1                 #
                #                 D-45470 Muelheim/Ruhr                 #
                #                      Germany                          #
                #                                                       #
                #                  All rights reserved                  #
                #                        -***-                          #
                #########################################################


                         Program Version 6.0.1  -  RELEASE   -


 With contributions from (in alphabetic order):
[Max-Planck-Institut fuer Kohlenforschung]                               
  Daniel Aravena         : Magnetic Suceptibility                        
  Michael Atanasov       : Ab Initio Ligand Field Theory (pilot matlab implementation)
  Alexander A. Auer      : GIAO ZORA, VPT2 properties, NMR spectrum      
  Ute Becker             : All parallelization in ORCA, NUMFREQ, NUMCALC 
  Giovanni Bistoni       : ED, misc. LED, open-shell LED, HFLD           
  Martin Brehm           : Molecular dynamics                            
  Dmytro Bykov           : pre 5.0 version of the SCF Hessian            
  Marcos Casanova-Páez   : Triplet and SCS-CIS(D). UHF-(DLPNO)-IP/EA/STEOM-CCSD. UHF-CVS-IP/STEOM-CCSD   
  Vijay G. Chilkuri      : MRCI spin determinant printing, contributions to CSF-ICE 
  Pauline Colinet        : FMM embedding                                 
  Dipayan Datta          : RHF DLPNO-CCSD density                        
  Achintya Kumar Dutta   : EOM-CC, STEOM-CC                              
  Nicolas Foglia         : Exact transition moments, OPA infrastructure, MCD improvements    
  Dmitry Ganyushin       : Spin-Orbit,Spin-Spin,Magnetic field MRCI      
  Miquel Garcia-Rates    : C-PCM and meta-GGA Hessian, CCSD/C-PCM, Gaussian charge scheme 
  Tiago L. C. Gouveia    : GS-ROHF, GS-ROCIS                             
  Yang Guo               : DLPNO-NEVPT2, F12-NEVPT2, CIM, IAO-localization        
  Andreas Hansen         : Spin unrestricted coupled pair/coupled cluster methods 
  Ingolf Harden          : AUTO-CI MPn and infrastructure                
  Benjamin Helmich-Paris : MC-RPA, TRAH-(SCF,CASSCF), AVAS, COSX integrals, SCF dyn. polar. 
  Lee Huntington         : MR-EOM, pCC                                   
  Robert Izsak           : Overlap fitted RIJCOSX, COSX-SCS-MP3, EOM     
  Riya Kayal             : Wick's Theorem for AUTO-CI, AUTO-CI UHF-CCSDT 
  Emily Kempfer          : AUTO-CI, RHF CISDT and CCSDT                  
  Christian Kollmar      : KDIIS, OOCD, Brueckner-CCSD(T), CCSD density, CASPT2, CASPT2-K, improved NEVPT2 
  Axel Koslowski         : Symmetry handling                             
  Simone Kossmann        : meta-GGA functionals, TD-DFT gradient, OOMP2, (MP2 Hessian; deprecated post 5.0) 
  Lucas Lang             : DCDCAS                                        
  Marvin Lechner         : AUTO-CI (C++ implementation), FIC-MRCC        
  Spencer Leger          : CASSCF response                               
  Dagmar Lenk            : GEPOL surface, SMD, ORCA-2-JSON               
  Dimitrios Liakos       : Extrapolation schemes; Compound Job, initial MDCI parallelization 
  Dimitrios Manganas     : Further ROCIS development; embedding schemes. LFT, Crystal Embedding 
  Dimitrios Pantazis     : SARC Basis sets                               
  Anastasios Papadopoulos: AUTO-CI, single reference methods and gradients 
  Taras Petrenko         : pre 6.0 DFT Hessian and TD-DFT gradient, (ASA, deprecated), ECA, 1-Electron XAS/XES, NRVS 
  Peter Pinski           : DLPNO-MP2, DLPNO-MP2 Gradient                 
  Christoph Reimann      : Effective Core Potentials                     
  Marius Retegan         : Local ZFS, SOC                                
  Christoph Riplinger    : Optimizer, TS searches, QM/MM, DLPNO-CCSD(T), (RO)-DLPNO pert. Triples 
  Michael Roemelt        : Original ROCIS implementation                 
  Masaaki Saitow         : Open-shell DLPNO-CCSD energy and density      
  Barbara Sandhoefer     : DKH picture change effects                    
  Kantharuban Sivalingam : CASSCF convergence/infrastructure, NEVPT2 and variants, FIC-MRCI 
  Bernardo de Souza      : ESD, SOC TD-DFT                               
  Georgi L. Stoychev     : AutoAux, RI-MP2 NMR, DLPNO-MP2 response, X2C  
  Van Anh Tran           : RI-MP2 g-tensors                              
  Willem Van den Heuvel  : Paramagnetic NMR                              
  Zikuan Wang            : NOTCH, Electric field optimization            
  Frank Wennmohs         : Technical directorship and infrastructure     
  Hang Xu                : AUTO-CI-Response properties                   
                                                                         
[FACCTs GmbH]                                                            
  Markus Bursch, Miquel Garcia-Rates, Christoph Riplinger, Bernardo de Souza, Georgi L. Stoychev 
                                                                 
  APM, Basis sets (HGBS, AHGBS, def-TZVP (Ac-Lr), def2-XVPD (La-Lu)), CI-OPT, improved COSX, DLPNO-Multilevel,           
  DOCKER, DRACO, updates on ESD, GOAT, IRC, LR-CPCM, MBIS, meta-GGA TD-DFT gradient, ML-optimized integration grids, 
  MM, NACMEs, nearIR, NEB, NEB-TS, NL-DFT gradient (VV10), 2- and 3-layer-ONIOM, interface openCOSMO-RS, QMMM,   
  Crystal-QMMM, SF, symmetry and pop. for TD-DFT, r2SCAN hybrids, SOLVATOR                                   
                                                                         
[Other institutions]                                                     
  V. Asgeirsson          : NEB                                           
  Christoph Bannwarth    : sTDA-DFT, sTD-DFT, PBEh-3c, B97-3c, D3        
  Sebastian Ehlert       : rSCAN, r2SCAN, r2SCAN-3c, D4, dhf basis sets  
  Marvin Friede          : D4 for Fr, Ra, Ac-Lr                          
  Lars Goerigk           : TD-DFT with DH, B97 family of functionals     
  Stefan Grimme          : VdW corrections, initial TS optimization, DFT functionals, gCP, sTDA/sTD-DF 
  Waldemar Hujo          : DFT-NL                                        
  H. Jonsson             : NEB                                           
  Holger Kruse           : gCP                                           
  Marcel Mueller         : wB97X-3c, vDZP basis set                      
  Hagen Neugebauer       : wr2SCAN                                       
  Tobias Risthaus        : range-separated hybrid DFT                    
  Lukas Wittmann         : regularized MP2, r2SCAN double-hybrids, wr2SCAN        
                                                                         
We gratefully acknowledge several colleagues who have allowed us to      
interface, adapt or use parts of their codes:                            
  Ed Valeev, F. Pavosevic, A. Kumar             : LibInt (2-el integral package), F12 methods 
  Garnet Chan, S. Sharma, J. Yang, R. Olivares  : DMRG                   
  Ulf Ekstrom                                   : XCFun DFT Library      
  Mihaly Kallay                                 : mrcc  (arbitrary order and MRCC methods)
  Frank Weinhold                                : gennbo (NPA and NBO analysis)           
  Simon Mueller                                 : openCOSMO-RS                            
  Christopher J. Cramer and Donald G. Truhlar   : smd solvation model                     
  S Lehtola, MJT Oliveira, MAL Marques          : LibXC Library                           
  Liviu Ungur et al                             : ANISO software                          


 Your calculation uses the libint2 library for the computation of 2-el integrals
 For citations please refer to: http://libint.valeyev.net

 Your ORCA version has been built with support for libXC version: 6.2.2
 For citations please refer to: https://libxc.gitlab.io

 This ORCA versions uses:
   CBLAS   interface :  Fast vector & matrix operations
   LAPACKE interface :  Fast linear algebra routines
   SCALAPACK package :  Parallel linear algebra routines
   Shared memory     :  Shared parallel matrices
   BLAS/LAPACK       :  OpenBLAS 0.3.27  USE64BITINT DYNAMIC_ARCH NO_AFFINITY Zen SINGLE_THREADED
        Core in use  :  Zen
   Copyright (c) 2011-2014, The OpenBLAS Project


Your calculation utilizes the geometrical counterpoise correction gCP
Please cite in your paper:
H.Kruse, S. Grimme J.Chem.Phys., 136, (2012), 154101 
   

Your calculation utilizes the atom-pairwise dispersion correction
based on EEQ partial charges (D4)


================================================================================

----- Orbital basis set information -----
Your calculation utilizes the basis: def2-mTZVPP
   Stefan Grimme, Andreas Hansen, Sebastian Ehlert, and Jan-Michael Mewes 
   J. Chem. Phys. 154, 064103 (2021). DOI: 10.1063/5.0040021

----- AuxJ basis set information -----
Your calculation utilizes the auxiliary basis: def2/J
   F. Weigend, Phys. Chem. Chem. Phys. 8, 1057 (2006).

================================================================================
                                        WARNINGS
                       Please study these warnings very carefully!
================================================================================



WARNING: SCAN, rSCAN, or r2SCAN functional requested.
  ===> : libXC variant has now been activated.



================================================================================
                                       INPUT FILE
================================================================================
NAME = sp.inp
|  1> ! r2scan-3c def2/J RI DEFGRID2 scfconv6 printgap
|  2> %output
|  3>     printlevel normal
|  4> end
|  5> * xyz 0 1
|  6> C 0.7163049478 -1.1918935052 0.2643171089
|  7> C -0.7164176303 -1.191894752 -0.2643633571
|  8> N -1.3869167008 -1.76106e-05 0.2236411465
|  9> C -0.7163538899 1.191871809 -0.2642800897
| 10> C 0.7164352999 1.1919339678 0.2642655288
| 11> N 1.3869496103 -8.8276e-06 -0.223587386
| 12> H 1.2496025069 -2.0712953174 -0.103258603
| 13> H 0.681054722 -1.2290248563 1.3667304443
| 14> H -0.6811437579 -1.2288893851 -1.3667930677
| 15> H -1.2497832634 -2.071309382 0.1030933739
| 16> H -2.358661078 -1.32038e-05 -0.0714868851
| 17> H -0.6811909623 1.2290442056 -1.3667060381
| 18> H -1.2496275839 2.0712680017 0.103338033
| 19> H 1.2497655771 2.0712890199 -0.1034091006
| 20> H 0.6812688074 1.2291256784 1.3666890899
| 21> H 2.3586303631 -3.61286e-05 0.0717803
| 22> *
| 23> 
| 24>                          ****END OF INPUT****
================================================================================

                       ****************************
                       * Single Point Calculation *
                       ****************************

---------------------------------
CARTESIAN COORDINATES (ANGSTROEM)
---------------------------------
  C      0.716305   -1.191894    0.264317
  C     -0.716418   -1.191895   -0.264363
  N     -1.386917   -0.000018    0.223641
  C     -0.716354    1.191872   -0.264280
  C      0.716435    1.191934    0.264266
  N      1.386950   -0.000009   -0.223587
  H      1.249603   -2.071295   -0.103259
  H      0.681055   -1.229025    1.366730
  H     -0.681144   -1.228889   -1.366793
  H     -1.249783   -2.071309    0.103093
  H     -2.358661   -0.000013   -0.071487
  H     -0.681191    1.229044   -1.366706
  H     -1.249628    2.071268    0.103338
  H      1.249766    2.071289   -0.103409
  H      0.681269    1.229126    1.366689
  H      2.358630   -0.000036    0.071780

----------------------------
CARTESIAN COORDINATES (A.U.)
----------------------------
  NO LB      ZA    FRAG     MASS         X           Y           Z
   0 C     6.0000    0    12.011    1.353620   -2.252352    0.499487
   1 C     6.0000    0    12.011   -1.353833   -2.252355   -0.499574
   2 N     7.0000    0    14.007   -2.620893   -0.000033    0.422621
   3 C     6.0000    0    12.011   -1.353713    2.252311   -0.499417
   4 C     6.0000    0    12.011    1.353867    2.252429    0.499389
   5 N     7.0000    0    14.007    2.620955   -0.000017   -0.422519
   6 H     1.0000    0     1.008    2.361407   -3.914181   -0.195130
   7 H     1.0000    0     1.008    1.287007   -2.322520    2.582746
   8 H     1.0000    0     1.008   -1.287175   -2.322264   -2.582865
   9 H     1.0000    0     1.008   -2.361748   -3.914207    0.194818
  10 H     1.0000    0     1.008   -4.457223   -0.000025   -0.135091
  11 H     1.0000    0     1.008   -1.287264    2.322557   -2.582700
  12 H     1.0000    0     1.008   -2.361454    3.914129    0.195281
  13 H     1.0000    0     1.008    2.361715    3.914169   -0.195415
  14 H     1.0000    0     1.008    1.287411    2.322711    2.582668
  15 H     1.0000    0     1.008    4.457165   -0.000068    0.135645

--------------------------------
INTERNAL COORDINATES (ANGSTROEM)
--------------------------------
 C      0   0   0     0.000000000000     0.00000000     0.00000000
 C      1   0   0     1.527153240814     0.00000000     0.00000000
 N      2   1   0     1.451994669159   108.47390075     0.00000000
 C      3   2   1     1.452006199936   110.34115110    61.29945472
 C      4   3   2     1.527169059766   108.48230578   298.70225198
 N      5   4   3     1.452004660611   108.47737989    60.11907342
 H      1   2   3     1.092183930399   109.97331050   180.98572699
 H      1   2   3     1.103601593747   108.41202175    61.96676086
 H      2   1   3     1.103614115425   108.41090497   122.09008495
 H      2   1   3     1.092187456066   109.97918735   241.11204155
 H      3   2   1     1.015572592026   110.13196547   183.09694055
 H      4   3   2     1.103612790000   112.21194935    58.45012326
 H      4   3   2     1.092182027221   108.80435600   179.08107207
 H      5   4   3     1.092195552699   109.97782356   179.00574977
 H      5   4   3     1.103611169570   108.41082492   298.02725953
 H      6   5   4     1.015581388191   110.12862884   176.92282975

---------------------------
INTERNAL COORDINATES (A.U.)
---------------------------
 C      0   0   0     0.000000000000     0.00000000     0.00000000
 C      1   0   0     2.885901389669     0.00000000     0.00000000
 N      2   1   0     2.743872272625   108.47390075     0.00000000
 C      3   2   1     2.743894062634   110.34115110    61.29945472
 C      4   3   2     2.885931283156   108.48230578   298.70225198
 N      5   4   3     2.743891153732   108.47737989    60.11907342
 H      1   2   3     2.063928516324   109.97331050   180.98572699
 H      1   2   3     2.085504773141   108.41202175    61.96676086
 H      2   1   3     2.085528435684   108.41090497   122.09008495
 H      2   1   3     2.063935178868   109.97918735   241.11204155
 H      3   2   1     1.919154068047   110.13196547   183.09694055
 H      4   3   2     2.085525930993   112.21194935    58.45012326
 H      4   3   2     2.063924919839   108.80435600   179.08107207
 H      5   4   3     2.063950479289   109.97782356   179.00574977
 H      5   4   3     2.085522868825   108.41082492   298.02725953
 H      6   5   4     1.919170690389   110.12862884   176.92282975

---------------------
BASIS SET INFORMATION
---------------------
There are 3 groups of distinct atoms

 Group   1 Type C   : 11s6p1d contracted to 5s3p1d pattern {62111/411/1}
 Group   2 Type N   : 11s6p2d contracted to 5s3p2d pattern {62111/411/11}
 Group   3 Type H   : 4s1p contracted to 2s1p pattern {31/1}

Atom   0C    basis set group =>   1
Atom   1C    basis set group =>   1
Atom   2N    basis set group =>   2
Atom   3C    basis set group =>   1
Atom   4C    basis set group =>   1
Atom   5N    basis set group =>   2
Atom   6H    basis set group =>   3
Atom   7H    basis set group =>   3
Atom   8H    basis set group =>   3
Atom   9H    basis set group =>   3
Atom  10H    basis set group =>   3
Atom  11H    basis set group =>   3
Atom  12H    basis set group =>   3
Atom  13H    basis set group =>   3
Atom  14H    basis set group =>   3
Atom  15H    basis set group =>   3
---------------------------------
AUXILIARY/J BASIS SET INFORMATION
---------------------------------
There are 3 groups of distinct atoms

 Group   1 Type C   : 12s5p4d2f1g contracted to 6s4p3d1f1g pattern {711111/2111/211/2/1}
 Group   2 Type N   : 12s5p4d2f1g contracted to 6s4p3d1f1g pattern {711111/2111/211/2/1}
 Group   3 Type H   : 5s2p1d contracted to 3s1p1d pattern {311/2/1}

Atom   0C    basis set group =>   1
Atom   1C    basis set group =>   1
Atom   2N    basis set group =>   2
Atom   3C    basis set group =>   1
Atom   4C    basis set group =>   1
Atom   5N    basis set group =>   2
Atom   6H    basis set group =>   3
Atom   7H    basis set group =>   3
Atom   8H    basis set group =>   3
Atom   9H    basis set group =>   3
Atom  10H    basis set group =>   3
Atom  11H    basis set group =>   3
Atom  12H    basis set group =>   3
Atom  13H    basis set group =>   3
Atom  14H    basis set group =>   3
Atom  15H    basis set group =>   3

Checking for AutoStart:
The File: sp.gbw exists
Trying to determine its content:
     ... Fine, the file contains calculation information
     ... Fine, the calculation information was read
     ... Fine, the file contains a basis set
     ... Fine, the basis set was read
     ... Fine, the file contains a geometry
     ... Fine, the geometry was read
     ... Fine, the file contains a set of orbitals
     ... Fine, the orbitals can be read
     => possible old guess file was deleted
     => GBW file was renamed to GES file
     => GES file is set as startup file
     => Guess is set to MORead
     ... now leaving AutoStart

------------------------------------------------------------------------------
                             ORCA STARTUP CALCULATIONS
                           -- RI-GTO INTEGRALS CHOSEN --
------------------------------------------------------------------------------
------------------------------------------------------------------------------
                   ___                                                        
                  /   \      - P O W E R E D   B Y -                         
                 /     \                                                     
                 |  |  |   _    _      __       _____    __    __             
                 |  |  |  | |  | |    /  \     |  _  \  |  |  /  |          
                  \  \/   | |  | |   /    \    | | | |  |  | /  /          
                 / \  \   | |__| |  /  /\  \   | |_| |  |  |/  /          
                |  |  |   |  __  | /  /__\  \  |    /   |      \           
                |  |  |   | |  | | |   __   |  |    \   |  |\   \          
                \     /   | |  | | |  |  |  |  | |\  \  |  | \   \       
                 \___/    |_|  |_| |__|  |__|  |_| \__\ |__|  \__/        
                                                                              
                      - O R C A' S   B I G   F R I E N D -                    
                                      &                                       
                       - I N T E G R A L  F E E D E R -                       
                                                                              
 v1 FN, 2020, v2 2021, v3 2022-2024                                           
------------------------------------------------------------------------------


----------------------
SHARK INTEGRAL PACKAGE
----------------------

Number of atoms                             ...     16
Number of basis functions                   ...    174
Number of shells                            ...     86
Maximum angular momentum                    ...      2
Integral batch strategy                     ... SHARK/LIBINT Hybrid
RI-J (if used) integral strategy            ... SPLIT-RIJ (Revised 2003 algorithm where possible)
Printlevel                                  ...      1
Contraction scheme used                     ... SEGMENTED contraction
Prescreening option                         ... SCHWARTZ
   Thresh                                   ... 1.000e-10
   Tcut                                     ... 1.000e-11
   Tpresel                                  ... 1.000e-11 
Coulomb Range Separation                    ... NOT USED
Exchange Range Separation                   ... NOT USED
Multipole approximations                    ... NOT USED
Finite Nucleus Model                        ... NOT USED
CABS basis                                  ... NOT available
Auxiliary Coulomb fitting basis             ... AVAILABLE
   # of basis functions in Aux-J            ...    404
   # of shells in Aux-J                     ...    140
   Maximum angular momentum in Aux-J        ...      4
Auxiliary J/K fitting basis                 ... NOT available
Auxiliary Correlation fitting basis         ... NOT available
Auxiliary 'external' fitting basis          ... NOT available

Checking pre-screening integrals            ... done (  0.0 sec) Dimension = 86
Check shell pair data                       ... done (  0.0 sec)
Shell pair information
Shell pair cut-off parameter TPreSel        ...   1.0e-11
Total number of shell pairs                 ...      3741
Shell pairs after pre-screening             ...      3609
Total number of primitive shell pairs       ...     13042
Primitive shell pairs kept                  ...      9493
          la=0 lb=0:   1206 shell pairs
          la=1 lb=0:   1348 shell pairs
          la=1 lb=1:    397 shell pairs
          la=2 lb=0:    398 shell pairs
          la=2 lb=1:    224 shell pairs
          la=2 lb=2:     36 shell pairs

Calculating one electron integrals          ... done (  0.0 sec)
Calculating RI/J V-Matrix + Cholesky decomp.... done (  0.0 sec)
Calculating Nuclear repulsion               ... done (  0.0 sec) ENN=    263.832698731191 Eh

Diagonalization of the overlap matrix:
Smallest eigenvalue                        ... 6.449e-05
Time for diagonalization                   ...    0.004 sec
Threshold for overlap eigenvalues          ... 1.000e-07
Number of eigenvalues below threshold      ... 0
Time for construction of square roots      ...    0.004 sec
Total time needed                          ...    0.009 sec

-------------------
DFT GRID GENERATION
-------------------

General Integration Accuracy     IntAcc      ... 4.388
Radial Grid Type                 RadialGrid  ... OptM3 with GC (2021)
Angular Grid (max. ang.)         AngularGrid ... 4 (Lebedev-302)
Angular grid pruning method      GridPruning ... 4 (adaptive)
Weight generation scheme         WeightScheme... mBecke (2022)
Basis function cutoff            BFCut       ... 1.0000e-10
Integration weight cutoff        WCut        ... 1.0000e-14
Partially contracted basis set               ... off
Rotationally invariant grid construction     ... off
Angular grids for H and He will be reduced by one unit

Total number of grid points                  ...    68044
Total number of batches                      ...     1073
Average number of points per batch           ...       63
Average number of grid points per atom       ...     4253
Initializing property integral containers    ... done (  0.0 sec)

SHARK setup successfully completed in   1.0 seconds

Maximum memory used throughout the entire STARTUP-calculation: 30.2 MB
-------------------------------------------------------------------------------
                                 ORCA GUESS
                   Start orbitals & Density for SCF / CASSCF
-------------------------------------------------------------------------------

------------
SCF SETTINGS
------------
Hamiltonian:
 Density Functional     Method          .... DFT(GTOs)
  Functional kind                       .... Exchange
  Functional name                       .... Re-regularized SCAN exchange by Furness et al
  Functional family                     .... MGGA
  Functional refs                              
    [ 0] J. W. Furness, A. D. Kaplan, J. Ning, J. P. Perdew, and J. Sun.,  J. Phys. Chem. Lett. 11, 8208-8215 (2020), doi: 10.1021/acs.jpclett.0c02405
    [ 1] J. W. Furness, A. D. Kaplan, J. Ning, J. P. Perdew, and J. Sun.,  J. Phys. Chem. Lett. 11, 9248-9248 (2020), doi: 10.1021/acs.jpclett.0c03077
  Functional external parameters        .... 6
    Parameter  0 _c1        =  6.670000e-01 : c1 parameter        
    Parameter  1 _c2        =  8.000000e-01 : c2 parameter        
    Parameter  2 _d         =  1.240000e+00 : d parameter         
    Parameter  3 _k1        =  6.500000e-02 : k1 parameter        
    Parameter  4 _eta       =  1.000000e-03 : eta parameter       
    Parameter  5 _dp2       =  3.610000e-01 : dp2 parameter       
  Functional kind                       .... Correlation
  Functional name                       .... Re-regularized SCAN correlation by Furness et al
  Functional family                     .... MGGA
  Functional refs                              
    [ 0] J. W. Furness, A. D. Kaplan, J. Ning, J. P. Perdew, and J. Sun.,  J. Phys. Chem. Lett. 11, 8208-8215 (2020), doi: 10.1021/acs.jpclett.0c02405
    [ 1] J. W. Furness, A. D. Kaplan, J. Ning, J. P. Perdew, and J. Sun.,  J. Phys. Chem. Lett. 11, 9248-9248 (2020), doi: 10.1021/acs.jpclett.0c03077
  Functional external parameters        .... 1
    Parameter  0 _eta       =  1.000000e-03 : Regularization parameter
 Gradients option       PostSCFGGA      .... off
 RI-approximation to the Coulomb term is turned on
   Number of AuxJ basis functions       .... 404


General Settings:
 Integral files         IntName         .... sp
 Hartree-Fock type      HFTyp           .... RHF
 Total Charge           Charge          ....    0
 Multiplicity           Mult            ....    1
 Number of Electrons    NEL             ....   48
 Basis Dimension        Dim             ....  174
 Nuclear Repulsion      ENuc            ....    263.8326987312 Eh

Convergence Acceleration:
 AO-DIIS                CNVDIIS         .... on
   Start iteration      DIISMaxIt       ....    12
   Startup error        DIISStart       ....  0.200000
   # of expansion vecs  DIISMaxEq       ....     5
   Bias factor          DIISBfac        ....   1.050
   Max. coefficient     DIISMaxC        ....  10.000
 MO-DIIS                CNVKDIIS        .... off
 Trust-Rad. Augm. Hess. CNVTRAH         .... auto
   Auto Start mean grad. ratio tolernc. ....  1.125000
   Auto Start start iteration           ....     1
   Auto Start num. interpolation iter.  ....    10
   Max. Number of Micro iterations      ....    24
   Max. Number of Macro iterations      .... Maxiter - #DIIS iter
   Number of Davidson start vectors     ....     2
   Converg. threshold    (grad. norm)   ....   3.330e-04
   Grad. Scal. Fac. for Micro threshold ....   0.100
   Minimum threshold for Micro iter.    ....   1.000e-02
   NR start threshold (gradient norm)   ....   1.000e-04
   Initial trust radius                 ....   0.400
   Minimum AH scaling param. (alpha)    ....   1.000
   Maximum AH scaling param. (alpha)    .... 1000.000
   Quad. conv. algorithm                .... NR
   White noise on init. David. guess    .... on
   Maximum white noise                  ....   0.010
   Pseudo random numbers                .... off
   Inactive MOs                         .... canonical
   Orbital update algorithm             .... Taylor
   Preconditioner                       .... Diag
   Full preconditioner red. dimension   ....   250
   COSX micro iterations for RIJONX calc.... off
 SOSCF                  CNVSOSCF        .... on
   Start iteration      SOSCFMaxIt      ....   150
   Startup grad/error   SOSCFStart      ....  0.003300
   Hessian update       SOSCFHessUp     .... L-BFGS
 Level Shifting         CNVShift        .... on
   Level shift para.    LevelShift      ....    0.2500
   Turn off err/grad.   ShiftErr        ....    0.0010
 Zerner damping         CNVZerner       .... off
 Static damping         CNVDamp         .... on
   Fraction old density DampFac         ....    0.7000
   Max. Damping (<1)    DampMax         ....    0.9800
   Min. Damping (>=0)   DampMin         ....    0.0000
   Turn off err/grad.   DampErr         ....    0.1000

SCF Procedure:
 Maximum # iterations   MaxIter         ....   125
 SCF integral mode      SCFMode         .... Direct
   Integral package                     .... SHARK and LIBINT hybrid scheme
 Reset frequency        DirectResetFreq ....    20
 Integral Threshold     Thresh          ....  1.000e-10 Eh
 Primitive CutOff       TCut            ....  1.000e-11 Eh

Convergence Tolerance:
 Convergence Check Mode ConvCheckMode   .... Total+1el-Energy
 Convergence forced     ConvForced      .... 0
 Energy Change          TolE            ....  1.000e-06 Eh
 1-El. energy change                    ....  1.000e-03 Eh
 Orbital Gradient       TolG            ....  3.330e-04
 Orbital Rotation angle TolX            ....  3.330e-04
 DIIS Error             TolErr          ....  1.000e-06

---------------------
INITIAL GUESS: MOREAD
---------------------
Guess MOs are being read from file: sp.ges
Input Geometry matches current geometry (good)
Atom 0: N(Shells)= 9 and 6 - projection required
Input basis set needs projection
NBasis(read)= 104
NBasis(calc)= 174
Basis set overlap was calculated
Using GuessMode=FMatrix for the initial guess
C*T matrix was formed
Effective Fockian was calculated
Effective Fockian was diagonalized
Initial density was built
                      ------------------
                      INITIAL GUESS DONE (   0.0 sec)
                      ------------------
             **** ENERGY FILE WAS UPDATED (sp.en.tmp) ****
Finished Guess after   0.1 sec
Maximum memory used throughout the entire GUESS-calculation: 12.7 MB

-------------------------------------------------------------------------------------------
                                      ORCA LEAN-SCF
                              memory conserving SCF solver
-------------------------------------------------------------------------------------------

----------------------------------------D-I-I-S--------------------------------------------
Iteration    Energy (Eh)           Delta-E    RMSDP     MaxDP     DIISErr   Damp  Time(sec)
-------------------------------------------------------------------------------------------
               ***  Starting incremental Fock matrix formation  ***
    1    -267.7039545220413856     0.00e+00  8.58e-03  2.67e-01  4.35e-01  0.700   2.1
    2    -267.7491434681165856    -4.52e-02  6.48e-03  1.83e-01  3.06e-01  0.700   1.9
    3    -267.7811998269864944    -3.21e-02  4.61e-03  1.25e-01  2.14e-01  0.700   2.0
                               ***Turning on AO-DIIS***
    4    -267.8037206021051588    -2.25e-02  3.27e-03  8.58e-02  1.50e-01  0.700   1.8
    5    -267.8195227736465540    -1.58e-02  2.30e-03  5.94e-02  1.05e-01  0.700   1.8
    6    -267.8306067897968887    -1.11e-02  1.62e-03  4.13e-02  7.34e-02  0.700   1.8
    7    -267.8383775125791999    -7.77e-03  3.78e-03  9.60e-02  5.14e-02  0.000   1.5
                              *** Initializing SOSCF ***
---------------------------------------S-O-S-C-F--------------------------------------
Iteration    Energy (Eh)           Delta-E    RMSDP     MaxDP     MaxGrad    Time(sec)
--------------------------------------------------------------------------------------
    8    -267.8565478611135404    -1.82e-02  2.07e-05  3.39e-04  2.32e-04     1.2
               *** Restarting incremental Fock matrix formation ***
    9    -267.8565480080775387    -1.47e-07  1.17e-05  2.03e-04  7.23e-05     1.3
                  *** Gradient check signals convergence ***

               *****************************************************
               *                     SUCCESS                       *
               *           SCF CONVERGED AFTER   9 CYCLES          *
               *****************************************************

             **** ENERGY FILE WAS UPDATED (sp.en.tmp) ****

----------------
TOTAL SCF ENERGY
----------------

Total Energy       :       -267.85654800807754 Eh           -7288.74722 eV

Components:
Nuclear Repulsion  :        263.83269873119127 Eh            7179.25272 eV
Electronic Energy  :       -531.68924673926881 Eh          -14467.99994 eV
One Electron Energy:       -884.10262014792772 Eh          -24057.65536 eV
Two Electron Energy:        352.41337340865897 Eh            9589.65542 eV

Virial components:
Potential Energy   :       -534.53805708947789 Eh          -14545.52001 eV
Kinetic Energy     :        266.68150908140041 Eh            7256.77279 eV
Virial Ratio       :          2.00440615073285

DFT components:
N(Alpha)           :       23.999998569189 electrons
N(Beta)            :       23.999998569189 electrons
N(Total)           :       47.999997138378 electrons
E(X)               :      -37.703860478884 Eh       
E(C)               :       -1.530271746132 Eh       
E(XC)              :      -39.234132225016 Eh       

---------------
SCF CONVERGENCE
---------------

  Last Energy change         ...    1.4696e-07  Tolerance :   1.0000e-06
  Last MAX-Density change    ...    2.0302e-04  Tolerance :   1.0000e-05
  Last RMS-Density change    ...    1.1663e-05  Tolerance :   1.0000e-06
  Last DIIS Error            ...    2.3200e-04  Tolerance :   1.0000e-06
  Last Orbital Gradient      ...    7.2311e-05  Tolerance :   3.3300e-04
  Last Orbital Rotation      ...    1.2890e-04  Tolerance :   3.3300e-04


----------------
ORBITAL ENERGIES
----------------

  NO   OCC          E(Eh)            E(eV) 
   0   2.0000     -14.139774      -384.7628 
   1   2.0000     -14.139772      -384.7627 
   2   2.0000     -10.045654      -273.3561 
   3   2.0000     -10.045650      -273.3560 
   4   2.0000     -10.045521      -273.3525 
   5   2.0000     -10.045518      -273.3524 
   6   2.0000      -0.896532       -24.3959 
   7   2.0000      -0.841849       -22.9079 
   8   2.0000      -0.720371       -19.6023 
   9   2.0000      -0.633638       -17.2422 
  10   2.0000      -0.594574       -16.1792 
  11   2.0000      -0.517091       -14.0708 
  12   2.0000      -0.492601       -13.4043 
  13   2.0000      -0.435243       -11.8436 
  14   2.0000      -0.419470       -11.4144 
  15   2.0000      -0.406359       -11.0576 
  16   2.0000      -0.393553       -10.7091 
  17   2.0000      -0.373421       -10.1613 
  18   2.0000      -0.351653        -9.5690 
  19   2.0000      -0.311866        -8.4863 
  20   2.0000      -0.300402        -8.1743 
  21   2.0000      -0.292497        -7.9593 
  22   2.0000      -0.194229        -5.2853 
  23   2.0000      -0.189687        -5.1617 
  24   0.0000       0.066120         1.7992 
  25   0.0000       0.086631         2.3573 
  26   0.0000       0.113774         3.0959 
  27   0.0000       0.126880         3.4526 
  28   0.0000       0.136986         3.7276 
  29   0.0000       0.137464         3.7406 
  30   0.0000       0.154937         4.2160 
  31   0.0000       0.167501         4.5579 
  32   0.0000       0.175119         4.7652 
  33   0.0000       0.176626         4.8062 
  34   0.0000       0.182177         4.9573 
*Only the first 10 virtual orbitals were printed.

                    ********************************
                    * MULLIKEN POPULATION ANALYSIS *
                    ********************************

-----------------------
MULLIKEN ATOMIC CHARGES
-----------------------
   0 C :   -0.214046
   1 C :   -0.214041
   2 N :   -0.340351
   3 C :   -0.214085
   4 C :   -0.214023
   5 N :   -0.340391
   6 H :    0.135828
   7 H :    0.135943
   8 H :    0.135945
   9 H :    0.135826
  10 H :    0.224923
  11 H :    0.135944
  12 H :    0.135830
  13 H :    0.135830
  14 H :    0.135935
  15 H :    0.224934
Sum of atomic charges:    0.0000000

--------------------------------
MULLIKEN REDUCED ORBITAL CHARGES
--------------------------------
  0 C s       :     3.251369  s :     3.251369
      pz      :     1.040297  p :     2.913580
      px      :     0.941200
      py      :     0.932083
      dz2     :     0.013309  d :     0.049097
      dxz     :     0.006875
      dyz     :     0.008209
      dx2y2   :     0.009542
      dxy     :     0.011162

  1 C s       :     3.251347  s :     3.251347
      pz      :     1.040283  p :     2.913594
      px      :     0.941213
      py      :     0.932097
      dz2     :     0.013311  d :     0.049100
      dxz     :     0.006874
      dyz     :     0.008209
      dx2y2   :     0.009543
      dxy     :     0.011163

  2 N s       :     3.466696  s :     3.466696
      pz      :     1.686083  p :     3.813439
      px      :     1.133343
      py      :     0.994012
      dz2     :     0.002516  d :     0.060217
      dxz     :     0.014885
      dyz     :     0.015068
      dx2y2   :     0.017792
      dxy     :     0.009957

  3 C s       :     3.251390  s :     3.251390
      pz      :     1.040315  p :     2.913597
      px      :     0.941201
      py      :     0.932081
      dz2     :     0.013310  d :     0.049099
      dxz     :     0.006873
      dyz     :     0.008210
      dx2y2   :     0.009543
      dxy     :     0.011162

  4 C s       :     3.251354  s :     3.251354
      pz      :     1.040313  p :     2.913570
      px      :     0.941190
      py      :     0.932067
      dz2     :     0.013309  d :     0.049099
      dxz     :     0.006873
      dyz     :     0.008211
      dx2y2   :     0.009544
      dxy     :     0.011162

  5 N s       :     3.466711  s :     3.466711
      pz      :     1.686074  p :     3.813458
      px      :     1.133372
      py      :     0.994012
      dz2     :     0.002515  d :     0.060222
      dxz     :     0.014887
      dyz     :     0.015071
      dx2y2   :     0.017790
      dxy     :     0.009958

  6 H s       :     0.846604  s :     0.846604
      pz      :     0.004214  p :     0.017568
      px      :     0.005036
      py      :     0.008317

  7 H s       :     0.846873  s :     0.846873
      pz      :     0.011225  p :     0.017184
      px      :     0.003190
      py      :     0.002769

  8 H s       :     0.846872  s :     0.846872
      pz      :     0.011224  p :     0.017183
      px      :     0.003190
      py      :     0.002769

  9 H s       :     0.846606  s :     0.846606
      pz      :     0.004213  p :     0.017568
      px      :     0.005037
      py      :     0.008318

 10 H s       :     0.743852  s :     0.743852
      pz      :     0.010345  p :     0.031225
      px      :     0.016272
      py      :     0.004608

 11 H s       :     0.846873  s :     0.846873
      pz      :     0.011224  p :     0.017184
      px      :     0.003190
      py      :     0.002769

 12 H s       :     0.846602  s :     0.846602
      pz      :     0.004214  p :     0.017568
      px      :     0.005036
      py      :     0.008317

 13 H s       :     0.846603  s :     0.846603
      pz      :     0.004214  p :     0.017567
      px      :     0.005036
      py      :     0.008317

 14 H s       :     0.846882  s :     0.846882
      pz      :     0.011224  p :     0.017184
      px      :     0.003190
      py      :     0.002769

 15 H s       :     0.743842  s :     0.743842
      pz      :     0.010345  p :     0.031224
      px      :     0.016270
      py      :     0.004609


------------------------
MULLIKEN OVERLAP CHARGES
------------------------
B(  0-C ,  1-C ) :   0.5837 B(  0-C ,  2-N ) :  -0.1918 B(  0-C ,  4-C ) :  -0.2453 
B(  0-C ,  5-N ) :   0.5676 B(  0-C ,  6-H ) :   0.7712 B(  0-C ,  7-H ) :   0.8858 
B(  0-C ,  8-H ) :  -0.0945 B(  0-C , 15-H ) :  -0.0564 B(  1-C ,  2-N ) :   0.5675 
B(  1-C ,  3-C ) :  -0.2454 B(  1-C ,  5-N ) :  -0.1917 B(  1-C ,  7-H ) :  -0.0945 
B(  1-C ,  8-H ) :   0.8858 B(  1-C ,  9-H ) :   0.7711 B(  1-C , 10-H ) :  -0.0564 
B(  2-N ,  3-C ) :   0.5676 B(  2-N ,  4-C ) :  -0.1918 B(  2-N ,  5-N ) :  -0.0508 
B(  2-N ,  8-H ) :  -0.1215 B(  2-N ,  9-H ) :  -0.0986 B(  2-N , 10-H ) :   0.6389 
B(  2-N , 11-H ) :  -0.1215 B(  2-N , 12-H ) :  -0.0986 B(  3-C ,  4-C ) :   0.5836 
B(  3-C ,  5-N ) :  -0.1918 B(  3-C , 10-H ) :  -0.0564 B(  3-C , 11-H ) :   0.8859 
B(  3-C , 12-H ) :   0.7712 B(  3-C , 14-H ) :  -0.0945 B(  4-C ,  5-N ) :   0.5675 
B(  4-C , 11-H ) :  -0.0945 B(  4-C , 13-H ) :   0.7712 B(  4-C , 14-H ) :   0.8858 
B(  4-C , 15-H ) :  -0.0564 B(  5-N ,  6-H ) :  -0.0986 B(  5-N ,  7-H ) :  -0.1215 
B(  5-N , 13-H ) :  -0.0986 B(  5-N , 14-H ) :  -0.1215 B(  5-N , 15-H ) :   0.6389 
B(  6-H ,  7-H ) :  -0.0532 B(  8-H ,  9-H ) :  -0.0532 B( 11-H , 12-H ) :  -0.0532 
B( 13-H , 14-H ) :  -0.0532 


                     *******************************
                     * LOEWDIN POPULATION ANALYSIS *
                     *******************************

----------------------
LOEWDIN ATOMIC CHARGES
----------------------
   0 C :   -0.040218
   1 C :   -0.040222
   2 N :   -0.837358
   3 C :   -0.040221
   4 C :   -0.040225
   5 N :   -0.837354
   6 H :    0.174589
   7 H :    0.160290
   8 H :    0.160291
   9 H :    0.174592
  10 H :    0.248040
  11 H :    0.160285
  12 H :    0.174591
  13 H :    0.174594
  14 H :    0.160284
  15 H :    0.248041

-------------------------------
LOEWDIN REDUCED ORBITAL CHARGES
-------------------------------
  0 C s       :     2.862601  s :     2.862601
      pz      :     1.067426  p :     3.067548
      px      :     0.999499
      py      :     1.000624
      dz2     :     0.031502  d :     0.110069
      dxz     :     0.013668
      dyz     :     0.018258
      dx2y2   :     0.021782
      dxy     :     0.024858

  1 C s       :     2.862598  s :     2.862598
      pz      :     1.067415  p :     3.067550
      px      :     0.999499
      py      :     1.000636
      dz2     :     0.031507  d :     0.110075
      dxz     :     0.013668
      dyz     :     0.018258
      dx2y2   :     0.021783
      dxy     :     0.024859

  2 N s       :     3.202556  s :     3.202556
      pz      :     1.697998  p :     4.103705
      px      :     1.205096
      py      :     1.200611
      dz2     :     0.087475  d :     0.531097
      dxz     :     0.048473
      dyz     :     0.102580
      dx2y2   :     0.172413
      dxy     :     0.120155

  3 C s       :     2.862596  s :     2.862596
      pz      :     1.067425  p :     3.067553
      px      :     0.999499
      py      :     1.000628
      dz2     :     0.031504  d :     0.110073
      dxz     :     0.013665
      dyz     :     0.018262
      dx2y2   :     0.021784
      dxy     :     0.024857

  4 C s       :     2.862604  s :     2.862604
      pz      :     1.067428  p :     3.067549
      px      :     0.999497
      py      :     1.000624
      dz2     :     0.031502  d :     0.110072
      dxz     :     0.013665
      dyz     :     0.018263
      dx2y2   :     0.021785
      dxy     :     0.024857

  5 N s       :     3.202584  s :     3.202584
      pz      :     1.697993  p :     4.103691
      px      :     1.205094
      py      :     1.200603
      dz2     :     0.087459  d :     0.531080
      dxz     :     0.048484
      dyz     :     0.102577
      dx2y2   :     0.172406
      dxy     :     0.120153

  6 H s       :     0.785443  s :     0.785443
      pz      :     0.009904  p :     0.039968
      px      :     0.012466
      py      :     0.017598

  7 H s       :     0.798813  s :     0.798813
      pz      :     0.026894  p :     0.040897
      px      :     0.007356
      py      :     0.006647

  8 H s       :     0.798813  s :     0.798813
      pz      :     0.026894  p :     0.040896
      px      :     0.007356
      py      :     0.006646

  9 H s       :     0.785441  s :     0.785441
      pz      :     0.009903  p :     0.039967
      px      :     0.012466
      py      :     0.017598

 10 H s       :     0.667189  s :     0.667189
      pz      :     0.028304  p :     0.084770
      px      :     0.044625
      py      :     0.011841

 11 H s       :     0.798819  s :     0.798819
      pz      :     0.026894  p :     0.040896
      px      :     0.007356
      py      :     0.006647

 12 H s       :     0.785440  s :     0.785440
      pz      :     0.009905  p :     0.039968
      px      :     0.012465
      py      :     0.017598

 13 H s       :     0.785439  s :     0.785439
      pz      :     0.009905  p :     0.039967
      px      :     0.012466
      py      :     0.017596

 14 H s       :     0.798819  s :     0.798819
      pz      :     0.026894  p :     0.040896
      px      :     0.007356
      py      :     0.006647

 15 H s       :     0.667191  s :     0.667191
      pz      :     0.028307  p :     0.084768
      px      :     0.044620
      py      :     0.011841


---------------------------------
LOEWDIN BOND ORDERS (THRESH 0.050000)
---------------------------------
B(  0-C ,  1-C ) :   0.9709 B(  0-C ,  2-N ) :   0.1522 B(  0-C ,  4-C ) :   0.0703 
B(  0-C ,  5-N ) :   1.3600 B(  0-C ,  6-H ) :   0.8308 B(  0-C ,  7-H ) :   0.8220 
B(  1-C ,  2-N ) :   1.3600 B(  1-C ,  3-C ) :   0.0703 B(  1-C ,  5-N ) :   0.1521 
B(  1-C ,  8-H ) :   0.8220 B(  1-C ,  9-H ) :   0.8308 B(  2-N ,  3-C ) :   1.3600 
B(  2-N ,  4-C ) :   0.1521 B(  2-N ,  5-N ) :   0.0571 B(  2-N ,  8-H ) :   0.1058 
B(  2-N ,  9-H ) :   0.0930 B(  2-N , 10-H ) :   0.9014 B(  2-N , 11-H ) :   0.1058 
B(  2-N , 12-H ) :   0.0930 B(  3-C ,  4-C ) :   0.9709 B(  3-C ,  5-N ) :   0.1521 
B(  3-C , 11-H ) :   0.8220 B(  3-C , 12-H ) :   0.8308 B(  4-C ,  5-N ) :   1.3600 
B(  4-C , 13-H ) :   0.8308 B(  4-C , 14-H ) :   0.8220 B(  5-N ,  6-H ) :   0.0930 
B(  5-N ,  7-H ) :   0.1058 B(  5-N , 13-H ) :   0.0930 B(  5-N , 14-H ) :   0.1058 
B(  5-N , 15-H ) :   0.9014 

------------------------------------------
LOEWDIN REDUCED ORBITAL POPULATIONS PER MO
-------------------------------------------
THRESHOLD FOR PRINTING IS 0.1%%
                      0         1         2         3         4         5   
                 -14.13977 -14.13977 -10.04565 -10.04565 -10.04552 -10.04552
                   2.00000   2.00000   2.00000   2.00000   2.00000   2.00000
                  --------  --------  --------  --------  --------  --------
 0 C  s               0.0       0.0       8.3      40.2       5.7      45.2
 1 C  s               0.0       0.0       8.7      42.1       5.4      43.2
 2 N  s              62.2      37.6       0.0       0.0       0.0       0.0
 2 N  dxy             0.0       0.0       0.1       0.0       0.1       0.0
 3 C  s               0.0       0.0      41.2       8.6      44.1       5.5
 4 C  s               0.0       0.0      41.1       8.6      44.2       5.6
 5 N  s              37.6      62.2       0.0       0.0       0.0       0.0
 5 N  dxy             0.0       0.0       0.1       0.0       0.1       0.0

                      6         7         8         9        10        11   
                  -0.89653  -0.84185  -0.72037  -0.63364  -0.59457  -0.51709
                   2.00000   2.00000   2.00000   2.00000   2.00000   2.00000
                  --------  --------  --------  --------  --------  --------
 0 C  s               8.1       3.2      12.2       5.2       7.3       4.3
 0 C  pz              0.4       0.1       0.2       0.0       0.1       6.0
 0 C  px              0.1       3.3       0.9       4.6       4.1       0.3
 0 C  py              2.8       2.1       0.7       1.9       0.3       0.7
 0 C  dxy             0.1       0.1       0.0       0.1       0.0       0.1
 1 C  s               8.1       3.2      12.2       5.2       7.3       4.3
 1 C  pz              0.4       0.1       0.2       0.0       0.1       6.0
 1 C  px              0.1       3.3       0.9       4.6       4.1       0.3
 1 C  py              2.8       2.1       0.7       1.9       0.3       0.7
 1 C  dxy             0.1       0.1       0.0       0.1       0.0       0.1
 2 N  s              18.6      24.2       0.0       7.4       0.0       2.9
 2 N  pz              1.0       1.0       0.0       0.2       0.0       2.5
 2 N  px              0.8       0.0       0.0       6.4       0.0       2.4
 2 N  py              0.0       0.0       9.2       0.0      13.2       0.0
 2 N  dz2             0.4       0.0       0.0       0.3       0.0       0.1
 2 N  dxz             0.1       0.0       0.0       0.2       0.0       0.9
 2 N  dyz             0.0       0.0       0.7       0.0       1.0       0.0
 2 N  dx2y2           0.0       0.2       0.0       0.3       0.0       1.5
 2 N  dxy             0.0       0.0       2.4       0.0       0.3       0.0
 3 C  s               8.1       3.2      12.2       5.2       7.3       4.3
 3 C  pz              0.4       0.1       0.2       0.0       0.1       6.0
 3 C  px              0.1       3.3       0.9       4.6       4.1       0.3
 3 C  py              2.8       2.1       0.7       1.9       0.3       0.7
 3 C  dxy             0.1       0.1       0.0       0.1       0.0       0.1
 4 C  s               8.1       3.2      12.2       5.2       7.3       4.3
 4 C  pz              0.4       0.1       0.2       0.0       0.1       6.0
 4 C  px              0.1       3.3       0.9       4.6       4.1       0.3
 4 C  py              2.8       2.1       0.7       1.9       0.3       0.7
 4 C  dxy             0.1       0.1       0.0       0.1       0.0       0.1
 5 N  s              18.6      24.2       0.0       7.4       0.0       2.9
 5 N  pz              1.0       1.0       0.0       0.2       0.0       2.5
 5 N  px              0.8       0.0       0.0       6.4       0.0       2.4
 5 N  py              0.0       0.0       9.2       0.0      13.2       0.0
 5 N  dz2             0.4       0.0       0.0       0.3       0.0       0.1
 5 N  dxz             0.1       0.0       0.0       0.2       0.0       0.9
 5 N  dyz             0.0       0.0       0.7       0.0       1.0       0.0
 5 N  dx2y2           0.0       0.2       0.0       0.3       0.0       1.5
 5 N  dxy             0.0       0.0       2.4       0.0       0.3       0.0
 6 H  s               0.6       0.3       2.5       1.4       3.4       1.7
 6 H  py              0.0       0.0       0.1       0.0       0.2       0.0
 7 H  s               0.6       0.3       1.9       1.4       2.0       5.2
 7 H  pz              0.1       0.0       0.2       0.1       0.2       0.3
 8 H  s               0.6       0.3       1.9       1.4       2.0       5.2
 8 H  pz              0.1       0.0       0.2       0.1       0.2       0.3
 9 H  s               0.6       0.3       2.5       1.4       3.4       1.7
 9 H  py              0.0       0.0       0.1       0.0       0.2       0.0
10 H  s               2.8       4.5       0.0       4.8       0.0       1.9
10 H  px              0.4       0.6       0.0       0.5       0.0       0.2
11 H  s               0.6       0.3       1.9       1.4       2.0       5.2
11 H  pz              0.1       0.0       0.2       0.1       0.2       0.3
12 H  s               0.6       0.3       2.5       1.4       3.4       1.7
12 H  py              0.0       0.0       0.1       0.0       0.2       0.0
13 H  s               0.6       0.3       2.5       1.4       3.4       1.7
13 H  py              0.0       0.0       0.1       0.0       0.2       0.0
14 H  s               0.6       0.3       1.9       1.4       2.0       5.2
14 H  pz              0.1       0.0       0.2       0.1       0.2       0.3
15 H  s               2.8       4.5       0.0       4.8       0.0       1.9
15 H  px              0.4       0.6       0.0       0.5       0.0       0.2

                     12        13        14        15        16        17   
                  -0.49260  -0.43524  -0.41947  -0.40636  -0.39355  -0.37342
                   2.00000   2.00000   2.00000   2.00000   2.00000   2.00000
                  --------  --------  --------  --------  --------  --------
 0 C  s               0.8       0.6       0.3       0.2       0.1       0.0
 0 C  pz              0.1       6.0      13.2       1.2       0.6      10.4
 0 C  px              1.3       0.6       1.0       1.6       5.7       0.9
 0 C  py              8.6       0.1       0.3       7.7       6.9       0.9
 0 C  dz2             0.0       0.0       0.1       0.0       0.0       0.1
 0 C  dxz             0.0       0.0       0.0       0.0       0.1       0.0
 0 C  dx2y2           0.0       0.2       0.0       0.0       0.0       0.0
 0 C  dxy             0.0       0.0       0.0       0.2       0.0       0.0
 1 C  s               0.8       0.6       0.3       0.2       0.1       0.0
 1 C  pz              0.1       6.0      13.2       1.2       0.6      10.4
 1 C  px              1.3       0.6       1.0       1.6       5.7       0.9
 1 C  py              8.6       0.1       0.3       7.7       6.9       0.9
 1 C  dz2             0.0       0.0       0.1       0.0       0.0       0.1
 1 C  dxz             0.0       0.0       0.0       0.0       0.1       0.0
 1 C  dx2y2           0.0       0.2       0.0       0.0       0.0       0.0
 1 C  dxy             0.0       0.0       0.0       0.2       0.0       0.0
 2 N  s               0.1       0.0       0.0       0.7       0.0       1.3
 2 N  pz              0.0       2.3       0.0       1.9       0.0       9.8
 2 N  px             14.0      18.1       0.0       9.5       0.0       0.1
 2 N  py              0.0       0.0       5.2       0.0      20.4       0.0
 2 N  dz2             0.0       0.1       0.0       1.0       0.0       1.0
 2 N  dxz             0.2       0.1       0.0       0.4       0.0       0.0
 2 N  dyz             0.0       0.0       1.4       0.0       0.1       0.0
 2 N  dx2y2           1.0       1.7       0.0       0.3       0.0       0.1
 2 N  dxy             0.0       0.0       0.0       0.0       0.3       0.0
 3 C  s               0.8       0.6       0.3       0.2       0.1       0.0
 3 C  pz              0.1       6.0      13.2       1.2       0.6      10.4
 3 C  px              1.3       0.6       1.0       1.6       5.7       0.9
 3 C  py              8.6       0.1       0.3       7.7       6.9       0.9
 3 C  dz2             0.0       0.0       0.1       0.0       0.0       0.1
 3 C  dxz             0.0       0.0       0.0       0.0       0.1       0.0
 3 C  dx2y2           0.0       0.2       0.0       0.0       0.0       0.0
 3 C  dxy             0.0       0.0       0.0       0.2       0.0       0.0
 4 C  s               0.8       0.6       0.3       0.2       0.1       0.0
 4 C  pz              0.1       6.0      13.2       1.2       0.6      10.4
 4 C  px              1.3       0.6       1.0       1.6       5.7       0.9
 4 C  py              8.6       0.1       0.3       7.7       6.9       0.9
 4 C  dz2             0.0       0.0       0.1       0.0       0.0       0.1
 4 C  dxz             0.0       0.0       0.0       0.0       0.1       0.0
 4 C  dx2y2           0.0       0.2       0.0       0.0       0.0       0.0
 4 C  dxy             0.0       0.0       0.0       0.2       0.0       0.0
 5 N  s               0.1       0.0       0.0       0.7       0.0       1.3
 5 N  pz              0.0       2.3       0.0       1.9       0.0       9.8
 5 N  px             14.0      18.1       0.0       9.5       0.0       0.1
 5 N  py              0.0       0.0       5.2       0.0      20.4       0.0
 5 N  dz2             0.0       0.1       0.0       1.0       0.0       1.0
 5 N  dxz             0.2       0.1       0.0       0.4       0.0       0.0
 5 N  dyz             0.0       0.0       1.4       0.0       0.1       0.0
 5 N  dx2y2           1.0       1.7       0.0       0.3       0.0       0.1
 5 N  dxy             0.0       0.0       0.0       0.0       0.3       0.0
 6 H  s               3.5       1.3       0.2       5.7       0.3       0.7
 6 H  px              0.0       0.0       0.0       0.0       0.1       0.0
 7 H  s               0.4       0.9       6.3       0.1       0.5       5.4
 7 H  pz              0.0       0.0       0.2       0.0       0.0       0.1
 8 H  s               0.4       0.9       6.3       0.1       0.5       5.4
 8 H  pz              0.0       0.0       0.2       0.0       0.0       0.1
 9 H  s               3.5       1.3       0.2       5.7       0.3       0.7
 9 H  px              0.0       0.0       0.0       0.0       0.1       0.0
10 H  s               4.2       7.4       0.0       2.1       0.0       0.0
10 H  px              0.1       0.3       0.0       0.0       0.0       0.0
10 H  py              0.0       0.0       0.1       0.0       0.3       0.0
11 H  s               0.4       0.9       6.3       0.1       0.5       5.4
11 H  pz              0.0       0.0       0.2       0.0       0.0       0.1
12 H  s               3.5       1.3       0.2       5.7       0.3       0.7
12 H  px              0.0       0.0       0.0       0.0       0.1       0.0
13 H  s               3.5       1.3       0.2       5.7       0.3       0.7
13 H  px              0.0       0.0       0.0       0.0       0.1       0.0
14 H  s               0.4       0.9       6.3       0.1       0.5       5.4
14 H  pz              0.0       0.0       0.2       0.0       0.0       0.1
15 H  s               4.2       7.4       0.0       2.1       0.0       0.0
15 H  px              0.1       0.3       0.0       0.0       0.0       0.0
15 H  py              0.0       0.0       0.1       0.0       0.3       0.0

                     18        19        20        21        22        23   
                  -0.35165  -0.31187  -0.30040  -0.29250  -0.19423  -0.18969
                   2.00000   2.00000   2.00000   2.00000   2.00000   2.00000
                  --------  --------  --------  --------  --------  --------
 0 C  s               0.4       0.1       0.1       0.0       0.1       0.8
 0 C  pz              0.1      12.0       0.6       0.1       0.9       1.3
 0 C  px             10.7       1.3       0.3      11.9       0.7       0.6
 0 C  py              6.1       0.6       9.7       0.3       0.2       0.2
 0 C  dz2             0.0       0.4       0.0       0.1       0.3       0.5
 0 C  dyz             0.0       0.0       0.1       0.0       0.3       0.1
 0 C  dx2y2           0.2       0.0       0.0       0.3       0.0       0.0
 0 C  dxy             0.0       0.0       0.5       0.0       0.0       0.0
 1 C  s               0.4       0.1       0.1       0.0       0.1       0.8
 1 C  pz              0.1      12.0       0.6       0.1       0.9       1.3
 1 C  px             10.7       1.3       0.3      11.9       0.7       0.6
 1 C  py              6.1       0.6       9.7       0.3       0.2       0.2
 1 C  dz2             0.0       0.4       0.0       0.1       0.3       0.5
 1 C  dyz             0.0       0.0       0.1       0.0       0.3       0.1
 1 C  dx2y2           0.2       0.0       0.0       0.3       0.0       0.0
 1 C  dxy             0.0       0.0       0.5       0.0       0.0       0.0
 2 N  s               0.0       0.0       0.0       0.1       3.1       1.8
 2 N  pz              0.0       0.0       0.0       0.6      34.7      30.9
 2 N  px              0.0       0.0       0.0       8.6       0.0       0.2
 2 N  py              0.1       0.1      11.6       0.0       0.0       0.0
 2 N  dz2             0.0       0.0       0.0       0.0       0.2       1.0
 2 N  dxz             0.0       0.0       0.0       0.0       0.4       0.1
 2 N  dyz             0.0       1.5       0.3       0.0       0.0       0.0
 2 N  dx2y2           0.0       0.0       0.0       3.4       0.1       0.1
 2 N  dxy             2.7       0.0       0.1       0.0       0.0       0.0
 3 C  s               0.4       0.1       0.1       0.0       0.1       0.8
 3 C  pz              0.1      12.0       0.6       0.1       0.9       1.3
 3 C  px             10.7       1.3       0.3      11.9       0.7       0.6
 3 C  py              6.1       0.6       9.7       0.3       0.2       0.2
 3 C  dz2             0.0       0.4       0.0       0.1       0.3       0.5
 3 C  dyz             0.0       0.0       0.1       0.0       0.3       0.1
 3 C  dx2y2           0.2       0.0       0.0       0.3       0.0       0.0
 3 C  dxy             0.0       0.0       0.5       0.0       0.0       0.0
 4 C  s               0.4       0.1       0.1       0.0       0.1       0.8
 4 C  pz              0.1      12.0       0.6       0.1       0.9       1.3
 4 C  px             10.7       1.3       0.3      11.9       0.7       0.6
 4 C  py              6.1       0.6       9.7       0.3       0.2       0.2
 4 C  dz2             0.0       0.4       0.0       0.1       0.3       0.5
 4 C  dyz             0.0       0.0       0.1       0.0       0.3       0.1
 4 C  dx2y2           0.2       0.0       0.0       0.3       0.0       0.0
 4 C  dxy             0.0       0.0       0.5       0.0       0.0       0.0
 5 N  s               0.0       0.0       0.0       0.1       3.2       1.8
 5 N  pz              0.0       0.0       0.0       0.6      34.7      30.9
 5 N  px              0.0       0.0       0.0       8.6       0.0       0.2
 5 N  py              0.1       0.1      11.6       0.0       0.0       0.0
 5 N  dz2             0.0       0.0       0.0       0.0       0.2       1.0
 5 N  dxz             0.0       0.0       0.0       0.0       0.4       0.1
 5 N  dyz             0.0       1.5       0.3       0.0       0.0       0.0
 5 N  dx2y2           0.0       0.0       0.0       3.4       0.1       0.1
 5 N  dxy             2.7       0.0       0.1       0.0       0.0       0.0
 6 H  s               5.8       1.0       7.2       2.9       0.5       0.1
 7 H  s               0.0       8.4       0.2       0.3       2.3       3.5
 7 H  px              0.1       0.0       0.0       0.1       0.0       0.0
 8 H  s               0.0       8.4       0.2       0.3       2.3       3.5
 8 H  px              0.1       0.0       0.0       0.1       0.0       0.0
 9 H  s               5.8       1.0       7.2       2.9       0.5       0.1
10 H  s               0.0       0.0       0.0       4.6       0.2       0.7
10 H  pz              0.0       0.0       0.0       0.1       0.6       0.4
10 H  py              0.0       0.0       0.2       0.0       0.0       0.0
11 H  s               0.0       8.4       0.2       0.3       2.3       3.5
11 H  px              0.1       0.0       0.0       0.1       0.0       0.0
12 H  s               5.8       1.0       7.2       2.9       0.5       0.1
13 H  s               5.8       1.0       7.2       2.9       0.5       0.1
14 H  s               0.0       8.4       0.2       0.3       2.3       3.5
14 H  px              0.1       0.0       0.0       0.1       0.0       0.0
15 H  s               0.0       0.0       0.0       4.6       0.2       0.7
15 H  pz              0.0       0.0       0.0       0.1       0.6       0.4
15 H  py              0.0       0.0       0.2       0.0       0.0       0.0

                     24        25        26        27        28        29   
                   0.06612   0.08663   0.11377   0.12688   0.13699   0.13746
                   0.00000   0.00000   0.00000   0.00000   0.00000   0.00000
                  --------  --------  --------  --------  --------  --------
 0 C  s               3.0       1.7       4.7       5.4       0.2       5.2
 0 C  pz              0.4       2.5       0.5       0.3       8.2       1.6
 0 C  px              4.1       7.4       1.7       0.9       1.4       8.9
 0 C  py              2.0       0.7       8.7       9.4       3.9       2.2
 0 C  dz2             0.0       0.3       0.1       0.1       0.0       0.1
 0 C  dxz             0.0       0.3       0.0       0.1       0.1       0.2
 0 C  dyz             0.1       0.0       0.0       0.0       0.7       0.0
 0 C  dx2y2           0.0       0.0       0.8       0.0       0.0       0.4
 0 C  dxy             1.0       0.0       0.1       0.0       0.2       0.0
 1 C  s               3.0       1.7       4.7       5.4       0.2       5.2
 1 C  pz              0.4       2.5       0.5       0.3       8.2       1.6
 1 C  px              4.1       7.4       1.7       0.9       1.4       8.9
 1 C  py              2.0       0.7       8.7       9.4       3.9       2.2
 1 C  dz2             0.0       0.3       0.1       0.1       0.0       0.1
 1 C  dxz             0.0       0.3       0.0       0.1       0.1       0.2
 1 C  dyz             0.1       0.0       0.0       0.0       0.7       0.0
 1 C  dx2y2           0.0       0.0       0.8       0.0       0.0       0.4
 1 C  dxy             1.0       0.0       0.1       0.0       0.2       0.0
 2 N  s               6.9       4.0       3.4       0.0       2.8       0.0
 2 N  pz              0.6       0.8       1.0       0.0       0.4       0.0
 2 N  px              1.8       3.4       1.2       0.0       1.7       0.0
 2 N  py              0.0       0.0       0.0       0.7       0.0       0.5
 2 N  dz2             0.4       0.2       1.0       0.0       0.9       0.0
 2 N  dxz             0.7       3.0       0.2       0.0       7.5       0.0
 2 N  dyz             0.0       0.0       0.0       4.1       0.0       0.2
 2 N  dx2y2           2.4       0.7       2.5       0.0       0.2       0.0
 2 N  dxy             0.0       0.0       0.0       0.7       0.0       7.2
 3 C  s               3.0       1.7       4.7       5.4       0.2       5.2
 3 C  pz              0.4       2.5       0.5       0.3       8.2       1.6
 3 C  px              4.1       7.4       1.7       0.9       1.4       8.9
 3 C  py              2.0       0.7       8.7       9.4       3.9       2.2
 3 C  dz2             0.0       0.3       0.1       0.1       0.0       0.1
 3 C  dxz             0.0       0.3       0.0       0.1       0.1       0.2
 3 C  dyz             0.1       0.0       0.0       0.0       0.7       0.0
 3 C  dx2y2           0.0       0.0       0.8       0.0       0.0       0.4
 3 C  dxy             1.0       0.0       0.1       0.0       0.2       0.0
 4 C  s               3.0       1.7       4.7       5.4       0.2       5.2
 4 C  pz              0.4       2.5       0.5       0.3       8.2       1.6
 4 C  px              4.1       7.4       1.7       0.9       1.4       8.9
 4 C  py              2.0       0.7       8.7       9.4       3.9       2.2
 4 C  dz2             0.0       0.3       0.1       0.1       0.0       0.1
 4 C  dxz             0.0       0.3       0.0       0.1       0.1       0.2
 4 C  dyz             0.1       0.0       0.0       0.0       0.7       0.0
 4 C  dx2y2           0.0       0.0       0.8       0.0       0.0       0.4
 4 C  dxy             1.0       0.0       0.1       0.0       0.2       0.0
 5 N  s               6.9       4.0       3.4       0.0       2.8       0.0
 5 N  pz              0.6       0.8       1.0       0.0       0.4       0.0
 5 N  px              1.8       3.4       1.2       0.0       1.7       0.0
 5 N  py              0.0       0.0       0.0       0.7       0.0       0.5
 5 N  dz2             0.4       0.2       1.0       0.0       0.9       0.0
 5 N  dxz             0.7       3.0       0.2       0.0       7.5       0.0
 5 N  dyz             0.0       0.0       0.0       4.1       0.0       0.2
 5 N  dx2y2           2.4       0.7       2.5       0.0       0.2       0.0
 5 N  dxy             0.0       0.0       0.0       0.7       0.0       7.2
 6 H  s               2.0       0.3       1.5       1.6       1.4       0.6
 6 H  pz              0.1       0.0       0.0       0.4       0.6       0.0
 6 H  px              0.5       0.1       0.0       0.1       0.0       0.7
 6 H  py              0.1       0.0       1.3       0.8       0.1       0.2
 7 H  s               0.5       1.3       0.5       2.2       0.1       0.2
 7 H  pz              0.1       0.7       0.3       0.8       0.1       0.2
 7 H  px              0.0       0.3       0.1       0.1       0.0       0.3
 7 H  py              0.1       0.0       0.1       0.0       0.8       0.0
 8 H  s               0.5       1.3       0.5       2.2       0.1       0.2
 8 H  pz              0.1       0.7       0.3       0.8       0.1       0.2
 8 H  px              0.0       0.3       0.1       0.1       0.0       0.3
 8 H  py              0.1       0.0       0.1       0.0       0.8       0.0
 9 H  s               2.0       0.3       1.5       1.6       1.4       0.6
 9 H  pz              0.1       0.0       0.0       0.4       0.6       0.0
 9 H  px              0.5       0.1       0.0       0.1       0.0       0.7
 9 H  py              0.1       0.0       1.3       0.8       0.1       0.2
10 H  s               7.0       4.4       0.1       0.0       0.3       0.0
10 H  pz              0.1       0.2       0.0       0.0       0.0       0.0
10 H  px              2.2       1.6       0.2       0.0       0.4       0.0
10 H  py              0.0       0.0       0.0       0.0       0.0       0.4
11 H  s               0.5       1.3       0.5       2.2       0.1       0.2
11 H  pz              0.1       0.7       0.3       0.8       0.1       0.2
11 H  px              0.0       0.3       0.1       0.1       0.0       0.3
11 H  py              0.1       0.0       0.1       0.0       0.8       0.0
12 H  s               2.0       0.3       1.5       1.6       1.4       0.6
12 H  pz              0.1       0.0       0.0       0.4       0.6       0.0
12 H  px              0.5       0.1       0.0       0.1       0.0       0.7
12 H  py              0.1       0.0       1.3       0.8       0.1       0.2
13 H  s               2.0       0.3       1.5       1.6       1.4       0.6
13 H  pz              0.1       0.0       0.0       0.4       0.6       0.0
13 H  px              0.5       0.1       0.0       0.1       0.0       0.7
13 H  py              0.1       0.0       1.3       0.8       0.1       0.2
14 H  s               0.5       1.3       0.5       2.2       0.1       0.2
14 H  pz              0.1       0.7       0.3       0.8       0.1       0.2
14 H  px              0.0       0.3       0.1       0.1       0.0       0.3
14 H  py              0.1       0.0       0.1       0.0       0.8       0.0
15 H  s               7.0       4.4       0.1       0.0       0.3       0.0
15 H  pz              0.1       0.2       0.0       0.0       0.0       0.0
15 H  px              2.2       1.6       0.2       0.0       0.4       0.0
15 H  py              0.0       0.0       0.0       0.0       0.0       0.4

                     30        31        32        33        34        35   
                   0.15494   0.16750   0.17512   0.17663   0.18218   0.18838
                   0.00000   0.00000   0.00000   0.00000   0.00000   0.00000
                  --------  --------  --------  --------  --------  --------
 0 C  s               0.1       0.5       0.2       2.0       3.0       0.3
 0 C  pz              3.8       0.4      14.3       4.8       3.2      10.6
 0 C  px              2.7       7.1       1.1       2.0       3.4       1.0
 0 C  py              5.3       4.1       2.3       2.5       1.0       1.9
 0 C  dz2             0.6       0.1       0.2       0.2       0.0       0.0
 0 C  dxz             0.1       0.2       0.0       0.2       0.2       0.1
 0 C  dyz             0.2       0.1       0.5       0.2       0.1       0.3
 0 C  dx2y2           0.2       0.0       0.0       0.1       0.5       0.0
 0 C  dxy             0.0       1.4       0.1       0.1       0.0       0.3
 1 C  s               0.1       0.5       0.2       2.0       3.0       0.3
 1 C  pz              3.8       0.4      14.3       4.8       3.2      10.6
 1 C  px              2.7       7.1       1.1       2.0       3.4       1.1
 1 C  py              5.3       4.1       2.3       2.5       0.9       1.9
 1 C  dz2             0.6       0.1       0.2       0.2       0.0       0.0
 1 C  dxz             0.1       0.2       0.0       0.2       0.2       0.1
 1 C  dyz             0.2       0.1       0.5       0.2       0.1       0.3
 1 C  dx2y2           0.2       0.0       0.0       0.1       0.5       0.0
 1 C  dxy             0.0       1.4       0.1       0.1       0.0       0.3
 2 N  s               0.2       0.0       0.0       0.7       2.0       0.8
 2 N  pz              0.5       0.0       0.0       3.8       0.3       2.3
 2 N  px              4.7       0.0       0.0       1.1       0.0       3.0
 2 N  py              0.0       6.9       0.8       0.0       0.0       0.0
 2 N  dz2             0.1       0.0       0.0       2.4       0.2       0.0
 2 N  dxz             0.8       0.0       0.0       0.7       2.4       3.7
 2 N  dyz             0.0       2.7       1.1       0.0       0.0       0.0
 2 N  dx2y2           3.2       0.0       0.0       2.7       0.4       0.0
 2 N  dxy             0.0       0.4       0.5       0.0       0.0       0.0
 3 C  s               0.1       0.5       0.2       2.0       3.0       0.3
 3 C  pz              3.8       0.4      14.3       4.8       3.2      10.6
 3 C  px              2.7       7.1       1.1       2.0       3.4       1.1
 3 C  py              5.3       4.1       2.3       2.5       0.9       1.9
 3 C  dz2             0.6       0.1       0.2       0.2       0.0       0.0
 3 C  dxz             0.1       0.2       0.0       0.2       0.2       0.1
 3 C  dyz             0.2       0.1       0.5       0.2       0.1       0.3
 3 C  dx2y2           0.2       0.0       0.0       0.1       0.5       0.0
 3 C  dxy             0.0       1.4       0.1       0.1       0.0       0.3
 4 C  s               0.1       0.5       0.2       2.0       3.0       0.3
 4 C  pz              3.8       0.4      14.3       4.8       3.2      10.6
 4 C  px              2.7       7.1       1.1       2.0       3.4       1.0
 4 C  py              5.3       4.1       2.3       2.5       0.9       1.9
 4 C  dz2             0.6       0.1       0.2       0.2       0.0       0.0
 4 C  dxz             0.1       0.2       0.0       0.2       0.2       0.1
 4 C  dyz             0.2       0.1       0.5       0.2       0.1       0.3
 4 C  dx2y2           0.2       0.0       0.0       0.1       0.5       0.0
 4 C  dxy             0.0       1.4       0.1       0.1       0.0       0.3
 5 N  s               0.2       0.0       0.0       0.7       2.0       0.8
 5 N  pz              0.5       0.0       0.0       3.7       0.3       2.3
 5 N  px              4.7       0.0       0.0       1.1       0.0       3.0
 5 N  py              0.0       6.9       0.8       0.0       0.0       0.0
 5 N  dz2             0.1       0.0       0.0       2.4       0.2       0.0
 5 N  dxz             0.8       0.0       0.0       0.7       2.4       3.7
 5 N  dyz             0.0       2.7       1.1       0.0       0.0       0.0
 5 N  dx2y2           3.2       0.0       0.0       2.7       0.4       0.0
 5 N  dxy             0.0       0.4       0.5       0.0       0.0       0.0
 6 H  s               0.5       2.9       1.4       0.0       6.0       2.8
 6 H  pz              0.2       0.0       0.2       0.5       0.3       0.5
 6 H  px              0.1       0.9       0.2       0.0       0.1       0.3
 6 H  py              0.5       0.2       0.2       0.1       1.3       0.4
 7 H  s               2.9       1.3       1.7       3.8       1.5       0.3
 7 H  pz              0.9       0.3       1.0       1.6       0.9       0.1
 7 H  px              0.0       0.1       0.0       0.2       0.4       0.2
 7 H  py              0.3       0.2       0.5       0.3       0.1       0.2
 8 H  s               2.9       1.3       1.7       3.8       1.5       0.3
 8 H  pz              0.9       0.3       1.0       1.6       0.9       0.1
 8 H  px              0.0       0.1       0.0       0.2       0.4       0.2
 8 H  py              0.3       0.2       0.5       0.3       0.1       0.2
 9 H  s               0.5       2.9       1.4       0.0       6.0       2.8
 9 H  pz              0.2       0.0       0.2       0.5       0.3       0.5
 9 H  px              0.1       0.9       0.2       0.0       0.1       0.3
 9 H  py              0.5       0.2       0.2       0.1       1.3       0.4
10 H  s               3.1       0.0       0.0       0.9       0.6       1.4
10 H  pz              0.1       0.0       0.0       0.0       0.0       0.2
10 H  px              0.7       0.0       0.0       0.3       0.1       0.2
10 H  py              0.0       0.2       0.0       0.0       0.0       0.0
11 H  s               2.9       1.3       1.7       3.8       1.5       0.3
11 H  pz              0.9       0.3       1.0       1.6       0.9       0.1
11 H  px              0.0       0.1       0.0       0.2       0.4       0.2
11 H  py              0.3       0.2       0.5       0.3       0.1       0.2
12 H  s               0.5       2.9       1.4       0.0       6.0       2.8
12 H  pz              0.2       0.0       0.2       0.5       0.3       0.5
12 H  px              0.1       0.9       0.2       0.0       0.1       0.3
12 H  py              0.5       0.2       0.2       0.1       1.3       0.4
[...]
 1 C  dxy             0.2       0.7       2.1       3.4       0.4       0.3
 2 N  s               0.9       0.0       0.0       0.0       0.8       0.9
 2 N  pz              0.0       0.0       0.0       0.0       0.1       0.1
 2 N  px              0.2       0.0       0.0       0.0       9.1       8.1
 2 N  py              0.0       1.1      11.9      12.0       0.0       0.0
 2 N  dz2             1.7       0.0       0.0       0.0       0.4       0.5
 2 N  dxz             0.7       0.0       0.0       0.0       7.1       6.0
 2 N  dyz             0.0       0.2       6.4       6.5       0.0       0.0
 2 N  dx2y2           0.1       0.0       0.0       0.0      13.1      14.5
 2 N  dxy             0.0       0.2       9.3       9.0       0.0       0.0
 3 C  s               0.3       0.3       1.3       0.9       0.3       0.1
 3 C  pz              2.7       3.1       0.1       0.3       0.0       0.0
 3 C  px              0.0       1.0       0.4       0.4       0.0       0.2
 3 C  py              0.1       0.7       3.9       2.6       0.7       0.4
 3 C  dz2             6.7       3.6       0.4       0.5       0.1       0.0
 3 C  dxz             0.0       0.1       0.2       0.1       0.1       0.2
 3 C  dyz             0.0       0.7       1.2       1.3       0.2       0.1
 3 C  dx2y2           0.4       0.2       0.3       0.2       0.3       0.6
 3 C  dxy             0.2       0.7       2.1       3.4       0.4       0.3
 4 C  s               0.3       0.3       1.3       0.9       0.3       0.1
 4 C  pz              2.8       3.1       0.1       0.3       0.0       0.0
 4 C  px              0.0       1.0       0.4       0.4       0.0       0.2
 4 C  py              0.1       0.7       3.9       2.6       0.7       0.4
 4 C  dz2             6.8       3.5       0.4       0.5       0.1       0.0
 4 C  dxz             0.0       0.1       0.2       0.1       0.1       0.2
 4 C  dyz             0.0       0.7       1.2       1.3       0.2       0.1
 4 C  dx2y2           0.4       0.2       0.3       0.2       0.3       0.6
 4 C  dxy             0.2       0.7       2.1       3.4       0.4       0.3
 5 N  s               0.9       0.0       0.0       0.0       0.8       0.9
 5 N  pz              0.0       0.0       0.0       0.0       0.1       0.1
 5 N  px              0.2       0.0       0.0       0.0       9.1       8.1
 5 N  py              0.0       1.1      11.9      12.0       0.0       0.0
 5 N  dz2             1.7       0.0       0.0       0.0       0.4       0.5
 5 N  dxz             0.7       0.0       0.0       0.0       7.2       6.0
 5 N  dyz             0.0       0.2       6.4       6.5       0.0       0.0
 5 N  dx2y2           0.1       0.0       0.0       0.0      13.2      14.5
 5 N  dxy             0.0       0.2       9.3       9.0       0.0       0.0
 6 H  s               0.8       2.2       0.3       0.4       0.0       0.0
 6 H  pz              0.1       0.1       0.2       0.2       0.0       0.0
 6 H  px              0.8       0.8       0.3       0.5       0.0       0.0
 6 H  py              0.9       4.5       0.1       0.2       0.0       0.0
 7 H  s               2.6       2.0       0.0       0.1       0.0       0.0
 7 H  pz              6.6       4.2       0.0       0.1       0.0       0.0
 7 H  py              0.2       0.0       0.3       0.1       0.0       0.0
 8 H  s               2.6       2.0       0.0       0.1       0.0       0.0
 8 H  pz              6.8       4.0       0.0       0.1       0.0       0.0
 8 H  py              0.2       0.0       0.3       0.1       0.0       0.0
 9 H  s               0.9       2.2       0.3       0.4       0.0       0.0
 9 H  pz              0.1       0.1       0.2       0.2       0.0       0.0
 9 H  px              0.8       0.8       0.3       0.5       0.0       0.0
 9 H  py              1.0       4.4       0.1       0.2       0.0       0.0
10 H  s               0.0       0.0       0.0       0.0       5.6       6.2
10 H  pz              0.4       0.0       0.0       0.0       0.7       0.6
10 H  px              0.1       0.0       0.0       0.0       8.7       9.0
10 H  py              0.0       0.5       0.2       0.2       0.0       0.0
11 H  s               2.6       2.0       0.0       0.1       0.0       0.0
11 H  pz              6.6       4.2       0.0       0.1       0.0       0.0
11 H  py              0.2       0.0       0.3       0.1       0.0       0.0
12 H  s               0.8       2.2       0.3       0.4       0.0       0.0
12 H  pz              0.1       0.1       0.2       0.2       0.0       0.0
12 H  px              0.8       0.8       0.3       0.5       0.0       0.0
12 H  py              0.9       4.5       0.1       0.2       0.0       0.0
13 H  s               0.9       2.2       0.3       0.4       0.0       0.0
13 H  pz              0.1       0.1       0.2       0.2       0.0       0.0
13 H  px              0.8       0.8       0.3       0.5       0.0       0.0
13 H  py              1.0       4.4       0.1       0.2       0.0       0.0
14 H  s               2.6       2.0       0.0       0.1       0.0       0.0
14 H  pz              6.7       4.0       0.0       0.1       0.0       0.0
14 H  py              0.2       0.0       0.3       0.1       0.0       0.0
15 H  s               0.0       0.0       0.0       0.0       5.6       6.2
15 H  pz              0.4       0.0       0.0       0.0       0.7       0.6
15 H  px              0.1       0.0       0.0       0.0       8.7       9.0
15 H  py              0.0       0.5       0.2       0.2       0.0       0.0

                    168       169       170       171       172       173   
                  22.03952  22.05894  22.06628  22.15257  31.90834  31.98822
                   0.00000   0.00000   0.00000   0.00000   0.00000   0.00000
                  --------  --------  --------  --------  --------  --------
 0 C  s              24.8      24.8      25.0      25.0       0.0       0.0
 1 C  s              24.8      25.0      24.8      25.0       0.0       0.0
 2 N  s               0.1       0.0       0.1       0.0      49.9      49.9
 3 C  s              24.9      24.7      25.0      25.0       0.0       0.0
 4 C  s              24.9      24.9      24.8      24.9       0.0       0.0
 5 N  s               0.1       0.0       0.1       0.0      49.9      49.9



                      *****************************
                      * MAYER POPULATION ANALYSIS *
                      *****************************

  NA   - Mulliken gross atomic population
  ZA   - Total nuclear charge
  QA   - Mulliken gross atomic charge
  VA   - Mayer's total valence
  BVA  - Mayer's bonded valence
  FA   - Mayer's free valence

  ATOM       NA         ZA         QA         VA         BVA        FA
  0 C      6.2140     6.0000    -0.2140     3.8317     3.8317     0.0000
  1 C      6.2140     6.0000    -0.2140     3.8316     3.8316     0.0000
  2 N      7.3404     7.0000    -0.3404     2.7537     2.7537    -0.0000
  3 C      6.2141     6.0000    -0.2141     3.8317     3.8317     0.0000
  4 C      6.2140     6.0000    -0.2140     3.8316     3.8316     0.0000
  5 N      7.3404     7.0000    -0.3404     2.7537     2.7537     0.0000
  6 H      0.8642     1.0000     0.1358     0.9591     0.9591     0.0000
  7 H      0.8641     1.0000     0.1359     0.9628     0.9628    -0.0000
  8 H      0.8641     1.0000     0.1359     0.9628     0.9628     0.0000
  9 H      0.8642     1.0000     0.1358     0.9591     0.9591     0.0000
 10 H      0.7751     1.0000     0.2249     0.9336     0.9336     0.0000
 11 H      0.8641     1.0000     0.1359     0.9628     0.9628    -0.0000
 12 H      0.8642     1.0000     0.1358     0.9591     0.9591     0.0000
 13 H      0.8642     1.0000     0.1358     0.9591     0.9591    -0.0000
 14 H      0.8641     1.0000     0.1359     0.9628     0.9628     0.0000
 15 H      0.7751     1.0000     0.2249     0.9336     0.9336     0.0000

  Mayer bond orders larger than 0.100000
B(  0-C ,  1-C ) :   0.9522 B(  0-C ,  5-N ) :   0.9713 B(  0-C ,  6-H ) :   0.9588 
B(  0-C ,  7-H ) :   0.9652 B(  1-C ,  2-N ) :   0.9712 B(  1-C ,  8-H ) :   0.9652 
B(  1-C ,  9-H ) :   0.9588 B(  2-N ,  3-C ) :   0.9713 B(  2-N , 10-H ) :   0.9098 
B(  3-C ,  4-C ) :   0.9522 B(  3-C , 11-H ) :   0.9652 B(  3-C , 12-H ) :   0.9588 
B(  4-C ,  5-N ) :   0.9713 B(  4-C , 13-H ) :   0.9588 B(  4-C , 14-H ) :   0.9652 
B(  5-N , 15-H ) :   0.9098 

-------
TIMINGS
-------

Total SCF time: 0 days 0 hours 0 min 23 sec 

Total time                  ....      23.796 sec
Sum of individual times     ....      23.759 sec  ( 99.8%)

SCF preparation             ....       1.282 sec  (  5.4%)
Fock matrix formation       ....      15.216 sec  ( 63.9%)
  Startup                   ....       0.009 sec  (  0.1% of F)
  Split-RI-J                ....       2.714 sec  ( 17.8% of F)
  XC integration            ....      12.181 sec  ( 80.1% of F)
    XC Preparation          ....       0.000 sec  (  0.0% of XC)
    Basis function eval.    ....       2.101 sec  ( 17.2% of XC)
    Density eval.           ....       3.922 sec  ( 32.2% of XC)
    XC-Functional eval.     ....       1.495 sec  ( 12.3% of XC)
    XC-Potential eval.      ....       4.109 sec  ( 33.7% of XC)
Diagonalization             ....       0.000 sec  (  0.0%)
Density matrix formation    ....       0.038 sec  (  0.2%)
Total Energy calculation    ....       0.002 sec  (  0.0%)
Population analysis         ....       7.077 sec  ( 29.7%)
Orbital Transformation      ....       0.017 sec  (  0.1%)
Orbital Orthonormalization  ....       0.000 sec  (  0.0%)
DIIS solution               ....       0.112 sec  (  0.5%)
  MO trafo                  ....       0.000 sec  (  0.0 % of DIIS)
  Orb grad                  ....       0.000 sec  (  0.0 % of DIIS)
  Energy W gradient         ....       0.000 sec  (  0.0 % of DIIS)
  DIIS error                ....       0.008 sec  (  6.8 % of DIIS)
  DIIS work                 ....       0.093 sec  ( 82.9 % of DIIS)
  Form Q                    ....       0.000 sec  (  0.0 % of DIIS)
  Form QpQm                 ....       0.000 sec  (  0.0 % of DIIS)
  Exp/Cayley                ....       0.000 sec  (  0.0 % of DIIS)
  Orb update                ....       0.000 sec  (  0.0 % of DIIS)
  Wake-sleep                ....       0.002 sec  (  1.5 % of DIIS)
SOSCF solution              ....       0.013 sec  (  0.1%)
  MO trafo                  ....       0.010 sec  ( 78.8 % of SOSCF)
  Orb grad                  ....       0.000 sec  (  0.7 % of SOSCF)
  Rot update                ....       0.000 sec  (  0.2 % of SOSCF)
  Step                      ....       0.003 sec  ( 19.9 % of SOSCF)
Finished LeanSCF after  30.4 sec

Maximum memory used throughout the entire LEANSCF-calculation: 19.3 MB


-------------------------------------------------------------------------------
                          DFT DISPERSION CORRECTION                            
                                                                               
                                DFTD4 V3.4.0                                   
-------------------------------------------------------------------------------
The R2SCAN3C composite method is recognized
Using three-body term ABC
Active option DFTDOPT                   ...         5   

-------------------------   ----------------
Dispersion correction           -0.004175941
-------------------------   ----------------

------------------   -----------------
gCP correction             0.015807339
------------------   -----------------

-------------------------   --------------------
FINAL SINGLE POINT ENERGY      -267.844916610516
-------------------------   --------------------


------------------------------------------------------------------------------
                              ORCA PROPERTY CALCULATIONS
------------------------------------------------------------------------------

GBWName                                 ... sp.gbw
Number of atoms                         ...     16
Number of basis functions               ...    174
Max core memory                         ...   1024 MB

Electric properties:
Dipole moment                           ... YES
Quadrupole moment                       ...  NO
Static polarizability (Dipole/Dipole)   ...  NO
Static polarizability (Dipole/Quad.)    ...  NO
Static polarizability (Quad./Quad.)     ...  NO
Static polarizability (Velocity)        ...  NO

Atomic electric properties:
Dipole moment                           ...  NO
Quadrupole moment                       ...  NO
Static polarizability                   ...  NO

Choice of electric origin               ... Center of mass
Position of electric origin             ...     0.000000     0.000000     0.000000

General magnetic properties:
Magnetizability                         ...  NO

EPR properties:
g-Tensor (aka g-matrix)                 ...  NO
Zero-Field splitting spin-orbit         ...  NO
Zero-field splitting spin-spin          ...  NO
Hyperfine couplings                     ...  NO (   0 nuclei)
Quadrupole couplings                    ...  NO (   0 nuclei)
Contact density                         ...  NO (   0 nuclei)

NMR properties:
Chemical shifts                         ...  NO (   0 nuclei)
Spin-rotation constants                 ...  NO (   0 nuclei)
Spin-spin couplings                     ...  NO (   0 nuclei,    0 pairs)

Choice of magnetic origin               ... GIAO
Position of magnetic origin             ...     0.000000     0.000000     0.000000

Properties with geometric perturbations:
SCF Hessian                             ...  NO
IR spectrum                             ...  NO
VCD spectrum                            ...  NO
X-ray spectroscopy properties:
SCF XES/XAS/RIXS spectra                ...  NO


-------------
DIPOLE MOMENT
-------------

Method             : SCF
Type of density    : Electron Density
Multiplicity       :   1
Irrep              :   0
Energy             :  -267.8565480080775387 Eh
Relativity type    : 
Basis              : AO
                                X                 Y                 Z
Electronic contribution:     -0.000039543      -0.000146083       0.000100031
Nuclear contribution   :     -0.000079254       0.000148679      -0.000020771
                        -----------------------------------------
Total Dipole Moment    :     -0.000118797       0.000002595       0.000079260
                        -----------------------------------------
Magnitude (a.u.)       :      0.000142834
Magnitude (Debye)      :      0.000363055



--------------------
Rotational spectrum 
--------------------
 
Rotational constants in cm-1:             0.162408             0.152878             0.088840 
Rotational constants in MHz :          4868.875565          4583.174256          2663.363877 

Dipole components along the rotational axes: 
x,y,z [a.u.] :    -0.000115    -0.000003     0.000085 
x,y,z [Debye]:    -0.000292    -0.000007     0.000215 

 

Dipole moment calculation done in   1.5 sec 

Maximum memory used throughout the entire PROP-calculation: 11.1 MB

--------------------------------
SUGGESTED CITATIONS FOR THIS RUN
--------------------------------

Below you find a list of papers that are relevant to this ORCA run
We neither can nor want to force you to cite these papers, but we appreciate if you do
You receive ORCA, which is the product of decades of hard work by many enthusiastic individuals, for free
The only thing we kindly ask in return is that you cite our papers,
We deeply appreciate it, if you show your appreciation for ORCA by not just citing the generic ORCA reference.

Please note that relegating all ORCA citations to the supporting information does *not* help us.
SI sections are not indexed - citations you put there will not count into any citation statistics
But we need these citations in order to attract the funding resources that allow us to do what we are doing

Therefore, if you are a happy ORCA user, please consider citing a few of the papers listed below in the main body of your paper

In addition to the list printed below, the program has created the file sp.bibtex that contains the list in bibtex format
You can import this file easily into all common literature databanks and citation aid programs


List of essential papers. We consider these as the minimum necessary citations

  1. Neese,F.
     Software update: the ORCA program system, version 5.0
     WIRES Comput. Molec. Sci., 2022 12(1)e1606
     doi.org/10.1002/wcms.1606
  2. Grimme,S.; Hansen,A.; Ehlert,S.; Mewes,J.
     r2SCAN-3c: A 'Swiss army knife' composite electronic-structure method
     J. Chem. Phys., 2021 154 064103
     doi.org/10.1063/5.0040021

List of papers to cite with high priority. The work reported in these papers was absolutely
necessary for this run to complete.
Our perspective: the developers of density functionals and basis sets usually get cited in chemistry papers
Good! But without the algorithms to do something with them, the functionals or basis sets would not do anything.
Hence, in our opinion, the algorithm design and method developments papers are equally worthy of getting cited

  1. Neese,F.
     An improvement of the resolution of the identity approximation for the formation of the Coulomb matrix
     J. Comp. Chem., 2003 24(14)1740-1747
     doi.org/10.1002/jcc.10318
  2. Neese,F.
     The SHARK Integral Generation and Digestion System
     J. Comp. Chem., 2022  1-16
     doi.org/10.1002/jcc.26942
  3. Lehtola,S.; Steigemann,C.; Oliveira,M.; Marques,M.
     Recent developments in Libxc - A comprehensive library of functionals for density functional theory
     Software X, 2018 7 
     doi.org/10.1016/j.softx.2017.11.002
  4. Caldeweyher,E.; Bannwarth,C.; Grimme,S.
     Extension of the D3 dispersion coefficient model
     J. Chem. Phys., 2017 147 034112
     doi.org/10.1063/1.4993215
  5. Caldeweyher,E.; Ehlert,S.; Hansen,A.; Neugebauer,H.; Spicher,S.; Bannwarth,C.; Grimme,S.
     A generally applicable atomic-charge dependent London dispersion correction
     J. Chem. Phys., 2019 150 154122
     doi.org/10.1063/1.5090222
  6. Caldeweyher,E.; Mewes,J.; Ehlert,S.; Grimme,S.
     Extension and evaluation of the D4 London-dispersion model for periodic systems
     Phys. Chem. Chem. Phys., 2020 22(16)8499-8512
     doi.org/10.1039/D0CP00502A
  7. Wittmann,L.; Gordiy,I.; Friede,M.; Helmich-Paris,B.; Grimme,S.; Hansen,A.; Bursch,M.
     Extension of the D3 and D4 London Dispersion Corrections to the full Actinides Series
     Phys. Chem. Chem. Phys., 2024 26(32)21379-21394
     doi.org/https://doi.org/10.1039/D4CP01514B 

List of suggested additional citations. These are papers that are important in the 'surrounding' of 
of this run, or papers that preceded the highly important papers. If you like your results we are grateful for a citation.

  1. Neese,F.
     The ORCA program system
     WIRES Comput. Molec. Sci., 2012 2(1)73-78
     doi.org/10.1002/wcms.81
  2. Neese,F.
     Software update: the ORCA program system, version 4.0
     WIRES Comput. Molec. Sci., 2018 8(1)1-6
     doi.org/10.1002/wcms.1327
  3. Neese,F.; Wennmohs,F.; Becker,U.; Riplinger,C.
     The ORCA quantum chemistry program package
     J. Chem. Phys., 2020 152 Art. No. L224108
     doi.org/10.1063/5.0004608

List of optional additional citations

  1. Neese,F.
     Approximate second-order SCF convergence for spin unrestricted wavefunctions
     Chem. Phys. Lett., 2000 325(1-3)93-98
     doi.org/10.1016/s0009-2614(00)00662-x

Timings for individual modules:

Sum of individual times          ...       33.115 sec (=   0.552 min)
Startup calculation              ...        0.978 sec (=   0.016 min)   3.0 %
SCF iterations                   ...       30.538 sec (=   0.509 min)  92.2 %
Property calculations            ...        1.598 sec (=   0.027 min)   4.8 %
                             ****ORCA TERMINATED NORMALLY****
TOTAL RUN TIME: 0 days 0 hours 0 minutes 38 seconds 707 msec
