16
 energy: -23.105663178106 gnorm: 0.020441785195 xtb: 6.7.1 (edcfbbe)
C           -2.28536906876104       -0.32232880051310       -0.08527450142787
C           -1.84719708355140        0.99597519430616       -0.15989940939507
C           -0.48949238748786        1.28580622410578       -0.05677342787274
C            0.44282557179102        0.26555807594818        0.13398664887248
C           -0.00465870122785       -1.05587903485125        0.20686143000895
C           -1.35973950802574       -1.34739071999103        0.09627875102939
C            1.91297914778218        0.58175137191578        0.26983571929468
O            2.75884331786774       -0.37219439507776       -0.37309082920143
H           -3.34265204005290       -0.55119313186150       -0.17241465774588
H           -2.56164150864483        1.79954799015812       -0.30877733076914
H           -0.14954528991726        2.31601815694041       -0.12651096803571
H            0.72031009788073       -1.85145284162204        0.34807837008680
H           -1.69619485364423       -2.37793878413178        0.15394564190342
H            2.10648842444273        1.60035769636330       -0.10073067937214
H            2.20736836848837        0.55841896962202        1.32585657358626
H            2.47052733823008       -0.43998141403978       -1.29119225793240
16
 energy: -23.106348871276 gnorm: 0.007030426883 xtb: 6.7.1 (edcfbbe)
C           -2.27529813483508       -0.32190288554494       -0.08823791307257
C           -1.84053141810256        0.99108092954022       -0.16265148483876
C           -0.49095659826373        1.28273413105481       -0.05494323998113
C            0.43688450921387        0.26679376979951        0.13676016232009
C           -0.00689718090879       -1.04933100938304        0.20763088301592
C           -1.35459682506671       -1.34162635754434        0.09367684377637
C            1.90576997009893        0.58012413912865        0.26902275134072
O            2.74395929695637       -0.36814989401913       -0.36896312169174
H           -3.32856865391461       -0.55036355588371       -0.17197919335729
H           -2.55337874209512        1.79111428464953       -0.30681901971408
H           -0.15443042577849        2.30965754313614       -0.11664465396540
H            0.71592751483009       -1.84069273719541        0.35136273541447
H           -1.68901157969088       -2.36830319188187        0.15149748476446
H            2.11010154762064        1.59047082647939       -0.11515333388722
H            2.19947720476540        0.55305539393276        1.32419714950850
H            2.46440134034043       -0.43958682899708       -1.28857697660276
16
 energy: -23.106403082233 gnorm: 0.002743705903 xtb: 6.7.1 (edcfbbe)
C           -2.27271691533707       -0.32208696374125       -0.08881529245438
C           -1.83996620797026        0.99072282089121       -0.16020641566489
C           -0.49237107149280        1.28438256002967       -0.05110154121580
C            0.43492845445557        0.26904962167125        0.13814042281601
C           -0.00642545653033       -1.04628504348557        0.20799785883133
C           -1.35252640585139       -1.34028626377582        0.09329164721698
C            1.90487293890521        0.57879759177317        0.26663955424663
O            2.73730929698615       -0.37037369116223       -0.36619157408032
H           -3.32435085457178       -0.55131188246396       -0.17615564746390
H           -2.55284601712308        1.78876881218345       -0.30652970805331
H           -0.15692878895840        2.31025028209839       -0.11118008947441
H            0.71700442926264       -1.83556553897681        0.35205202102157
H           -1.68519639323398       -2.36637810495556        0.14901407804289
H            2.11059119256004        1.58723557551373       -0.12136796861409
H            2.19714926272439        0.55422446095073        1.32188031719993
H            2.46432436134486       -0.44606967927890       -1.28728858932467
16
 energy: -23.106415666734 gnorm: 0.000822535612 xtb: 6.7.1 (edcfbbe)
C           -2.27229866302604       -0.32247249895189       -0.09004036819022
C           -1.84062657066095        0.99098272297564       -0.15915596903553
C           -0.49341839078810        1.28612912826273       -0.04889504059959
C            0.43418551134376        0.27073113519738        0.13861141732913
C           -0.00588687751214       -1.04490919013746        0.20766224791860
C           -1.35179238393610       -1.34029080723209        0.09226088407491
C            1.90544320559354        0.57849849583722        0.26456345247889
O            2.73465009569391       -0.37361365604967       -0.36284955248935
H           -3.32363099832149       -0.55212185921873       -0.17861084529788
H           -2.55443539272367        1.78838456641629       -0.30382870375116
H           -0.15859239134516        2.31213358844176       -0.10635642359789
H            0.71857167406470       -1.83320362315782        0.35114870914203
H           -1.68348995537605       -2.36657663801450        0.14719828361624
H            2.11102925416961        1.58599935898638       -0.12672149543758
H            2.19685144211014        0.55876429279720        1.32022424989086
H            2.46629226588381       -0.45336045888095       -1.28503177302189
16
 energy: -23.106423879724 gnorm: 0.001345997918 xtb: 6.7.1 (edcfbbe)
C           -2.27273199569307       -0.32282590330369       -0.09033827511819
C           -1.84218431495909        0.99161705973723       -0.15580857965870
C           -0.49492739540837        1.28821770896159       -0.04566566687120
C            0.43352722524541        0.27246575049419        0.13773215383858
C           -0.00535417265879       -1.04389939325176        0.20493672105645
C           -1.35146725434752       -1.34067573985378        0.09001878568570
C            1.90639979022864        0.57895132266508        0.26155598557092
O            2.73347928236774       -0.37897357906874       -0.35557050007642
H           -3.32406593093028       -0.55286513782815       -0.18075640023209
H           -2.55738280553860        1.78846850945928       -0.29856325035464
H           -0.16072061109908        2.31474129376746       -0.10041257425612
H            0.72053758766545       -1.83134664061991        0.34731125096749
H           -1.68217018021754       -2.36752815016075        0.14372339993022
H            2.11163260124513        1.58436977780190       -0.13682632171550
H            2.19629860007672        0.56932474338898        1.31816707113859
H            2.47198139919300       -0.46496706491745       -1.27932472687553
16
 energy: -23.106430617269 gnorm: 0.001226609387 xtb: 6.7.1 (edcfbbe)
C           -2.27317380047387       -0.32282915454737       -0.09009204775295
C           -1.84291120830832        0.99184084335901       -0.15374556599393
C           -0.49558420453957        1.28857069027902       -0.04408422020561
C            0.43333789649099        0.27271245047066        0.13670406479844
C           -0.00533268018054       -1.04390673607627        0.20241629001750
C           -1.35152950138167       -1.34080799552706        0.08810192556012
C            1.90629224821697        0.58015093561093        0.25984628249141
O            2.73463409670473       -0.38208001275968       -0.34918994587858
H           -3.32471706841360       -0.55279800640169       -0.17974129022806
H           -2.55870317588714        1.78881751178046       -0.29383610430760
H           -0.16168357770613        2.31543803941507       -0.09721708953000
H            0.72102948321037       -1.83145306807001        0.34267090848372
H           -1.68195734567681       -2.36794910663968        0.14040984122426
H            2.11164122135991        1.58294509976440       -0.14553059826422
H            2.19499908902292        0.57863516824318        1.31696436040518
H            2.47651035273154       -0.47221210162948       -1.27349773779011
16
 energy: -23.106444969788 gnorm: 0.000602682042 xtb: 6.7.1 (edcfbbe)
C           -2.27392257895226       -0.32265388650874       -0.08884011774050
C           -1.84413261794771        0.99232034538637       -0.14802816086436
C           -0.49674159535608        1.28876133628317       -0.03966795542209
C            0.43315630076154        0.27264137305826        0.13456077397965
C           -0.00517478375446       -1.04429195841910        0.19612301616733
C           -1.35149940467282       -1.34088669454041        0.08356898691739
C            1.90537303527462        0.58319171443454        0.25637431178749
O            2.73734438992350       -0.38807523384992       -0.33538130644361
H           -3.32556653898907       -0.55264267058060       -0.17811337362455
H           -2.56035062567199        1.78955320026011       -0.28474699522583
H           -0.16332144807157        2.31603461361493       -0.09011048849777
H            0.72142147446844       -1.83228438294970        0.33327660110069
H           -1.68159364850200       -2.36837680529640        0.13292642433305
H            2.11105397869362        1.57908975893435       -0.16558404577472
H            2.19190819378403        0.59965841505539        1.31409715475650
H            2.48489769418198       -0.48696456761079       -1.26027575241913
16
 energy: -23.106460554259 gnorm: 0.001317302478 xtb: 6.7.1 (edcfbbe)
C           -2.27458926563933       -0.32259966455892       -0.08785995249588
C           -1.84596784840991        0.99298490984517       -0.14076157817121
C           -0.49871669286852        1.28956300804007       -0.03429596180137
C            0.43269327456973        0.27329685384603        0.13122182284081
C           -0.00450798812089       -1.04400002380711        0.18734030081786
C           -1.35091381183514       -1.34072161399458        0.07691617061101
C            1.90392858445905        0.58774648297918        0.25076039600173
O            2.74061904607461       -0.39697766749299       -0.31350369728119
H           -3.32623849555946       -0.55293892069938       -0.17470561034112
H           -2.56314164181723        1.79069316364228       -0.26908923566724
H           -0.16630738181267        2.31740833046728       -0.07854834480625
H            0.72268624610466       -1.83259423325306        0.31737401799212
H           -1.68003470464587       -2.36871324948018        0.12099570572597
H            2.11036691912289        1.57284618566265       -0.19579634344868
H            2.18638868488484        0.63140454699955        1.30911355108011
H            2.49658690066303       -0.51232355092452       -1.23898216802711
16
 energy: -23.106472788115 gnorm: 0.001688584380 xtb: 6.7.1 (edcfbbe)
C           -2.27532929452341       -0.32261322715764       -0.08611518228353
C           -1.84810970489127        0.99379667504589       -0.13237409682867
C           -0.50088110174981        1.29094365521944       -0.02859927844504
C            0.43230845549145        0.27451441559760        0.12750010703688
C           -0.00346081610676       -1.04338628181219        0.17734040704991
C           -1.35008835232313       -1.34068277843679        0.06941937770132
C            1.90306232187508        0.59204412690071        0.24522933244699
O            2.74359487280384       -0.40445030171834       -0.29248420359394
H           -3.32698568990919       -0.55358649655182       -0.17139120519986
H           -2.56630794231560        1.79154545280848       -0.25454933044814
H           -0.16928880741721        2.31918659160805       -0.06891071696822
H            0.72431978927316       -1.83219264560948        0.30277408394980
H           -1.67808871176757       -2.36922684055746        0.10937174411398
H            2.11059129673429        1.56679578049536       -0.22319587116799
H            2.18133322463488        0.66091385731480        1.30350447097455
H            2.50618228536101       -0.53852742587513       -1.21734056530852
16
 energy: -23.106485702729 gnorm: 0.001480136842 xtb: 6.7.1 (edcfbbe)
C           -2.27583358797733       -0.32269714093829       -0.08392714628979
C           -1.85027912684798        0.99456766820810       -0.12347793478513
C           -0.50309979995526        1.29265103954712       -0.02356376485652
C            0.43203552498548        0.27629923676085        0.12250491036715
C           -0.00195407531963       -1.04217822989077        0.16593048882207
C           -1.34880664359965       -1.34042296856671        0.06136671453475
C            1.90224535423116        0.59710968119423        0.23875110784096
O            2.74687008596594       -0.41148323031366       -0.26753624773465
H           -3.32753620350834       -0.55446439979967       -0.16638355811803
H           -2.57000093420010        1.79231338145689       -0.23661719508011
H           -0.17265900673677        2.32150174936933       -0.05779513001408
H            0.72671741446525       -1.83132852101991        0.28407530876584
H           -1.67509915143196       -2.36976732386066        0.09468840431963
H            2.11103196069320        1.55929524438579       -0.25424951977691
H            2.17460851634548        0.69495758855740        1.29615219909430
H            2.51461149806029       -0.57127921781857       -1.18973956405996
16
 energy: -23.106493464206 gnorm: 0.000723232876 xtb: 6.7.1 (edcfbbe)
C           -2.27600141888620       -0.32286293363779       -0.08256798971331
C           -1.85192154096940        0.99519099068513       -0.11593123458887
C           -0.50483059192673        1.29423418242382       -0.01921663629641
C            0.43190908784006        0.27797810274274        0.11823953221519
C           -0.00046192880850       -1.04109539258742        0.15528618733501
C           -1.34740035212419       -1.34035398151970        0.05300812701392
C            1.90188308886032        0.60123322686588        0.23318158740056
O            2.74979190966316       -0.41560162666367       -0.24713176673794
H           -3.32787358440039       -0.55513302812003       -0.16081502933353
H           -2.57288154455039        1.79271216587834       -0.22174858569911
H           -0.17524005541392        2.32330696506497       -0.05000245818203
H            0.72870772327757       -1.83037610523356        0.26874852137728
H           -1.67241859171225       -2.37003680838895        0.08342369140390
H            2.11162940543516        1.55321885426044       -0.27827032757913
H            2.16844234600785        0.72188871271628        1.28923492550732
H            2.51951787287765       -0.59922876721502       -1.16525947109334
16
 energy: -23.106494936623 gnorm: 0.000288785014 xtb: 6.7.1 (edcfbbe)
C           -2.27613090641651       -0.32279138465087       -0.08047532738863
C           -1.85254261430540        0.99544777749839       -0.11208147308386
C           -0.50538384499724        1.29477348179458       -0.01791503352088
C            0.43201414424718        0.27854957126275        0.11540938994730
C            0.00023516154442       -1.04062875228090        0.15054356812441
C           -1.34692587870498       -1.34013848570757        0.05085398224618
C            1.90176311938588        0.60322725500591        0.23043142346101
O            2.75124307614801       -0.41702016332003       -0.23746588366525
H           -3.32780124977446       -0.55547665512832       -0.15924747782459
H           -2.57395249956185        1.79280678381021       -0.21497760776656
H           -0.17626423769920        2.32411449733527       -0.04554253369873
H            0.72961710533904       -1.83018856612033        0.26089293294535
H           -1.67115102396468       -2.37028666453931        0.07679845296548
H            2.11167610399150        1.55034157274349       -0.29008626255813
H            2.16528534411669        0.73516513339631        1.28587404365562
H            2.52117002582139       -0.61282084382812       -1.15283312080920
16
 energy: -23.106495309039 gnorm: 0.000094424599 xtb: 6.7.1 (edcfbbe)
C           -2.27602182899366       -0.32289744853328       -0.08119981946102
C           -1.85260573168149        0.99547612119469       -0.11153600407457
C           -0.50552131385231        1.29487456005924       -0.01705430835433
C            0.43199172557290        0.27865031275790        0.11535139987896
C            0.00037169815577       -1.04059055960528        0.14960812736857
C           -1.34672168644356       -1.34019348132436        0.04944597819015
C            1.90168526057029        0.60372884324411        0.22971196634528
O            2.75163890727785       -0.41715211740272       -0.23561641731688
H           -3.32781245453173       -0.55552118144861       -0.15860485142198
H           -2.57411921881635        1.79293154953825       -0.21327862392409
H           -0.17641123588950        2.32416802976304       -0.04452472528478
H            0.72968308737001       -1.83023731670389        0.25963342233520
H           -1.67098765391480       -2.37021002564185        0.07613133143873
H            2.11157245986637        1.54987514485948       -0.29258186895290
H            2.16472344050116        0.73796332403333        1.28491046960646
H            2.52138636997884       -0.61579119751859       -1.15021700334331
16
 energy: -23.106495329695 gnorm: 0.000095691223 xtb: 6.7.1 (edcfbbe)
C           -2.27606720005913       -0.32287547612852       -0.08111326980164
C           -1.85270915949886        0.99552371637668       -0.11107047127640
C           -0.50562342188354        1.29490909528157       -0.01665704144812
C            0.43199996149581        0.27867573869971        0.11521700181938
C            0.00044140521586       -1.04059708981321        0.14909338336937
C           -1.34667656796677       -1.34019469687319        0.04900325763479
C            1.90164561155292        0.60401406302970        0.22935072937859
O            2.75194991929543       -0.41734112667353       -0.23457133890647
H           -3.32784152596380       -0.55552589724020       -0.15868760909852
H           -2.57425454679411        1.79298658418700       -0.21248885685932
H           -0.17654299676918        2.32422387286354       -0.04378899559794
H            0.72972936133075       -1.83028492600945        0.25898237769455
H           -1.67091273887443       -2.37024127626810        0.07549054180671
H            2.11141760293595        1.54958902695319       -0.29411071160165
H            2.16459527761063        0.73966898570869        1.28443853368894
H            2.52170084354229       -0.61745603682242       -1.14890845777278
