 Entering Gaussian System
 *********************************************
 Gaussian 98:
 frequency output generated by the xtb code
 *********************************************
                         Standard orientation:
 --------------------------------------------------------------------
  Center     Atomic     Atomic              Coordinates (Angstroms)
  Number     Number      Type              X           Y           Z
 --------------------------------------------------------------------
    1          6             0       -0.611434    0.019884    0.463596
    2          6             0        0.611463   -0.001913   -0.464150
    3          8             0        1.823670    0.047933    0.242462
    4          8             0       -1.823812    0.022710   -0.244475
    5          1             0       -0.607423    0.936054    1.057900
    6          1             0       -0.562977   -0.841443    1.150931
    7          1             0        0.601676    0.879869   -1.108312
    8          1             0        0.568660   -0.900300   -1.102688
    9          1             0        1.861484   -0.692133    0.859347
   10          1             0       -1.856751   -0.750616   -0.819412
 --------------------------------------------------------------------
     1 basis functions        1 primitive gaussians
     1 alpha electrons        1 beta electrons
 
 Harmonic frequencies (cm**-1), IR intensities (km*mol⁻¹),
 Raman scattering activities (A**4/amu), Raman depolarization ratios,
 reduced masses (AMU), force constants (mDyne/A) and normal coordinates:
                      1                      2                      3
                        a                      a                      a 
 Frequencies --   110.1096               277.3443               326.1206
 Red. masses --     9.7579                 9.6528                 2.2451
 Frc consts  --     0.0000                 0.0000                 0.0000
 IR Inten    --     1.2901                 9.7943                98.8368
 Raman Activ --     0.0000                 0.0000                 0.0000
 Depolar     --     0.0000                 0.0000                 0.0000
 Atom AN      X      Y      Z        X      Y      Z        X      Y      Z
   1   6    -0.00   0.41  -0.01    -0.20   0.05   0.38    -0.06  -0.06  -0.03
   2   6     0.00   0.41  -0.01    -0.20  -0.03   0.39     0.06  -0.05   0.03
   3   8     0.01  -0.41   0.03     0.19   0.01  -0.34     0.02   0.14   0.13
   4   8    -0.01  -0.41  -0.00     0.19  -0.02  -0.34    -0.02   0.13  -0.14
   5   1    -0.10   0.19  -0.11    -0.13   0.03   0.08     0.01  -0.00  -0.03
   6   1     0.10   0.20   0.10    -0.14   0.03   0.13    -0.05   0.00   0.01
   7   1     0.10   0.19   0.10    -0.13  -0.03   0.09    -0.01  -0.00   0.03
   8   1    -0.10   0.20  -0.11    -0.14  -0.02   0.13     0.05   0.00  -0.01
   9   1    -0.08  -0.18  -0.09     0.23  -0.08  -0.20     0.34  -0.36  -0.46
  10   1     0.08  -0.18   0.10     0.23   0.07  -0.20    -0.34  -0.33   0.48
                      4                      5                      6
                        a                      a                      a 
 Frequencies --   368.9512               470.6319               817.9771
 Red. masses --     4.2996                13.5216                 2.0722
 Frc consts  --     0.0000                 0.0000                 0.0000
 IR Inten    --   243.7994                 4.1085                 4.3884
 Raman Activ --     0.0000                 0.0000                 0.0000
 Depolar     --     0.0000                 0.0000                 0.0000
 Atom AN      X      Y      Z        X      Y      Z        X      Y      Z
   1   6    -0.06  -0.13   0.12     0.25  -0.01   0.18    -0.02   0.21   0.01
   2   6    -0.06   0.14   0.12    -0.25  -0.03  -0.18     0.01   0.21  -0.02
   3   8     0.14  -0.12  -0.22    -0.58   0.04   0.07     0.01  -0.05   0.02
   4   8     0.14   0.10  -0.23     0.58   0.04  -0.07    -0.01  -0.05  -0.02
   5   1    -0.06  -0.08   0.10     0.11   0.00   0.04    -0.17  -0.21   0.40
   6   1    -0.05  -0.08  -0.03     0.09  -0.00   0.05     0.15  -0.24  -0.36
   7   1    -0.06   0.08   0.09    -0.11  -0.00  -0.04     0.17  -0.23  -0.38
   8   1    -0.05   0.08  -0.03    -0.09  -0.01  -0.05    -0.15  -0.22   0.38
   9   1    -0.26   0.34   0.41    -0.14  -0.08  -0.09    -0.06  -0.08  -0.07
  10   1    -0.25  -0.32   0.43     0.14  -0.07   0.09     0.06  -0.07   0.08
                      7                      8                      9
                        a                      a                      a 
 Frequencies --   997.3959              1027.1351              1093.6724
 Red. masses --     9.9256                 4.3954                 9.0130
 Frc consts  --     0.0000                 0.0000                 0.0000
 IR Inten    --     3.5894               130.7544                 0.6007
 Raman Activ --     0.0000                 0.0000                 0.0000
 Depolar     --     0.0000                 0.0000                 0.0000
 Atom AN      X      Y      Z        X      Y      Z        X      Y      Z
   1   6     0.19  -0.00  -0.55    -0.07  -0.31  -0.02    -0.44  -0.06   0.05
   2   6    -0.19   0.02   0.55    -0.07   0.31  -0.04     0.44  -0.06  -0.04
   3   8    -0.17  -0.03  -0.13     0.18  -0.04   0.06    -0.30   0.02  -0.18
   4   8     0.17  -0.02   0.13     0.18   0.04   0.06     0.30   0.03   0.17
   5   1    -0.06  -0.01  -0.13    -0.23   0.11  -0.28    -0.40   0.01  -0.02
   6   1     0.16   0.00  -0.13     0.07   0.13   0.25    -0.01   0.03   0.07
   7   1     0.06  -0.00   0.13    -0.22  -0.12  -0.27     0.40   0.02   0.02
   8   1    -0.16   0.01   0.13     0.07  -0.12   0.26     0.01   0.02  -0.08
   9   1     0.20   0.07   0.04    -0.32  -0.14  -0.12     0.09   0.06   0.01
  10   1    -0.20   0.06  -0.05    -0.32   0.13  -0.13    -0.09   0.05  -0.02
                     10                     11                     12
                        a                      a                      a 
 Frequencies --  1098.4169              1137.1101              1228.5346
 Red. masses --    12.3325                 4.9074                 3.8476
 Frc consts  --     0.0000                 0.0000                 0.0000
 IR Inten    --    97.8775                 0.0347                29.4435
 Raman Activ --     0.0000                 0.0000                 0.0000
 Depolar     --     0.0000                 0.0000                 0.0000
 Atom AN      X      Y      Z        X      Y      Z        X      Y      Z
   1   6    -0.43   0.08  -0.26    -0.23   0.05  -0.26    -0.14  -0.31   0.02
   2   6    -0.43  -0.10  -0.26     0.23   0.07   0.26    -0.15   0.31   0.01
   3   8     0.37   0.01   0.23    -0.10  -0.02  -0.16    -0.05  -0.07  -0.02
   4   8     0.37   0.00   0.23     0.10  -0.01   0.17    -0.05   0.06  -0.02
   5   1    -0.06  -0.03   0.01     0.26  -0.03   0.01     0.47   0.06  -0.21
   6   1    -0.07  -0.04  -0.13    -0.35  -0.04  -0.10    -0.03   0.05   0.15
   7   1    -0.06   0.03   0.01    -0.26  -0.03  -0.00     0.47  -0.07  -0.20
   8   1    -0.07   0.03  -0.13     0.35  -0.03   0.10    -0.03  -0.04   0.15
   9   1     0.15   0.02   0.07    -0.33  -0.10  -0.14     0.25   0.08   0.09
  10   1     0.15  -0.02   0.07     0.33  -0.09   0.14     0.25  -0.07   0.09
                     13                     14                     15
                        a                      a                      a 
 Frequencies --  1290.8371              1325.1158              1329.7270
 Red. masses --     2.0478                 3.5521                 3.6941
 Frc consts  --     0.0000                 0.0000                 0.0000
 IR Inten    --    10.5685                17.3351               128.3977
 Raman Activ --     0.0000                 0.0000                 0.0000
 Depolar     --     0.0000                 0.0000                 0.0000
 Atom AN      X      Y      Z        X      Y      Z        X      Y      Z
   1   6     0.11   0.01  -0.04    -0.04  -0.19  -0.10     0.20  -0.16  -0.11
   2   6     0.11  -0.01  -0.04     0.04  -0.18   0.11     0.20   0.16  -0.12
   3   8     0.07   0.13   0.05     0.13   0.18   0.00    -0.11  -0.12   0.07
   4   8     0.07  -0.13   0.05    -0.14   0.18  -0.01    -0.11   0.13   0.06
   5   1     0.16  -0.01   0.01    -0.14   0.01  -0.12    -0.39   0.00  -0.09
   6   1    -0.62  -0.02   0.00     0.39   0.04   0.06    -0.24   0.03   0.07
   7   1     0.16   0.01   0.01     0.14   0.01   0.12    -0.39  -0.01  -0.09
   8   1    -0.62   0.01   0.00    -0.39   0.03  -0.06    -0.24  -0.03   0.07
   9   1    -0.21  -0.05  -0.08    -0.42  -0.12  -0.16     0.37   0.10   0.14
  10   1    -0.21   0.05  -0.08     0.42  -0.11   0.17     0.37  -0.09   0.15
                     16                     17                     18
                        a                      a                      a 
 Frequencies --  1357.5680              1476.0940              1478.8139
 Red. masses --     4.0544                 1.9362                 1.7426
 Frc consts  --     0.0000                 0.0000                 0.0000
 IR Inten    --     1.3836                 1.0403                 1.3481
 Raman Activ --     0.0000                 0.0000                 0.0000
 Depolar     --     0.0000                 0.0000                 0.0000
 Atom AN      X      Y      Z        X      Y      Z        X      Y      Z
   1   6     0.36  -0.04  -0.02    -0.01  -0.02  -0.20    -0.01   0.01   0.18
   2   6    -0.36  -0.04   0.02    -0.01   0.01  -0.20     0.01   0.00  -0.18
   3   8     0.06   0.05  -0.04    -0.00  -0.00  -0.02    -0.01  -0.00  -0.02
   4   8    -0.06   0.05   0.04    -0.00   0.00  -0.02     0.01  -0.00   0.02
   5   1    -0.43  -0.00  -0.02     0.04  -0.27   0.39    -0.01   0.27  -0.40
   6   1    -0.38  -0.01   0.02     0.02   0.30   0.38    -0.00  -0.30  -0.38
   7   1     0.43   0.00   0.02     0.04   0.29   0.37     0.01   0.29   0.39
   8   1     0.38  -0.01  -0.02     0.02  -0.28   0.39     0.01  -0.28   0.39
   9   1    -0.14  -0.05  -0.07    -0.00   0.00  -0.00    -0.01  -0.00  -0.01
  10   1     0.14  -0.04   0.07    -0.00  -0.00  -0.00     0.01  -0.00   0.01
                     19                     20                     21
                        a                      a                      a 
 Frequencies --  2838.9826              2841.4092              2991.0943
 Red. masses --     1.7190                 1.7121                 1.6819
 Frc consts  --     0.0000                 0.0000                 0.0000
 IR Inten    --    81.8728                79.0868                23.8873
 Raman Activ --     0.0000                 0.0000                 0.0000
 Depolar     --     0.0000                 0.0000                 0.0000
 Atom AN      X      Y      Z        X      Y      Z        X      Y      Z
   1   6     0.00   0.15  -0.10     0.00   0.15  -0.10    -0.00   0.14   0.11
   2   6     0.00  -0.15  -0.09    -0.00   0.15   0.09    -0.00  -0.13   0.12
   3   8    -0.01  -0.00  -0.01     0.01   0.00   0.01     0.00  -0.00   0.00
   4   8    -0.01   0.00  -0.01    -0.01   0.00  -0.01     0.00   0.00   0.00
   5   1     0.00  -0.03  -0.06    -0.00   0.02  -0.02    -0.00  -0.58  -0.36
   6   1     0.02  -0.54   0.42     0.02  -0.54   0.42    -0.00   0.07  -0.03
   7   1     0.00   0.03  -0.06    -0.00   0.02   0.01    -0.01   0.56  -0.39
   8   1     0.02   0.56   0.39    -0.02  -0.57  -0.39    -0.00  -0.07  -0.02
   9   1     0.00   0.00   0.00     0.00  -0.00  -0.00    -0.00  -0.01   0.01
  10   1     0.00  -0.00   0.00    -0.00  -0.00   0.00    -0.00   0.01   0.01
                     22                     23                     24
                        a                      a                      a 
 Frequencies --  2992.6952              3534.6923              3535.1486
 Red. masses --     1.7495                 1.8719                 1.8709
 Frc consts  --     0.0000                 0.0000                 0.0000
 IR Inten    --    20.4155                 9.0226                 4.5067
 Raman Activ --     0.0000                 0.0000                 0.0000
 Depolar     --     0.0000                 0.0000                 0.0000
 Atom AN      X      Y      Z        X      Y      Z        X      Y      Z
   1   6    -0.00   0.16   0.09     0.00   0.00   0.01     0.00   0.00   0.00
   2   6    -0.00   0.15  -0.10    -0.00   0.00  -0.01     0.00  -0.00   0.00
   3   8    -0.00   0.00  -0.00    -0.01   0.13  -0.11     0.01  -0.13   0.11
   4   8     0.00   0.00   0.00     0.00   0.14   0.10     0.00   0.13   0.10
   5   1    -0.00  -0.58  -0.36     0.00  -0.01  -0.00     0.00  -0.01  -0.00
   6   1    -0.00   0.02   0.01    -0.00   0.00  -0.00     0.00  -0.00  -0.00
   7   1     0.01  -0.56   0.39    -0.00  -0.01   0.00     0.00   0.01  -0.00
   8   1     0.00   0.02  -0.01     0.00   0.00   0.00     0.00   0.00  -0.00
   9   1     0.00   0.01  -0.00     0.03  -0.52   0.43    -0.03   0.53  -0.45
  10   1    -0.00   0.01   0.00    -0.03  -0.56  -0.42    -0.03  -0.54  -0.40
