
                                 *****************
                                 * O   R   C   A *
                                 *****************

                                            #,                                       
                                            ###                                      
                                            ####                                     
                                            #####                                    
                                            ######                                   
                                           ########,                                 
                                     ,,################,,,,,                         
                               ,,#################################,,                 
                          ,,##########################################,,             
                       ,#########################################, ''#####,          
                    ,#############################################,,   '####,        
                  ,##################################################,,,,####,       
                ,###########''''           ''''###############################       
              ,#####''   ,,,,##########,,,,          '''####'''          '####       
            ,##' ,,,,###########################,,,                        '##       
           ' ,,###''''                  '''############,,,                           
         ,,##''                                '''############,,,,        ,,,,,,###''
      ,#''                                            '''#######################'''  
     '                                                          ''''####''''         
             ,#######,   #######,   ,#######,      ##                                
            ,#'     '#,  ##    ##  ,#'     '#,    #''#        ,####,   ,####,        
            ##       ##  ##   ,#'  ##            #'  '#       #'       #'  '#        
            ##       ##  #######   ##           ,######,      #####,   #    #        
            '#,     ,#'  ##    ##  '#,     ,#' ,#      #,     #,   #   #,  ,#        
             '#######'   ##     ##  '#######'  #'      '#     '####' # '####'        



                #########################################################
                #                        -***-                          #
                #          Department of theory and spectroscopy        #
                #                                                       #
                #                      Frank Neese                      #
                #                                                       #
                #     Directorship, Architecture, Infrastructure        #
                #                    SHARK, DRIVERS                     #
                #        Core code/Algorithms in most modules           #
                #                                                       #
                #        Max Planck Institute fuer Kohlenforschung      #
                #                Kaiser Wilhelm Platz 1                 #
                #                 D-45470 Muelheim/Ruhr                 #
                #                      Germany                          #
                #                                                       #
                #                  All rights reserved                  #
                #                        -***-                          #
                #########################################################


                         Program Version 6.0.1  -  RELEASE   -


 With contributions from (in alphabetic order):
[Max-Planck-Institut fuer Kohlenforschung]                               
  Daniel Aravena         : Magnetic Suceptibility                        
  Michael Atanasov       : Ab Initio Ligand Field Theory (pilot matlab implementation)
  Alexander A. Auer      : GIAO ZORA, VPT2 properties, NMR spectrum      
  Ute Becker             : All parallelization in ORCA, NUMFREQ, NUMCALC 
  Giovanni Bistoni       : ED, misc. LED, open-shell LED, HFLD           
  Martin Brehm           : Molecular dynamics                            
  Dmytro Bykov           : pre 5.0 version of the SCF Hessian            
  Marcos Casanova-Páez   : Triplet and SCS-CIS(D). UHF-(DLPNO)-IP/EA/STEOM-CCSD. UHF-CVS-IP/STEOM-CCSD   
  Vijay G. Chilkuri      : MRCI spin determinant printing, contributions to CSF-ICE 
  Pauline Colinet        : FMM embedding                                 
  Dipayan Datta          : RHF DLPNO-CCSD density                        
  Achintya Kumar Dutta   : EOM-CC, STEOM-CC                              
  Nicolas Foglia         : Exact transition moments, OPA infrastructure, MCD improvements    
  Dmitry Ganyushin       : Spin-Orbit,Spin-Spin,Magnetic field MRCI      
  Miquel Garcia-Rates    : C-PCM and meta-GGA Hessian, CCSD/C-PCM, Gaussian charge scheme 
  Tiago L. C. Gouveia    : GS-ROHF, GS-ROCIS                             
  Yang Guo               : DLPNO-NEVPT2, F12-NEVPT2, CIM, IAO-localization        
  Andreas Hansen         : Spin unrestricted coupled pair/coupled cluster methods 
  Ingolf Harden          : AUTO-CI MPn and infrastructure                
  Benjamin Helmich-Paris : MC-RPA, TRAH-(SCF,CASSCF), AVAS, COSX integrals, SCF dyn. polar. 
  Lee Huntington         : MR-EOM, pCC                                   
  Robert Izsak           : Overlap fitted RIJCOSX, COSX-SCS-MP3, EOM     
  Riya Kayal             : Wick's Theorem for AUTO-CI, AUTO-CI UHF-CCSDT 
  Emily Kempfer          : AUTO-CI, RHF CISDT and CCSDT                  
  Christian Kollmar      : KDIIS, OOCD, Brueckner-CCSD(T), CCSD density, CASPT2, CASPT2-K, improved NEVPT2 
  Axel Koslowski         : Symmetry handling                             
  Simone Kossmann        : meta-GGA functionals, TD-DFT gradient, OOMP2, (MP2 Hessian; deprecated post 5.0) 
  Lucas Lang             : DCDCAS                                        
  Marvin Lechner         : AUTO-CI (C++ implementation), FIC-MRCC        
  Spencer Leger          : CASSCF response                               
  Dagmar Lenk            : GEPOL surface, SMD, ORCA-2-JSON               
  Dimitrios Liakos       : Extrapolation schemes; Compound Job, initial MDCI parallelization 
  Dimitrios Manganas     : Further ROCIS development; embedding schemes. LFT, Crystal Embedding 
  Dimitrios Pantazis     : SARC Basis sets                               
  Anastasios Papadopoulos: AUTO-CI, single reference methods and gradients 
  Taras Petrenko         : pre 6.0 DFT Hessian and TD-DFT gradient, (ASA, deprecated), ECA, 1-Electron XAS/XES, NRVS 
  Peter Pinski           : DLPNO-MP2, DLPNO-MP2 Gradient                 
  Christoph Reimann      : Effective Core Potentials                     
  Marius Retegan         : Local ZFS, SOC                                
  Christoph Riplinger    : Optimizer, TS searches, QM/MM, DLPNO-CCSD(T), (RO)-DLPNO pert. Triples 
  Michael Roemelt        : Original ROCIS implementation                 
  Masaaki Saitow         : Open-shell DLPNO-CCSD energy and density      
  Barbara Sandhoefer     : DKH picture change effects                    
  Kantharuban Sivalingam : CASSCF convergence/infrastructure, NEVPT2 and variants, FIC-MRCI 
  Bernardo de Souza      : ESD, SOC TD-DFT                               
  Georgi L. Stoychev     : AutoAux, RI-MP2 NMR, DLPNO-MP2 response, X2C  
  Van Anh Tran           : RI-MP2 g-tensors                              
  Willem Van den Heuvel  : Paramagnetic NMR                              
  Zikuan Wang            : NOTCH, Electric field optimization            
  Frank Wennmohs         : Technical directorship and infrastructure     
  Hang Xu                : AUTO-CI-Response properties                   
                                                                         
[FACCTs GmbH]                                                            
  Markus Bursch, Miquel Garcia-Rates, Christoph Riplinger, Bernardo de Souza, Georgi L. Stoychev 
                                                                 
  APM, Basis sets (HGBS, AHGBS, def-TZVP (Ac-Lr), def2-XVPD (La-Lu)), CI-OPT, improved COSX, DLPNO-Multilevel,           
  DOCKER, DRACO, updates on ESD, GOAT, IRC, LR-CPCM, MBIS, meta-GGA TD-DFT gradient, ML-optimized integration grids, 
  MM, NACMEs, nearIR, NEB, NEB-TS, NL-DFT gradient (VV10), 2- and 3-layer-ONIOM, interface openCOSMO-RS, QMMM,   
  Crystal-QMMM, SF, symmetry and pop. for TD-DFT, r2SCAN hybrids, SOLVATOR                                   
                                                                         
[Other institutions]                                                     
  V. Asgeirsson          : NEB                                           
  Christoph Bannwarth    : sTDA-DFT, sTD-DFT, PBEh-3c, B97-3c, D3        
  Sebastian Ehlert       : rSCAN, r2SCAN, r2SCAN-3c, D4, dhf basis sets  
  Marvin Friede          : D4 for Fr, Ra, Ac-Lr                          
  Lars Goerigk           : TD-DFT with DH, B97 family of functionals     
  Stefan Grimme          : VdW corrections, initial TS optimization, DFT functionals, gCP, sTDA/sTD-DF 
  Waldemar Hujo          : DFT-NL                                        
  H. Jonsson             : NEB                                           
  Holger Kruse           : gCP                                           
  Marcel Mueller         : wB97X-3c, vDZP basis set                      
  Hagen Neugebauer       : wr2SCAN                                       
  Tobias Risthaus        : range-separated hybrid DFT                    
  Lukas Wittmann         : regularized MP2, r2SCAN double-hybrids, wr2SCAN        
                                                                         
We gratefully acknowledge several colleagues who have allowed us to      
interface, adapt or use parts of their codes:                            
  Ed Valeev, F. Pavosevic, A. Kumar             : LibInt (2-el integral package), F12 methods 
  Garnet Chan, S. Sharma, J. Yang, R. Olivares  : DMRG                   
  Ulf Ekstrom                                   : XCFun DFT Library      
  Mihaly Kallay                                 : mrcc  (arbitrary order and MRCC methods)
  Frank Weinhold                                : gennbo (NPA and NBO analysis)           
  Simon Mueller                                 : openCOSMO-RS                            
  Christopher J. Cramer and Donald G. Truhlar   : smd solvation model                     
  S Lehtola, MJT Oliveira, MAL Marques          : LibXC Library                           
  Liviu Ungur et al                             : ANISO software                          


 Your calculation uses the libint2 library for the computation of 2-el integrals
 For citations please refer to: http://libint.valeyev.net

 Your ORCA version has been built with support for libXC version: 6.2.2
 For citations please refer to: https://libxc.gitlab.io

 This ORCA versions uses:
   CBLAS   interface :  Fast vector & matrix operations
   LAPACKE interface :  Fast linear algebra routines
   SCALAPACK package :  Parallel linear algebra routines
   Shared memory     :  Shared parallel matrices
   BLAS/LAPACK       :  OpenBLAS 0.3.27  USE64BITINT DYNAMIC_ARCH NO_AFFINITY Zen SINGLE_THREADED
        Core in use  :  Zen
   Copyright (c) 2011-2014, The OpenBLAS Project


Your calculation utilizes the geometrical counterpoise correction gCP
Please cite in your paper:
H.Kruse, S. Grimme J.Chem.Phys., 136, (2012), 154101 
   

Your calculation utilizes the atom-pairwise dispersion correction
based on EEQ partial charges (D4)


================================================================================

----- Orbital basis set information -----
Your calculation utilizes the basis: def2-SV(P)
   F. Weigend and R. Ahlrichs, Phys. Chem. Chem. Phys. 7, 3297 (2005).

----- AuxJ basis set information -----
Your calculation utilizes the auxiliary basis: def2/J
   F. Weigend, Phys. Chem. Chem. Phys. 8, 1057 (2006).

================================================================================
                                        WARNINGS
                       Please study these warnings very carefully!
================================================================================


================================================================================
                                       INPUT FILE
================================================================================
NAME = sp.inp
|  1> ! pbe def2-sv(p) def2/J RI DEFGRID1 loosescf d4 GCP(DFT/SV(P)) printgap
|  2> %output
|  3>     printlevel normal
|  4> end
|  5> * xyz 0 1
|  6> C 3.5761245368 -1.4842170399 -0.0644470725
|  7> C 4.6802147058 -0.6068445409 -0.5899415418
|  8> C 4.5821339399 0.7016836581 -0.7784928398
|  9> C 3.3669293931 1.5276115964 -0.4527893456
| 10> C 2.4664773418 0.6943443618 0.4443410862
| 11> H 2.9551945301 0.5934988697 1.4229399133
| 12> C 2.2779550229 -0.6994018618 -0.1521809868
| 13> H 2.0100598151 -0.5935854607 -1.2123620199
| 14> C 1.0311607124 -1.2037943571 0.5310583238
| 15> O 0.6568914718 -2.3153150397 0.7436248645
| 16> N 0.3099774217 -0.0394133683 0.8628731301
| 17> C 1.0574464733 1.1464846735 0.741339656
| 18> O 0.6162790828 2.2424227776 0.9037373348
| 19> S -1.2921352117 -0.070290748 1.4103373932
| 20> C -2.1750859284 0.005297189 -0.1989780047
| 21> Cl -3.8886855512 -0.074832776 0.2093750063
| 22> Cl -1.8237633678 1.5161065631 -1.0675826466
| 23> Cl -1.7315239196 -1.3629298893 -1.2452749857
| 24> H 3.7856232805 -1.7713369647 0.970232696
| 25> H 3.5176572429 -2.4034608201 -0.6495587163
| 26> H 5.60238098 -1.1162403954 -0.8291879792
| 27> H 5.4191809437 1.2499142484 -1.1858030011
| 28> H 3.6645483948 2.4530979818 0.0428330363
| 29> H 2.8454608995 1.8058145981 -1.3735094765
| 30> *
| 31> 
| 32>                          ****END OF INPUT****
================================================================================

                       ****************************
                       * Single Point Calculation *
                       ****************************

---------------------------------
CARTESIAN COORDINATES (ANGSTROEM)
---------------------------------
  C      3.576125   -1.484217   -0.064447
  C      4.680215   -0.606845   -0.589942
  C      4.582134    0.701684   -0.778493
  C      3.366929    1.527612   -0.452789
  C      2.466477    0.694344    0.444341
  H      2.955195    0.593499    1.422940
  C      2.277955   -0.699402   -0.152181
  H      2.010060   -0.593585   -1.212362
  C      1.031161   -1.203794    0.531058
  O      0.656891   -2.315315    0.743625
  N      0.309977   -0.039413    0.862873
  C      1.057446    1.146485    0.741340
  O      0.616279    2.242423    0.903737
  S     -1.292135   -0.070291    1.410337
  C     -2.175086    0.005297   -0.198978
  Cl    -3.888686   -0.074833    0.209375
  Cl    -1.823763    1.516107   -1.067583
  Cl    -1.731524   -1.362930   -1.245275
  H      3.785623   -1.771337    0.970233
  H      3.517657   -2.403461   -0.649559
  H      5.602381   -1.116240   -0.829188
  H      5.419181    1.249914   -1.185803
  H      3.664548    2.453098    0.042833
  H      2.845461    1.805815   -1.373509

----------------------------
CARTESIAN COORDINATES (A.U.)
----------------------------
  NO LB      ZA    FRAG     MASS         X           Y           Z
   0 C     6.0000    0    12.011    6.757896   -2.804764   -0.121787
   1 C     6.0000    0    12.011    8.844324   -1.146770   -1.114828
   2 C     6.0000    0    12.011    8.658978    1.325990   -1.471138
   3 C     6.0000    0    12.011    6.362574    2.886768   -0.855648
   4 C     6.0000    0    12.011    4.660967    1.312121    0.839683
   5 H     1.0000    0     1.008    5.584508    1.121550    2.688967
   6 C     6.0000    0    12.011    4.304711   -1.321678   -0.287580
   7 H     1.0000    0     1.008    3.798463   -1.121714   -2.291032
   8 C     6.0000    0    12.011    1.948611   -2.274842    1.003555
   9 O     8.0000    0    15.999    1.241345   -4.375311    1.405247
  10 N     7.0000    0    14.007    0.585772   -0.074480    1.630594
  11 C     6.0000    0    12.011    1.998284    2.166542    1.400929
  12 O     8.0000    0    15.999    1.164599    4.237565    1.707816
  13 S    16.0000    0    32.060   -2.441782   -0.132830    2.665151
  14 C     6.0000    0    12.011   -4.110317    0.010010   -0.376014
  15 Cl   17.0000    0    35.453   -7.348551   -0.141413    0.395661
  16 Cl   17.0000    0    35.453   -3.446413    2.865026   -2.017439
  17 Cl   17.0000    0    35.453   -3.272106   -2.575564   -2.353229
  18 H     1.0000    0     1.008    7.153791   -3.347342    1.833474
  19 H     1.0000    0     1.008    6.647409   -4.541883   -1.227488
  20 H     1.0000    0     1.008   10.586966   -2.109389   -1.566938
  21 H     1.0000    0     1.008   10.240768    2.361996   -2.240843
  22 H     1.0000    0     1.008    6.924993    4.635683    0.080943
  23 H     1.0000    0     1.008    5.377142    3.412495   -2.595557

--------------------------------
INTERNAL COORDINATES (ANGSTROEM)
--------------------------------
 C      0   0   0     0.000000000000     0.00000000     0.00000000
 C      1   0   0     1.504972438468     0.00000000     0.00000000
 C      2   1   0     1.325676233548   124.80787412     0.00000000
 C      3   2   1     1.504979008479   124.79605616     2.22270134
 C      4   3   2     1.519865517936   107.77307030    14.96541660
 H      5   4   3     1.098485306146   108.21578367    69.80664240
 C      1   2   3     1.519498664137   107.78821485    14.87325160
 H      7   1   2     1.098612204579   108.28819519    69.94196155
 C      7   1   2     1.508550230373   120.48121667   191.39000651
 O      9   7   1     1.191948080468   130.69858320   328.06001919
 N      9   7   1     1.409251394019   104.67493500   149.98181160
 C     11   9   7     1.407065930926   113.83962323   347.05723830
 O     12  11   9     1.192510796823   124.49083129   175.76791703
 S     11   9   7     1.693350354194   123.04059736   169.11628576
 C     14  11   9     1.837174883962    99.83161374   271.34653385
 Cl    15  14  11     1.763404848622   105.20712038   178.12672074
 Cl    15  14  11     1.777764475510   111.59129928   297.51576033
 Cl    15  14  11     1.778631486816   111.33343760    58.88898852
 H      1   2   3     1.094024587554   110.04429210   254.04065768
 H      1   2   3     1.091230125868   110.07091373   136.06542889
 H      2   1   3     1.080330334510   115.38267417   180.60865211
 H      3   2   1     1.080326818240   119.81511478   181.64275241
 H      4   3   2     1.091212016601   110.09136261   136.16921263
 H      4   3   2     1.094098651593   110.01540221   254.15891317

---------------------------
INTERNAL COORDINATES (A.U.)
---------------------------
 C      0   0   0     0.000000000000     0.00000000     0.00000000
 C      1   0   0     2.843985747805     0.00000000     0.00000000
 C      2   1   0     2.505165023655   124.80787412     0.00000000
 C      3   2   1     2.843998163325   124.79605616     2.22270134
 C      4   3   2     2.872129589289   107.77307030    14.96541660
 H      5   4   3     2.075836390752   108.21578367    69.80664240
 C      1   2   3     2.871436336078   107.78821485    14.87325160
 H      7   1   2     2.076076194037   108.28819519    69.94196155
 C      7   1   2     2.850746794669   120.48121667   191.39000651
 O      9   7   1     2.252455437938   130.69858320   328.06001919
 N      9   7   1     2.663099188542   104.67493500   149.98181160
 C     11   9   7     2.658969261820   113.83962323   347.05723830
 O     12  11   9     2.253518817739   124.49083129   175.76791703
 S     11   9   7     3.199968418205   123.04059736   169.11628576
 C     14  11   9     3.471757390806    99.83161374   271.34653385
 Cl    15  14  11     3.332352227125   105.20712038   178.12672074
 Cl    15  14  11     3.359487989328   111.59129928   297.51576033
 Cl    15  14  11     3.361126403252   111.33343760    58.88898852
 H      1   2   3     2.067406854253   110.04429210   254.04065768
 H      1   2   3     2.062126086976   110.07091373   136.06542889
 H      2   1   3     2.041528466391   115.38267417   180.60865211
 H      3   2   1     2.041521821605   119.81511478   181.64275241
 H      4   3   2     2.062091865419   110.09136261   136.16921263
 H      4   3   2     2.067546815003   110.01540221   254.15891317

---------------------
BASIS SET INFORMATION
---------------------
There are 6 groups of distinct atoms

 Group   1 Type C   : 7s4p1d contracted to 3s2p1d pattern {511/31/1}
 Group   2 Type H   : 4s contracted to 2s pattern {31}
 Group   3 Type O   : 7s4p1d contracted to 3s2p1d pattern {511/31/1}
 Group   4 Type N   : 7s4p1d contracted to 3s2p1d pattern {511/31/1}
 Group   5 Type S   : 10s7p1d contracted to 4s3p1d pattern {5311/511/1}
 Group   6 Type Cl  : 10s7p1d contracted to 4s3p1d pattern {5311/511/1}

Atom   0C    basis set group =>   1
Atom   1C    basis set group =>   1
Atom   2C    basis set group =>   1
Atom   3C    basis set group =>   1
Atom   4C    basis set group =>   1
Atom   5H    basis set group =>   2
Atom   6C    basis set group =>   1
Atom   7H    basis set group =>   2
Atom   8C    basis set group =>   1
Atom   9O    basis set group =>   3
Atom  10N    basis set group =>   4
Atom  11C    basis set group =>   1
Atom  12O    basis set group =>   3
Atom  13S    basis set group =>   5
Atom  14C    basis set group =>   1
Atom  15Cl   basis set group =>   6
Atom  16Cl   basis set group =>   6
Atom  17Cl   basis set group =>   6
Atom  18H    basis set group =>   2
Atom  19H    basis set group =>   2
Atom  20H    basis set group =>   2
Atom  21H    basis set group =>   2
Atom  22H    basis set group =>   2
Atom  23H    basis set group =>   2
---------------------------------
AUXILIARY/J BASIS SET INFORMATION
---------------------------------
There are 6 groups of distinct atoms

 Group   1 Type C   : 12s5p4d2f1g contracted to 6s4p3d1f1g pattern {711111/2111/211/2/1}
 Group   2 Type H   : 5s2p1d contracted to 3s1p1d pattern {311/2/1}
 Group   3 Type O   : 12s5p4d2f1g contracted to 6s4p3d1f1g pattern {711111/2111/211/2/1}
 Group   4 Type N   : 12s5p4d2f1g contracted to 6s4p3d1f1g pattern {711111/2111/211/2/1}
 Group   5 Type S   : 14s5p5d2f1g contracted to 8s4p3d1f1g pattern {71111111/2111/311/2/1}
 Group   6 Type Cl  : 14s5p5d2f1g contracted to 8s4p3d1f1g pattern {71111111/2111/311/2/1}

Atom   0C    basis set group =>   1
Atom   1C    basis set group =>   1
Atom   2C    basis set group =>   1
Atom   3C    basis set group =>   1
Atom   4C    basis set group =>   1
Atom   5H    basis set group =>   2
Atom   6C    basis set group =>   1
Atom   7H    basis set group =>   2
Atom   8C    basis set group =>   1
Atom   9O    basis set group =>   3
Atom  10N    basis set group =>   4
Atom  11C    basis set group =>   1
Atom  12O    basis set group =>   3
Atom  13S    basis set group =>   5
Atom  14C    basis set group =>   1
Atom  15Cl   basis set group =>   6
Atom  16Cl   basis set group =>   6
Atom  17Cl   basis set group =>   6
Atom  18H    basis set group =>   2
Atom  19H    basis set group =>   2
Atom  20H    basis set group =>   2
Atom  21H    basis set group =>   2
Atom  22H    basis set group =>   2
Atom  23H    basis set group =>   2
------------------------------------------------------------------------------
                             ORCA STARTUP CALCULATIONS
                           -- RI-GTO INTEGRALS CHOSEN --
------------------------------------------------------------------------------
------------------------------------------------------------------------------
                   ___                                                        
                  /   \      - P O W E R E D   B Y -                         
                 /     \                                                     
                 |  |  |   _    _      __       _____    __    __             
                 |  |  |  | |  | |    /  \     |  _  \  |  |  /  |          
                  \  \/   | |  | |   /    \    | | | |  |  | /  /          
                 / \  \   | |__| |  /  /\  \   | |_| |  |  |/  /          
                |  |  |   |  __  | /  /__\  \  |    /   |      \           
                |  |  |   | |  | | |   __   |  |    \   |  |\   \          
                \     /   | |  | | |  |  |  |  | |\  \  |  | \   \       
                 \___/    |_|  |_| |__|  |__|  |_| \__\ |__|  \__/        
                                                                              
                      - O R C A' S   B I G   F R I E N D -                    
                                      &                                       
                       - I N T E G R A L  F E E D E R -                       
                                                                              
 v1 FN, 2020, v2 2021, v3 2022-2024                                           
------------------------------------------------------------------------------


----------------------
SHARK INTEGRAL PACKAGE
----------------------

Number of atoms                             ...     24
Number of basis functions                   ...    256
Number of shells                            ...    120
Maximum angular momentum                    ...      2
Integral batch strategy                     ... SHARK/LIBINT Hybrid
RI-J (if used) integral strategy            ... SPLIT-RIJ (Revised 2003 algorithm where possible)
Printlevel                                  ...      1
Contraction scheme used                     ... SEGMENTED contraction
Prescreening option                         ... SCHWARTZ
   Thresh                                   ... 1.000e-09
   Tcut                                     ... 1.000e-10
   Tpresel                                  ... 1.000e-10 
Coulomb Range Separation                    ... NOT USED
Exchange Range Separation                   ... NOT USED
Multipole approximations                    ... NOT USED
Finite Nucleus Model                        ... NOT USED
CABS basis                                  ... NOT available
Auxiliary Coulomb fitting basis             ... AVAILABLE
   # of basis functions in Aux-J            ...    880
   # of shells in Aux-J                     ...    288
   Maximum angular momentum in Aux-J        ...      4
Auxiliary J/K fitting basis                 ... NOT available
Auxiliary Correlation fitting basis         ... NOT available
Auxiliary 'external' fitting basis          ... NOT available

Checking pre-screening integrals            ... done (  0.0 sec) Dimension = 120
Check shell pair data                       ... done (  0.0 sec)
Shell pair information
Shell pair cut-off parameter TPreSel        ...   1.0e-10
Total number of shell pairs                 ...      7260
Shell pairs after pre-screening             ...      5695
Total number of primitive shell pairs       ...     31148
Primitive shell pairs kept                  ...     15121
          la=0 lb=0:   1794 shell pairs
          la=1 lb=0:   1967 shell pairs
          la=1 lb=1:    579 shell pairs
          la=2 lb=0:    798 shell pairs
          la=2 lb=1:    460 shell pairs
          la=2 lb=2:     97 shell pairs

Calculating one electron integrals          ... done (  0.0 sec)
Calculating RI/J V-Matrix + Cholesky decomp.... done (  0.1 sec)
Calculating Nuclear repulsion               ... done (  0.0 sec) ENN=   1697.724309622566 Eh

Diagonalization of the overlap matrix:
Smallest eigenvalue                        ... 4.637e-04
Time for diagonalization                   ...    0.009 sec
Threshold for overlap eigenvalues          ... 1.000e-07
Number of eigenvalues below threshold      ... 0
Time for construction of square roots      ...    0.006 sec
Total time needed                          ...    0.016 sec

-------------------
DFT GRID GENERATION
-------------------

General Integration Accuracy     IntAcc      ... 4.159
Radial Grid Type                 RadialGrid  ... OptM3 with GC (2021)
Angular Grid (max. ang.)         AngularGrid ... 3 (Lebedev-194)
Angular grid pruning method      GridPruning ... 4 (adaptive)
Weight generation scheme         WeightScheme... mBecke (2022)
Basis function cutoff            BFCut       ... 1.0000e-10
Integration weight cutoff        WCut        ... 1.0000e-14
Partially contracted basis set               ... off
Rotationally invariant grid construction     ... off
Angular grids for H and He will be reduced by one unit

Total number of grid points                  ...    66799
Total number of batches                      ...     1056
Average number of points per batch           ...       63
Average number of grid points per atom       ...     2783
Initializing property integral containers    ... done (  0.0 sec)

SHARK setup successfully completed in   0.8 seconds

Maximum memory used throughout the entire STARTUP-calculation: 36.2 MB
-------------------------------------------------------------------------------
                                 ORCA GUESS
                   Start orbitals & Density for SCF / CASSCF
-------------------------------------------------------------------------------

------------
SCF SETTINGS
------------
Hamiltonian:
 Density Functional     Method          .... DFT(GTOs)
 Exchange Functional    Exchange        .... PBE
   PBE kappa parameter   XKappa         ....  0.804000
   PBE mue parameter    XMuePBE         ....  0.219520
 Correlation Functional Correlation     .... PBE
   PBE beta parameter  CBetaPBE         ....  0.066725
 LDA part of GGA corr.  LDAOpt          .... PW91-LDA
 Gradients option       PostSCFGGA      .... off
   NL short-range parameter             ....  6.400000
 RI-approximation to the Coulomb term is turned on
   Number of AuxJ basis functions       .... 880


General Settings:
 Integral files         IntName         .... sp
 Hartree-Fock type      HFTyp           .... RHF
 Total Charge           Charge          ....    0
 Multiplicity           Mult            ....    1
 Number of Electrons    NEL             ....  152
 Basis Dimension        Dim             ....  256
 Nuclear Repulsion      ENuc            ....   1697.7243096226 Eh

Convergence Acceleration:
 AO-DIIS                CNVDIIS         .... on
   Start iteration      DIISMaxIt       ....    12
   Startup error        DIISStart       ....  0.200000
   # of expansion vecs  DIISMaxEq       ....     5
   Bias factor          DIISBfac        ....   1.050
   Max. coefficient     DIISMaxC        ....  10.000
 MO-DIIS                CNVKDIIS        .... off
 Trust-Rad. Augm. Hess. CNVTRAH         .... auto
   Auto Start mean grad. ratio tolernc. ....  1.125000
   Auto Start start iteration           ....    50
   Auto Start num. interpolation iter.  ....    10
   Max. Number of Micro iterations      ....    24
   Max. Number of Macro iterations      .... Maxiter - #DIIS iter
   Number of Davidson start vectors     ....     2
   Converg. threshold    (grad. norm)   ....   1.000e-04
   Grad. Scal. Fac. for Micro threshold ....   0.100
   Minimum threshold for Micro iter.    ....   1.000e-02
   NR start threshold (gradient norm)   ....   1.000e-04
   Initial trust radius                 ....   0.400
   Minimum AH scaling param. (alpha)    ....   1.000
   Maximum AH scaling param. (alpha)    .... 1000.000
   Quad. conv. algorithm                .... NR
   White noise on init. David. guess    .... on
   Maximum white noise                  ....   0.010
   Pseudo random numbers                .... off
   Inactive MOs                         .... canonical
   Orbital update algorithm             .... Taylor
   Preconditioner                       .... Diag
   Full preconditioner red. dimension   ....   250
 SOSCF                  CNVSOSCF        .... on
   Start iteration      SOSCFMaxIt      ....   150
   Startup grad/error   SOSCFStart      ....  0.003300
   Hessian update       SOSCFHessUp     .... L-BFGS
 Level Shifting         CNVShift        .... on
   Level shift para.    LevelShift      ....    0.2500
   Turn off err/grad.   ShiftErr        ....    0.0010
 Zerner damping         CNVZerner       .... off
 Static damping         CNVDamp         .... on
   Fraction old density DampFac         ....    0.7000
   Max. Damping (<1)    DampMax         ....    0.9800
   Min. Damping (>=0)   DampMin         ....    0.0000
   Turn off err/grad.   DampErr         ....    0.1000

SCF Procedure:
 Maximum # iterations   MaxIter         ....   125
 SCF integral mode      SCFMode         .... Direct
   Integral package                     .... SHARK and LIBINT hybrid scheme
 Reset frequency        DirectResetFreq ....    20
 Integral Threshold     Thresh          ....  1.000e-09 Eh
 Primitive CutOff       TCut            ....  1.000e-10 Eh

Convergence Tolerance:
 Convergence Check Mode ConvCheckMode   .... Total+1el-Energy
 Convergence forced     ConvForced      .... 0
 Energy Change          TolE            ....  1.000e-05 Eh
 1-El. energy change                    ....  1.000e-02 Eh
 Orbital Gradient       TolG            ....  1.000e-04
 Orbital Rotation angle TolX            ....  1.000e-04
 DIIS Error             TolErr          ....  5.000e-04

------------------------------
INITIAL GUESS: MODEL POTENTIAL
------------------------------
Loading Hartree-Fock densities                     ... done
Calculating cut-offs                               ... done
Initializing the effective Hamiltonian             ... done
Setting up the integral package (SHARK)            ... done
Starting the Coulomb interaction                   ... done (   0.3 sec)
Making the grid                                    ... done (   0.3 sec)
Mapping shells                                     ... done
Starting the XC term evaluation                    ... done (   0.2 sec)
  promolecular density results
     # of electrons  =    151.998339478
     EX              =   -178.385093528
     EC              =     -5.543693624
     EX+EC           =   -183.928787152
Transforming the Hamiltonian                       ... done (   0.0 sec)
Diagonalizing the Hamiltonian                      ... done (   0.0 sec)
Back transforming the eigenvectors                 ... done (   0.0 sec)
Now organizing SCF variables                       ... done
                      ------------------
                      INITIAL GUESS DONE (   0.9 sec)
                      ------------------
             **** ENERGY FILE WAS UPDATED (sp.en.tmp) ****
Finished Guess after   1.0 sec
Maximum memory used throughout the entire GUESS-calculation: 28.1 MB

-------------------------------------------------------------------------------------------
                                      ORCA LEAN-SCF
                              memory conserving SCF solver
-------------------------------------------------------------------------------------------

----------------------------------------D-I-I-S--------------------------------------------
Iteration    Energy (Eh)           Delta-E    RMSDP     MaxDP     DIISErr   Damp  Time(sec)
-------------------------------------------------------------------------------------------
               ***  Starting incremental Fock matrix formation  ***
    1    -2329.0724475972219807     0.00e+00  4.71e-03  2.45e-01  2.38e-01  0.700   1.3
Warning: op=0 Small HOMO/LUMO gap (   0.094) - skipping pre-diagonalization
         Will do a full diagonalization
    2    -2329.2341510948590440    -1.62e-01  2.29e-03  8.88e-02  6.59e-02  0.700   1.2
                               ***Turning on AO-DIIS***
    3    -2329.2808749429991622    -4.67e-02  8.01e-04  1.77e-02  2.49e-02  0.700   1.1
    4    -2329.3113769493202199    -3.05e-02  1.21e-03  2.57e-02  1.72e-02  0.000   1.0
    5    -2329.3837218206008401    -7.23e-02  4.07e-04  1.32e-02  8.19e-03  0.000   1.1
                              *** Initializing SOSCF ***
---------------------------------------S-O-S-C-F--------------------------------------
Iteration    Energy (Eh)           Delta-E    RMSDP     MaxDP     MaxGrad    Time(sec)
--------------------------------------------------------------------------------------
    6    -2329.3844974200678735    -7.76e-04  1.55e-04  2.88e-03  2.48e-03     1.0
               *** Restarting incremental Fock matrix formation ***
    7    -2329.3845717733411220    -7.44e-05  1.41e-04  3.61e-03  7.81e-04     1.2
    8    -2329.3845297631414724     4.20e-05  8.49e-05  3.66e-03  1.83e-03     1.0
    9    -2329.3845870534046298    -5.73e-05  4.83e-05  1.15e-03  1.93e-04     1.0
   10    -2329.3845826032675177     4.45e-06  2.50e-05  1.05e-03  7.40e-04     0.9
                 **** Energy Check signals convergence ****

               *****************************************************
               *                     SUCCESS                       *
               *           SCF CONVERGED AFTER  10 CYCLES          *
               *****************************************************

             **** ENERGY FILE WAS UPDATED (sp.en.tmp) ****

----------------
TOTAL SCF ENERGY
----------------

Total Energy       :      -2329.38458260326752 Eh          -63385.77696 eV

Components:
Nuclear Repulsion  :       1697.72430962256567 Eh           46197.42710 eV
Electronic Energy  :      -4027.10889222583319 Eh         -109583.20406 eV
One Electron Energy:      -6586.23280133270509 Eh         -179220.50592 eV
Two Electron Energy:       2559.12390910687191 Eh           69637.30186 eV

Virial components:
Potential Energy   :      -4650.94811245992059 Eh         -126558.73226 eV
Kinetic Energy     :       2321.56352985665353 Eh           63172.95530 eV
Virial Ratio       :          2.00336887302287

DFT components:
N(Alpha)           :       75.999868051756 electrons
N(Beta)            :       75.999868051756 electrons
N(Total)           :      151.999736103512 electrons
E(X)               :     -179.455061345352 Eh       
E(C)               :       -5.547196154034 Eh       
E(XC)              :     -185.002257499386 Eh       

---------------
SCF CONVERGENCE
---------------

  Last Energy change         ...   -4.4501e-06  Tolerance :   1.0000e-05
  Last MAX-Density change    ...    1.0536e-03  Tolerance :   1.0000e-03
  Last RMS-Density change    ...    2.4976e-05  Tolerance :   1.0000e-04
  Last DIIS Error            ...    2.4806e-03  Tolerance :   5.0000e-04
  Last Orbital Gradient      ...    7.4040e-04  Tolerance :   1.0000e-04
  Last Orbital Rotation      ...    5.5084e-04  Tolerance :   1.0000e-04


----------------
ORBITAL ENERGIES
----------------

  NO   OCC          E(Eh)            E(eV) 
   0   2.0000    -100.669840     -2739.3656 
   1   2.0000    -100.660846     -2739.1209 
   2   2.0000    -100.658169     -2739.0480 
   3   2.0000     -88.092146     -2397.1092 
   4   2.0000     -18.760531      -510.5000 
   5   2.0000     -18.759604      -510.4748 
   6   2.0000     -14.073882      -382.9698 
   7   2.0000     -10.087039      -274.4823 
   8   2.0000     -10.017497      -272.5900 
   9   2.0000     -10.016965      -272.5755 
  10   2.0000      -9.930768      -270.2299 
  11   2.0000      -9.930047      -270.2103 
  12   2.0000      -9.913927      -269.7717 
  13   2.0000      -9.913508      -269.7603 
  14   2.0000      -9.906011      -269.5563 
  15   2.0000      -9.905418      -269.5401 
  16   2.0000      -9.206372      -250.5181 
  17   2.0000      -9.197063      -250.2648 
  18   2.0000      -9.194544      -250.1963 
  19   2.0000      -7.733165      -210.4301 
  20   2.0000      -7.038410      -191.5249 
  21   2.0000      -7.029117      -191.2720 
  22   2.0000      -7.026676      -191.2056 
  23   2.0000      -7.025901      -191.1845 
  24   2.0000      -7.025414      -191.1712 
  25   2.0000      -7.016608      -190.9316 
  26   2.0000      -7.016103      -190.9179 
  27   2.0000      -7.013990      -190.8604 
  28   2.0000      -7.013587      -190.8494 
  29   2.0000      -5.764134      -156.8501 
  30   2.0000      -5.758294      -156.6911 
  31   2.0000      -5.747115      -156.3869 
  32   2.0000      -0.990808       -26.9613 
  33   2.0000      -0.969984       -26.3946 
  34   2.0000      -0.896944       -24.4071 
  35   2.0000      -0.875030       -23.8108 
  36   2.0000      -0.798688       -21.7334 
  37   2.0000      -0.776648       -21.1337 
  38   2.0000      -0.767604       -20.8876 
  39   2.0000      -0.735839       -20.0232 
  40   2.0000      -0.700521       -19.0621 
  41   2.0000      -0.677289       -18.4300 
  42   2.0000      -0.618556       -16.8318 
  43   2.0000      -0.597237       -16.2516 
  44   2.0000      -0.563291       -15.3279 
  45   2.0000      -0.559393       -15.2219 
  46   2.0000      -0.507985       -13.8230 
  47   2.0000      -0.502401       -13.6710 
  48   2.0000      -0.469465       -12.7748 
  49   2.0000      -0.457990       -12.4625 
  50   2.0000      -0.453843       -12.3497 
  51   2.0000      -0.444805       -12.1038 
  52   2.0000      -0.429922       -11.6988 
  53   2.0000      -0.421611       -11.4726 
  54   2.0000      -0.417035       -11.3481 
  55   2.0000      -0.392820       -10.6892 
  56   2.0000      -0.392785       -10.6882 
  57   2.0000      -0.387187       -10.5359 
  58   2.0000      -0.377967       -10.2850 
  59   2.0000      -0.374564       -10.1924 
  60   2.0000      -0.364556        -9.9201 
  61   2.0000      -0.353187        -9.6107 
  62   2.0000      -0.322769        -8.7830 
  63   2.0000      -0.319352        -8.6900 
  64   2.0000      -0.315397        -8.5824 
  65   2.0000      -0.313584        -8.5331 
  66   2.0000      -0.310278        -8.4431 
  67   2.0000      -0.302703        -8.2370 
  68   2.0000      -0.286962        -7.8086 
  69   2.0000      -0.285363        -7.7651 
  70   2.0000      -0.266711        -7.2576 
  71   2.0000      -0.262698        -7.1484 
  72   2.0000      -0.244512        -6.6535 
  73   2.0000      -0.236822        -6.4443 
  74   2.0000      -0.235500        -6.4083 
  75   2.0000      -0.222459        -6.0534 
  76   0.0000      -0.069857        -1.9009 
  77   0.0000      -0.066406        -1.8070 
  78   0.0000      -0.045280        -1.2321 
  79   0.0000      -0.038565        -1.0494 
  80   0.0000      -0.029262        -0.7963 
  81   0.0000      -0.022380        -0.6090 
  82   0.0000       0.003200         0.0871 
  83   0.0000       0.013408         0.3648 
  84   0.0000       0.031671         0.8618 
  85   0.0000       0.043735         1.1901 
  86   0.0000       0.060699         1.6517 
*Only the first 10 virtual orbitals were printed.

                    ********************************
                    * MULLIKEN POPULATION ANALYSIS *
                    ********************************

-----------------------
MULLIKEN ATOMIC CHARGES
-----------------------
   0 C :    0.001872
   1 C :   -0.139527
   2 C :   -0.137775
   3 C :    0.000875
   4 C :   -0.262304
   5 H :    0.124603
   6 C :   -0.250657
   7 H :    0.123749
   8 C :    0.202997
   9 O :   -0.108493
  10 N :   -0.386918
  11 C :    0.211784
  12 O :   -0.111819
  13 S :    0.277463
  14 C :   -0.140647
  15 Cl:    0.013352
  16 Cl:    0.011720
  17 Cl:    0.007871
  18 H :    0.102554
  19 H :    0.108093
  20 H :    0.069602
  21 H :    0.069702
  22 H :    0.108164
  23 H :    0.103739
Sum of atomic charges:   -0.0000000

--------------------------------
MULLIKEN REDUCED ORBITAL CHARGES
--------------------------------
  0 C s       :     2.924022  s :     2.924022
      pz      :     1.033558  p :     3.038084
      px      :     0.950889
      py      :     1.053637
      dz2     :     0.007630  d :     0.036023
      dxz     :     0.005335
      dyz     :     0.007719
      dx2y2   :     0.008384
      dxy     :     0.006955

  1 C s       :     3.188143  s :     3.188143
      pz      :     1.003783  p :     2.916721
      px      :     0.928667
      py      :     0.984272
      dz2     :     0.003720  d :     0.034663
      dxz     :     0.002535
      dyz     :     0.007237
      dx2y2   :     0.008832
      dxy     :     0.012338

  2 C s       :     3.187476  s :     3.187476
      pz      :     0.995003  p :     2.915657
      px      :     0.939426
      py      :     0.981228
      dz2     :     0.002515  d :     0.034643
      dxz     :     0.004043
      dyz     :     0.007431
      dx2y2   :     0.008282
      dxy     :     0.012373

  3 C s       :     2.924847  s :     2.924847
      pz      :     1.014780  p :     3.038224
      px      :     0.969358
      py      :     1.054087
      dz2     :     0.006043  d :     0.036053
      dxz     :     0.008506
      dyz     :     0.007260
      dx2y2   :     0.007018
      dxy     :     0.007226

  4 C s       :     3.096318  s :     3.096318
      pz      :     1.063677  p :     3.124450
      px      :     1.055794
      py      :     1.004979
      dz2     :     0.009964  d :     0.041537
      dxz     :     0.008053
      dyz     :     0.006126
      dx2y2   :     0.009420
      dxy     :     0.007975

  5 H s       :     0.875397  s :     0.875397

  6 C s       :     3.095088  s :     3.095088
      pz      :     1.073647  p :     3.114060
      px      :     1.039311
      py      :     1.001102
      dz2     :     0.009273  d :     0.041509
      dxz     :     0.008183
      dyz     :     0.005747
      dx2y2   :     0.009746
      dxy     :     0.008558

  7 H s       :     0.876251  s :     0.876251

  8 C s       :     3.044374  s :     3.044374
      pz      :     0.859621  p :     2.639865
      px      :     0.915794
      py      :     0.864450
      dz2     :     0.009792  d :     0.112764
      dxz     :     0.007435
      dyz     :     0.027635
      dx2y2   :     0.028536
      dxy     :     0.039366

  9 O s       :     3.711215  s :     3.711215
      pz      :     1.400440  p :     4.378134
      px      :     1.603148
      py      :     1.374546
      dz2     :     0.002223  d :     0.019144
      dxz     :     0.000722
      dyz     :     0.005374
      dx2y2   :     0.005545
      dxy     :     0.005279

 10 N s       :     3.477926  s :     3.477926
      pz      :     1.534666  p :     3.882096
      px      :     1.175798
      py      :     1.171632
      dz2     :     0.002462  d :     0.026896
      dxz     :     0.003605
      dyz     :     0.003606
      dx2y2   :     0.007093
      dxy     :     0.010130

 11 C s       :     3.036059  s :     3.036059
      pz      :     0.841076  p :     2.639413
      px      :     0.940661
      py      :     0.857676
      dz2     :     0.006479  d :     0.112743
      dxz     :     0.008136
      dyz     :     0.024585
      dx2y2   :     0.033221
      dxy     :     0.040323

 12 O s       :     3.712005  s :     3.712005
      pz      :     1.349398  p :     4.380691
      px      :     1.648623
      py      :     1.382670
      dz2     :     0.002166  d :     0.019123
      dxz     :     0.000927
      dyz     :     0.005274
      dx2y2   :     0.005419
      dxy     :     0.005337

 13 S s       :     5.873140  s :     5.873140
      pz      :     3.102263  p :     9.732939
      px      :     2.765722
      py      :     3.864954
      dz2     :     0.025126  d :     0.116457
      dxz     :     0.045768
      dyz     :     0.007445
      dx2y2   :     0.029102
      dxy     :     0.009016

 14 C s       :     3.229895  s :     3.229895
      pz      :     0.979735  p :     2.829888
      px      :     0.932694
      py      :     0.917458
      dz2     :     0.013648  d :     0.080864
      dxz     :     0.014822
      dyz     :     0.020343
      dx2y2   :     0.018933
      dxy     :     0.013118

 15 Cls       :     5.950358  s :     5.950358
      pz      :     3.869564  p :    11.000763
      px      :     3.210146
      py      :     3.921053
      dz2     :     0.004783  d :     0.035528
      dxz     :     0.008699
      dyz     :     0.001160
      dx2y2   :     0.014650
      dxy     :     0.006235

 16 Cls       :     5.949414  s :     5.949414
      pz      :     3.747301  p :    11.004670
      px      :     3.880138
      py      :     3.377231
      dz2     :     0.004219  d :     0.034196
      dxz     :     0.002357
      dyz     :     0.012498
      dx2y2   :     0.009518
      dxy     :     0.005603

 17 Cls       :     5.949302  s :     5.949302
      pz      :     3.668883  p :    11.008633
      px      :     3.860210
      py      :     3.479540
      dz2     :     0.004804  d :     0.034194
      dxz     :     0.003515
      dyz     :     0.013339
      dx2y2   :     0.007313
      dxy     :     0.005223

 18 H s       :     0.897446  s :     0.897446

 19 H s       :     0.891907  s :     0.891907

 20 H s       :     0.930398  s :     0.930398

 21 H s       :     0.930298  s :     0.930298

 22 H s       :     0.891836  s :     0.891836

 23 H s       :     0.896261  s :     0.896261


------------------------
MULLIKEN OVERLAP CHARGES
------------------------
B(  0-C ,  1-C ) :   0.5838 B(  0-C ,  3-C ) :  -0.1722 B(  0-C ,  6-C ) :   0.5569 
B(  0-C , 18-H ) :   0.6524 B(  0-C , 19-H ) :   0.6650 B(  0-C , 20-H ) :  -0.1480 
B(  1-C ,  2-C ) :   1.3499 B(  1-C ,  4-C ) :  -0.0637 B(  1-C , 20-H ) :   0.8015 
B(  1-C , 21-H ) :  -0.0969 B(  2-C ,  3-C ) :   0.5864 B(  2-C ,  6-C ) :  -0.0666 
B(  2-C , 20-H ) :  -0.0970 B(  2-C , 21-H ) :   0.8021 B(  3-C ,  4-C ) :   0.5692 
B(  3-C , 21-H ) :  -0.1488 B(  3-C , 22-H ) :   0.6643 B(  3-C , 23-H ) :   0.6530 
B(  4-C ,  5-H ) :   0.5862 B(  4-C ,  6-C ) :   0.1111 B(  4-C ,  7-H ) :  -0.0693 
B(  4-C , 10-N ) :  -0.3063 B(  4-C , 11-C ) :   0.0808 B(  4-C , 12-O ) :  -0.1887 
B(  5-H ,  6-C ) :  -0.0707 B(  6-C ,  7-H ) :   0.5622 B(  6-C ,  9-O ) :  -0.1922 
B(  6-C , 10-N ) :  -0.2869 B(  8-C ,  9-O ) :   1.6232 B(  8-C , 10-N ) :   0.3920 
B(  8-C , 11-C ) :  -0.1270 B(  8-C , 13-S ) :  -0.0607 B(  9-O , 10-N ) :  -0.1870 
B( 10-N , 11-C ) :   0.4315 B( 10-N , 12-O ) :  -0.1897 B( 10-N , 13-S ) :   0.2670 
B( 11-C , 12-O ) :   1.6117 B( 11-C , 13-S ) :  -0.0616 B( 13-S , 14-C ) :   0.4247 
B( 13-S , 15-Cl) :  -0.0993 B( 13-S , 16-Cl) :  -0.1369 B( 13-S , 17-Cl) :  -0.1362 
B( 14-C , 15-Cl) :   0.4979 B( 14-C , 16-Cl) :   0.5032 B( 14-C , 17-Cl) :   0.4973 
B( 15-Cl, 16-Cl) :  -0.1214 B( 15-Cl, 17-Cl) :  -0.1200 B( 16-Cl, 17-Cl) :  -0.1465 
B( 18-H , 19-H ) :  -0.0506 B( 22-H , 23-H ) :  -0.0502 


                     *******************************
                     * LOEWDIN POPULATION ANALYSIS *
                     *******************************

----------------------
LOEWDIN ATOMIC CHARGES
----------------------
   0 C :   -0.205766
   1 C :   -0.141236
   2 C :   -0.141407
   3 C :   -0.205021
   4 C :   -0.151610
   5 H :    0.152299
   6 C :   -0.152540
   7 H :    0.151899
   8 C :    0.027326
   9 O :   -0.108003
  10 N :   -0.172353
  11 C :    0.029138
  12 O :   -0.111008
  13 S :    0.365625
  14 C :   -0.454709
  15 Cl:    0.119731
  16 Cl:    0.103833
  17 Cl:    0.103520
  18 H :    0.134265
  19 H :    0.135415
  20 H :    0.125170
  21 H :    0.125261
  22 H :    0.135423
  23 H :    0.134747

-------------------------------
LOEWDIN REDUCED ORBITAL CHARGES
-------------------------------
  0 C s       :     2.896512  s :     2.896512
      pz      :     1.105212  p :     3.219459
      px      :     1.038090
      py      :     1.076158
      dz2     :     0.018890  d :     0.089794
      dxz     :     0.011589
      dyz     :     0.018539
      dx2y2   :     0.019833
      dxy     :     0.020945

  1 C s       :     2.903166  s :     2.903166
      pz      :     1.008371  p :     3.148562
      px      :     1.041176
      py      :     1.099014
      dz2     :     0.007910  d :     0.089509
      dxz     :     0.005547
      dyz     :     0.016321
      dx2y2   :     0.025517
      dxy     :     0.034214

  2 C s       :     2.903181  s :     2.903181
      pz      :     1.007989  p :     3.148751
      px      :     1.040820
      py      :     1.099942
      dz2     :     0.005889  d :     0.089476
      dxz     :     0.008261
      dyz     :     0.016622
      dx2y2   :     0.024379
      dxy     :     0.034325

  3 C s       :     2.896714  s :     2.896714
      pz      :     1.085269  p :     3.218478
      px      :     1.057772
      py      :     1.075437
      dz2     :     0.013322  d :     0.089829
      dxz     :     0.021459
      dyz     :     0.018597
      dx2y2   :     0.016111
      dxy     :     0.020339

  4 C s       :     2.877350  s :     2.877350
      pz      :     1.079227  p :     3.169328
      px      :     1.045440
      py      :     1.044662
      dz2     :     0.021703  d :     0.104932
      dxz     :     0.020749
      dyz     :     0.016162
      dx2y2   :     0.026412
      dxy     :     0.019906

  5 H s       :     0.847701  s :     0.847701

  6 C s       :     2.877863  s :     2.877863
      pz      :     1.080242  p :     3.169611
      px      :     1.044674
      py      :     1.044695
      dz2     :     0.023372  d :     0.105067
      dxz     :     0.018784
      dyz     :     0.013781
      dx2y2   :     0.026211
      dxy     :     0.022918

  7 H s       :     0.848101  s :     0.848101

  8 C s       :     2.852346  s :     2.852346
      pz      :     0.869793  p :     2.850167
      px      :     0.984598
      py      :     0.995776
      dz2     :     0.022550  d :     0.270162
      dxz     :     0.016133
      dyz     :     0.060896
      dx2y2   :     0.071589
      dxy     :     0.098993

  9 O s       :     3.535431  s :     3.535431
      pz      :     1.410546  p :     4.539128
      px      :     1.629735
      py      :     1.498847
      dz2     :     0.004398  d :     0.033444
      dxz     :     0.001106
      dyz     :     0.007579
      dx2y2   :     0.010970
      dxy     :     0.009391

 10 N s       :     3.170105  s :     3.170105
      pz      :     1.495489  p :     3.933771
      px      :     1.207246
      py      :     1.231037
      dz2     :     0.006164  d :     0.068477
      dxz     :     0.007651
      dyz     :     0.008023
      dx2y2   :     0.017798
      dxy     :     0.028841

 11 C s       :     2.850536  s :     2.850536
      pz      :     0.842044  p :     2.850168
      px      :     1.016417
      py      :     0.991707
      dz2     :     0.016205  d :     0.270159
      dxz     :     0.015934
      dyz     :     0.050337
      dx2y2   :     0.083184
      dxy     :     0.104499

 12 O s       :     3.536035  s :     3.536035
      pz      :     1.356020  p :     4.541566
      px      :     1.681451
      py      :     1.504095
      dz2     :     0.004462  d :     0.033406
      dxz     :     0.001271
      dyz     :     0.007084
      dx2y2   :     0.010454
      dxy     :     0.010134

 13 S s       :     5.613841  s :     5.613841
      pz      :     3.199739  p :     9.857930
      px      :     2.821551
      py      :     3.836639
      dz2     :     0.032088  d :     0.162604
      dxz     :     0.065034
      dyz     :     0.008375
      dx2y2   :     0.045817
      dxy     :     0.011290

 14 C s       :     3.146695  s :     3.146695
      pz      :     1.085401  p :     3.143140
      px      :     1.034591
      py      :     1.023147
      dz2     :     0.027139  d :     0.164874
      dxz     :     0.031446
      dyz     :     0.042835
      dx2y2   :     0.039477
      dxy     :     0.023976

 15 Cls       :     5.793109  s :     5.793109
      pz      :     3.867195  p :    11.042850
      px      :     3.261075
      py      :     3.914581
      dz2     :     0.006450  d :     0.044310
      dxz     :     0.010365
      dyz     :     0.001297
      dx2y2   :     0.019206
      dxy     :     0.006992

 16 Cls       :     5.802442  s :     5.802442
      pz      :     3.756866  p :    11.050667
      px      :     3.876171
      py      :     3.417630
      dz2     :     0.004952  d :     0.043058
      dxz     :     0.002762
      dyz     :     0.016460
      dx2y2   :     0.012221
      dxy     :     0.006662

 17 Cls       :     5.802077  s :     5.802077
      pz      :     3.683638  p :    11.051480
      px      :     3.857077
      py      :     3.510765
      dz2     :     0.005635  d :     0.042923
      dxz     :     0.004178
      dyz     :     0.017636
      dx2y2   :     0.009147
      dxy     :     0.006327

 18 H s       :     0.865735  s :     0.865735

 19 H s       :     0.864585  s :     0.864585

 20 H s       :     0.874830  s :     0.874830

 21 H s       :     0.874739  s :     0.874739

 22 H s       :     0.864577  s :     0.864577

 23 H s       :     0.865253  s :     0.865253


---------------------------------
LOEWDIN BOND ORDERS (THRESH 0.050000)
---------------------------------
B(  0-C ,  1-C ) :   1.0902 B(  0-C ,  2-C ) :   0.0817 B(  0-C ,  4-C ) :   0.0522 
B(  0-C ,  6-C ) :   1.0527 B(  0-C , 18-H ) :   0.8872 B(  0-C , 19-H ) :   0.8891 
B(  1-C ,  2-C ) :   1.9804 B(  1-C ,  3-C ) :   0.0816 B(  1-C ,  6-C ) :   0.0617 
B(  1-C , 20-H ) :   0.8864 B(  2-C ,  3-C ) :   1.0900 B(  2-C ,  4-C ) :   0.0616 
B(  2-C , 21-H ) :   0.8863 B(  3-C ,  4-C ) :   1.0522 B(  3-C ,  6-C ) :   0.0522 
B(  3-C , 22-H ) :   0.8890 B(  3-C , 23-H ) :   0.8871 B(  4-C ,  5-H ) :   0.8381 
B(  4-C ,  6-C ) :   0.9964 B(  4-C ,  8-C ) :   0.0681 B(  4-C , 10-N ) :   0.0787 
B(  4-C , 11-C ) :   1.0026 B(  4-C , 12-O ) :   0.0992 B(  6-C ,  7-H ) :   0.8369 
B(  6-C ,  8-C ) :   1.0034 B(  6-C ,  9-O ) :   0.0991 B(  6-C , 10-N ) :   0.0796 
B(  6-C , 11-C ) :   0.0670 B(  8-C ,  9-O ) :   2.3078 B(  8-C , 10-N ) :   1.1598 
B(  8-C , 11-C ) :   0.0798 B(  8-C , 13-S ) :   0.0783 B(  9-O , 10-N ) :   0.1614 
B( 10-N , 11-C ) :   1.1684 B( 10-N , 12-O ) :   0.1639 B( 10-N , 13-S ) :   1.1109 
B( 10-N , 14-C ) :   0.0516 B( 11-C , 12-O ) :   2.3022 B( 11-C , 13-S ) :   0.0798 
B( 13-S , 14-C ) :   1.1336 B( 13-S , 15-Cl) :   0.0898 B( 13-S , 16-Cl) :   0.0974 
B( 13-S , 17-Cl) :   0.0965 B( 14-C , 15-Cl) :   1.2402 B( 14-C , 16-Cl) :   1.2260 
B( 14-C , 17-Cl) :   1.2202 B( 15-Cl, 16-Cl) :   0.1005 B( 15-Cl, 17-Cl) :   0.0994 
B( 16-Cl, 17-Cl) :   0.1026 

------------------------------------------
LOEWDIN REDUCED ORBITAL POPULATIONS PER MO
-------------------------------------------
THRESHOLD FOR PRINTING IS 0.1%%
                      0         1         2         3         4         5   
                 -100.66984 -100.66085 -100.65817 -88.09215 -18.76053 -18.75960
                   2.00000   2.00000   2.00000   2.00000   2.00000   2.00000
                  --------  --------  --------  --------  --------  --------
 9 O  s               0.0       0.0       0.0       0.0      99.9       0.0
12 O  s               0.0       0.0       0.0       0.0       0.0      99.9
13 S  s               0.0       0.0       0.0     100.0       0.0       0.0
15 Cl s             100.0       0.0       0.0       0.0       0.0       0.0
16 Cl s               0.0       0.0     100.0       0.0       0.0       0.0
17 Cl s               0.0     100.0       0.0       0.0       0.0       0.0

                      6         7         8         9        10        11   
                 -14.07388 -10.08704 -10.01750 -10.01696  -9.93077  -9.93005
                   2.00000   2.00000   2.00000   2.00000   2.00000   2.00000
                  --------  --------  --------  --------  --------  --------
 4 C  s               0.0       0.0       0.0       0.0      99.6       0.0
 6 C  s               0.0       0.0       0.0       0.0       0.0      99.6
 8 C  s               0.0       0.0      98.9       0.5       0.0       0.0
 9 O  py              0.0       0.0       0.3       0.0       0.0       0.0
10 N  s              99.8       0.0       0.0       0.0       0.0       0.0
10 N  py              0.0       0.0       0.1       0.1       0.0       0.0
11 C  s               0.0       0.0       0.5      98.9       0.0       0.0
12 O  py              0.0       0.0       0.0       0.3       0.0       0.0
14 C  s               0.0      99.9       0.0       0.0       0.0       0.0

                     12        13        14        15        16        17   
                  -9.91393  -9.91351  -9.90601  -9.90542  -9.20637  -9.19706
                   2.00000   2.00000   2.00000   2.00000   2.00000   2.00000
                  --------  --------  --------  --------  --------  --------
 0 C  s               0.0      99.6       0.0       0.0       0.0       0.0
 1 C  s               0.0       0.0      48.6      51.0       0.0       0.0
 2 C  s               0.0       0.0      51.0      48.6       0.0       0.0
 3 C  s              99.6       0.0       0.0       0.0       0.0       0.0
14 C  px              0.0       0.0       0.0       0.0       0.1       0.0
15 Cl s               0.0       0.0       0.0       0.0      99.8       0.0
17 Cl s               0.0       0.0       0.0       0.0       0.0      99.8

                     18        19        20        21        22        23   
                  -9.19454  -7.73317  -7.03841  -7.02912  -7.02668  -7.02590
                   2.00000   2.00000   2.00000   2.00000   2.00000   2.00000
                  --------  --------  --------  --------  --------  --------
10 N  px              0.0       0.1       0.0       0.0       0.0       0.0
13 S  s               0.0      99.7       0.0       0.0       0.0       0.0
14 C  pz              0.0       0.1       0.0       0.0       0.0       0.0
15 Cl pz              0.0       0.0       4.9       0.0       0.0      95.1
15 Cl px              0.0       0.0      94.9       0.0       0.0       4.9
15 Cl py              0.0       0.0       0.2       0.0       0.0       0.0
16 Cl s              99.8       0.0       0.0       0.0       0.0       0.0
16 Cl pz              0.0       0.0       0.0       0.0      24.0       0.0
16 Cl px              0.0       0.0       0.0       0.0       3.7       0.0
16 Cl py              0.0       0.0       0.0       0.0      72.2       0.0
17 Cl pz              0.0       0.0       0.0      35.0       0.0       0.0
17 Cl px              0.0       0.0       0.0       5.9       0.0       0.0
17 Cl py              0.0       0.0       0.0      59.1       0.0       0.0

                     24        25        26        27        28        29   
                  -7.02541  -7.01661  -7.01610  -7.01399  -7.01359  -5.76413
                   2.00000   2.00000   2.00000   2.00000   2.00000   2.00000
                  --------  --------  --------  --------  --------  --------
13 S  pz              0.0       0.0       0.0       0.0       0.0       1.8
13 S  px              0.0       0.0       0.0       0.0       0.0      98.1
15 Cl px              0.2       0.0       0.0       0.0       0.0       0.0
15 Cl py             99.8       0.0       0.0       0.0       0.0       0.0
16 Cl pz              0.0       0.0       0.0       0.2      75.8       0.0
16 Cl px              0.0       0.0       0.0      95.9       0.4       0.0
16 Cl py              0.0       0.0       0.0       4.0      23.8       0.0
17 Cl pz              0.0       2.1      62.9       0.0       0.0       0.0
17 Cl px              0.0      94.1       0.0       0.0       0.0       0.0
17 Cl py              0.0       3.9      37.1       0.0       0.0       0.0

                     30        31        32        33        34        35   
                  -5.75829  -5.74711  -0.99081  -0.96998  -0.89694  -0.87503
                   2.00000   2.00000   2.00000   2.00000   2.00000   2.00000
                  --------  --------  --------  --------  --------  --------
 0 C  px              0.0       0.0       0.1       0.0       0.0       0.0
 4 C  s               0.0       0.0       1.4       0.3       0.4       0.9
 4 C  px              0.0       0.0       1.5       0.5       0.2       0.3
 4 C  py              0.0       0.0       0.0       0.4       0.3       0.2
 5 H  s               0.0       0.0       0.2       0.0       0.1       0.1
 6 C  s               0.0       0.0       1.4       0.3       0.5       0.9
 6 C  pz              0.0       0.0       0.5       0.1       0.1       0.1
 6 C  px              0.0       0.0       1.1       0.4       0.1       0.2
 6 C  py              0.0       0.0       0.0       0.4       0.2       0.2
 7 H  s               0.0       0.0       0.2       0.0       0.1       0.1
 8 C  s               0.0       0.0      14.3       9.1       0.2       0.5
 8 C  pz              0.0       0.0       0.4       0.2       0.0       0.0
 8 C  px              0.0       0.0       1.3       0.8       0.1       0.0
 8 C  py              0.0       0.0       0.9       6.8      10.8       5.8
 8 C  dz2             0.0       0.0       0.3       0.2       0.0       0.0
 8 C  dx2y2           0.0       0.0       0.4       0.4       0.0       0.0
 8 C  dxy             0.0       0.0       0.0       0.2       0.3       0.1
 9 O  s               0.0       0.0      18.2      24.7       7.0       2.5
 9 O  pz              0.0       0.0       0.1       0.1       0.0       0.0
 9 O  px              0.0       0.0       0.2       0.3       0.1       0.0
 9 O  py              0.0       0.0       2.9       3.2       0.4       0.1
10 N  s               0.0       0.0      13.5       0.0      19.1       9.6
10 N  px              0.0       0.0       0.3       0.0       0.2       0.6
10 N  py              0.0       0.0       0.0       3.2       0.0       0.0
11 C  s               0.0       0.0      13.6       9.8       0.2       0.5
11 C  pz              0.0       0.0       0.1       0.2       0.0       0.0
11 C  px              0.0       0.0       1.6       1.1       0.1       0.0
11 C  py              0.0       0.0       0.7       6.5      10.9       5.9
11 C  dz2             0.0       0.0       0.3       0.2       0.0       0.0
11 C  dx2y2           0.0       0.0       0.3       0.3       0.0       0.0
11 C  dxy             0.0       0.0       0.1       0.3       0.4       0.2
12 O  s               0.0       0.0      17.0      25.6       7.2       2.5
12 O  px              0.0       0.0       0.3       0.5       0.2       0.0
12 O  py              0.0       0.0       2.6       3.2       0.4       0.1
13 S  s               0.0       0.0       1.6       0.0       9.0       0.1
13 S  pz             97.9       0.3       0.2       0.0       1.5       0.6
13 S  px              1.8       0.0       1.0       0.0       0.7       2.4
13 S  py              0.3      99.7       0.0       0.0       0.0       0.0
13 S  dz2             0.0       0.0       0.0       0.0       0.0       0.1
13 S  dxz             0.0       0.0       0.0       0.0       0.0       0.2
13 S  dx2y2           0.0       0.0       0.1       0.0       0.3       0.0
14 C  s               0.0       0.0       0.2       0.0      12.4      22.0
14 C  pz              0.0       0.0       0.0       0.0       0.0       0.7
14 C  px              0.0       0.0       0.1       0.0       0.0       0.9
15 Cl s               0.0       0.0       0.0       0.0       4.8      14.3
15 Cl pz              0.0       0.0       0.0       0.0       0.0       0.1
15 Cl px              0.0       0.0       0.0       0.0       0.9       1.9
15 Cl dx2y2           0.0       0.0       0.0       0.0       0.1       0.1
16 Cl s               0.0       0.0       0.0       0.0       3.9      10.0
16 Cl pz              0.0       0.0       0.0       0.0       0.2       0.4
16 Cl py              0.0       0.0       0.0       0.0       0.7       1.3
17 Cl s               0.0       0.0       0.0       0.0       4.1      10.3
17 Cl pz              0.0       0.0       0.0       0.0       0.3       0.5
17 Cl px              0.0       0.0       0.0       0.0       0.1       0.1
17 Cl py              0.0       0.0       0.0       0.0       0.5       1.1

                     36        37        38        39        40        41   
                  -0.79869  -0.77665  -0.76760  -0.73584  -0.70052  -0.67729
                   2.00000   2.00000   2.00000   2.00000   2.00000   2.00000
                  --------  --------  --------  --------  --------  --------
 0 C  s               7.4       0.1       0.0       3.4      16.9       0.0
 0 C  pz              0.1       0.0       0.0       0.2       0.0       0.2
 0 C  px              0.3       0.0       0.0       1.2       0.1       3.4
 0 C  py              1.6       0.0       0.0       0.4       0.1       0.0
 0 C  dxy             0.0       0.0       0.0       0.0       0.0       0.1
 1 C  s               5.5       0.1       0.0      10.8       2.7       9.7
 1 C  pz              0.1       0.0       0.0       0.0       0.3       0.1
 1 C  px              1.1       0.0       0.0       0.3       1.0       0.2
 1 C  py              0.2       0.0       0.0       0.8       3.8       1.7
 2 C  s               5.5       0.1       0.0      10.8       2.6       9.7
 2 C  pz              0.2       0.0       0.0       0.1       0.1       0.0
 2 C  px              1.0       0.0       0.0       0.1       1.5       0.5
 2 C  py              0.2       0.0       0.0       0.9       3.6       1.6
 3 C  s               7.4       0.1       0.0       3.4      16.9       0.0
 3 C  pz              0.3       0.0       0.0       0.2       0.2       0.7
 3 C  px              0.0       0.0       0.0       1.3       0.0       2.9
 3 C  py              1.6       0.0       0.0       0.3       0.1       0.0
 4 C  s              13.5       0.0       0.0       0.6       6.3       5.9
 4 C  pz              0.9       0.0       0.0       0.5       0.1       0.1
 4 C  px              0.2       0.0       0.0       3.2       0.5       0.0
 4 C  py              0.7       0.0       0.0       0.4       4.8       0.4
 5 H  s               2.4       0.0       0.0       0.1       1.2       1.3
 6 C  s              13.4       0.0       0.0       0.6       6.4       5.9
 6 C  pz              0.2       0.0       0.0       0.4       0.0       0.0
 6 C  px              0.9       0.0       0.0       3.3       0.7       0.0
 6 C  py              0.7       0.0       0.0       0.3       4.6       0.4
 6 C  dx2y2           0.0       0.0       0.0       0.0       0.1       0.0
 7 H  s               2.4       0.0       0.0       0.1       1.2       1.3
 8 C  s               0.5       0.0       0.0       1.2       0.8       0.1
 8 C  pz              0.8       0.0       0.0       0.2       0.5       0.6
 8 C  px              3.6       0.0       0.0       0.8       1.3       2.1
 8 C  py              0.1       0.0       0.0       1.5       0.4       0.6
 8 C  dxy             0.1       0.0       0.0       0.0       0.0       0.1
 9 O  s               0.0       0.0       0.0       0.2       0.5       0.0
10 N  s               3.2       0.1       0.0       0.1       0.0       3.4
10 N  pz              0.4       0.0       0.0       1.2       0.0       0.2
10 N  px              3.3       0.0       0.0      11.9       0.0       4.1
10 N  py              0.0       0.0       0.0       0.0       0.4       0.0
10 N  dx2y2           0.0       0.0       0.0       0.1       0.0       0.1
11 C  s               0.5       0.0       0.0       1.2       0.8       0.1
11 C  pz              0.3       0.0       0.0       0.1       0.1       0.1
11 C  px              4.2       0.0       0.0       1.0       1.8       2.5
11 C  py              0.1       0.0       0.0       1.4       0.4       0.8
11 C  dxy             0.1       0.0       0.0       0.0       0.0       0.1
12 O  s               0.0       0.0       0.0       0.1       0.5       0.0
13 S  s               4.4       0.1       0.0      18.0       0.0      16.4
13 S  pz              0.1       0.0       0.0       0.4       0.0       0.5
13 S  px              0.9       0.1       0.0       0.3       0.0       0.8
13 S  py              0.0       0.0       0.1       0.0       0.0       0.0
13 S  dx2y2           0.1       0.0       0.0       0.1       0.0       0.0
14 C  s               0.1       0.1       0.0       0.2       0.0       1.6
14 C  pz              0.5       6.9       0.0       4.0       0.0       5.2
14 C  px              0.9      13.1       0.0       1.4       0.0       1.9
14 C  py              0.0       0.0      19.3       0.0       0.0       0.0
14 C  dxz             0.0       0.0       0.0       0.1       0.0       0.1
14 C  dyz             0.0       0.0       0.6       0.0       0.0       0.0
14 C  dx2y2           0.0       0.7       0.0       0.0       0.0       0.0
15 Cl s               1.6      46.4       0.3       1.1       0.0       2.5
15 Cl px              0.0       0.4       0.0       0.0       0.0       0.3
15 Cl py              0.0       0.0       0.1       0.0       0.0       0.0
16 Cl s               0.2      11.5      43.1       1.5       0.0       1.5
16 Cl pz              0.0       0.0       0.2       0.0       0.0       0.1
16 Cl py              0.0       0.2       0.2       0.0       0.0       0.1
17 Cl s               0.2      19.1      35.3       1.4       0.0       1.5
17 Cl pz              0.0       0.0       0.2       0.0       0.0       0.2
17 Cl py              0.0       0.3       0.1       0.0       0.0       0.0
18 H  s               1.2       0.0       0.0       0.6       3.4       0.0
19 H  s               1.0       0.0       0.0       0.6       3.7       0.0
20 H  s               0.7       0.0       0.0       1.8       0.6       2.2
21 H  s               0.7       0.0       0.0       1.8       0.6       2.2
22 H  s               1.1       0.0       0.0       0.6       3.7       0.0
23 H  s               1.2       0.0       0.0       0.6       3.4       0.0

                     42        43        44        45        46        47   
                  -0.61856  -0.59724  -0.56329  -0.55939  -0.50799  -0.50240
                   2.00000   2.00000   2.00000   2.00000   2.00000   2.00000
                  --------  --------  --------  --------  --------  --------
 0 C  s               2.4       6.1       0.2       4.1       0.6       0.8
 0 C  pz              0.0       0.1       0.1       0.1       0.0       5.5
 0 C  px              2.0       0.3       3.7       0.8       1.2       2.0
 0 C  py              0.0       0.8       0.0       2.1       4.0       0.9
 1 C  s               1.5       4.0       1.9       0.2       0.5       3.3
 1 C  pz              0.2       0.8       0.2       0.3       0.1       0.2
 1 C  px              0.1       2.3       0.1       0.4       1.6       0.1
 1 C  py              2.0       4.1       1.5       3.1       2.0       2.6
 2 C  s               1.7       3.7       1.7       0.5       0.0       3.9
 2 C  pz              0.0       0.1       0.2       0.0       0.4       0.0
 2 C  px              0.2       3.3       0.1       0.8       0.8       0.9
 2 C  py              1.7       4.1       2.1       2.1       0.8       4.5
 3 C  s               2.2       6.4       0.5       3.7       0.9       0.3
 3 C  pz              0.9       0.0       2.5       0.2       0.6       0.3
 3 C  px              1.2       0.4       1.7       0.0       0.0       7.7
 3 C  py              0.1       0.7       0.1       2.1       4.6       0.0
 4 C  s               3.8       0.1       4.3       1.4       0.5       0.0
 4 C  pz              2.6       0.8       2.5       0.0       0.0      11.5
 4 C  px              1.7       3.3       0.3       0.0       5.5       0.7
 4 C  py              0.6       1.0       0.8       2.1       2.9       1.1
 4 C  dx2y2           0.2       0.0       0.0       0.0       0.0       0.0
 5 H  s               1.7       0.0       3.4       0.6       0.9       3.9
 6 C  s               3.7       0.0       3.5       2.3       0.5       0.1
 6 C  pz              0.2       0.3       2.1       0.1       0.1      12.0
 6 C  px              4.4       3.8       0.3       0.1       4.7       0.5
 6 C  py              0.7       0.9       1.2       1.5       1.8       2.9
 6 C  dx2y2           0.1       0.0       0.0       0.0       0.0       0.0
 7 H  s               1.7       0.0       2.8       1.0       0.1       4.9
 8 C  s               7.3       0.4       0.7       0.3       0.8       0.3
 8 C  pz              0.8       0.3       2.7       0.3       0.9       2.0
 8 C  px              0.2       1.0       5.8       0.5       1.0       3.1
 8 C  py              5.8       0.1       2.8       0.6       0.1       0.0
 8 C  dx2y2           0.2       0.0       0.0       0.0       0.0       0.0
 8 C  dxy             0.1       0.1       0.2       0.1       0.0       0.0
 9 O  s               3.3       0.0       0.7       0.0       0.2       0.2
 9 O  pz              0.1       0.0       0.3       0.0       0.3       0.3
 9 O  px              0.0       0.1       0.9       0.0       0.2       0.9
 9 O  py              1.2       0.0       1.1       0.1       0.0       0.1
10 N  s               0.0       2.1       0.0       0.2       1.5       0.1
10 N  pz              0.7       0.8       0.0       1.5       1.0       2.8
10 N  px              0.0       3.0       0.0       5.9       2.1       0.6
10 N  py             18.5       0.0      24.9       0.1       0.0       0.0
10 N  dxy             0.4       0.0       0.1       0.0       0.0       0.0
11 C  s               7.1       0.5       0.9       0.2       1.0       0.0
11 C  pz              0.0       0.1       0.0       0.0       0.7       4.2
11 C  px              0.8       1.4       9.0       0.2       2.0       0.0
11 C  py              5.7       0.2       3.4       0.2       0.1       0.0
11 C  dx2y2           0.2       0.0       0.0       0.1       0.0       0.0
11 C  dxy             0.1       0.1       0.2       0.0       0.0       0.0
12 O  s               3.3       0.0       0.8       0.0       0.3       0.0
12 O  pz              0.0       0.0       0.0       0.0       0.2       0.9
12 O  px              0.1       0.1       1.2       0.0       0.5       0.0
12 O  py              1.2       0.0       1.2       0.0       0.0       0.0
13 S  s               0.0       0.8       0.0       3.4       5.5       0.4
13 S  pz              0.0       0.8       0.0       1.9       0.2       0.4
13 S  px              0.0       5.3       0.0       2.8       5.2       0.1
13 S  py              0.3       0.0       1.2       0.0       0.0       0.0
13 S  dz2             0.0       0.3       0.0       0.2       0.0       0.0
13 S  dxz             0.0       0.4       0.0       0.2       0.1       0.0
13 S  dx2y2           0.0       0.1       0.0       0.0       0.1       0.0
13 S  dxy             0.1       0.0       0.2       0.0       0.0       0.0
14 C  s               0.0       5.5       0.1      10.6       2.7       0.0
14 C  pz              0.0       2.5       0.0       0.0       7.6       0.1
14 C  px              0.0       0.5       0.0       0.0       1.0       0.1
15 Cl s               0.0       4.1       0.0       6.0       0.9       0.0
15 Cl pz              0.0       0.0       0.0       0.3       2.0       0.0
15 Cl px              0.0       2.3       0.0       6.0       1.6       0.0
15 Cl dxz             0.0       0.0       0.0       0.0       0.1       0.0
15 Cl dx2y2           0.0       0.1       0.0       0.2       0.0       0.0
16 Cl s               0.0       2.4       0.2       4.9       2.7       0.1
16 Cl pz              0.0       0.5       0.1       1.1       0.3       0.0
16 Cl px              0.0       0.0       0.0       0.2       0.6       0.0
16 Cl py              0.0       0.8       0.0       3.2       4.3       0.1
17 Cl s               0.0       2.3       0.0       5.0       2.8       0.1
17 Cl pz              0.0       0.7       0.0       1.7       0.7       0.1
17 Cl px              0.0       0.0       0.0       0.3       0.9       0.0
17 Cl py              0.0       0.6       0.0       2.7       4.0       0.1
[...]
10 N  s               0.0       0.0       0.0       0.6       0.0       0.0
10 N  px              0.0       0.0       0.0       0.3       0.0       0.0
10 N  py              2.4       1.8       0.2       0.0       0.0       0.0
10 N  dz2             0.0       0.1       0.0       2.5       0.1       0.8
10 N  dxz             0.2       0.4       0.0       1.7       0.1       1.6
10 N  dyz             1.4       1.6       0.3       0.4       0.6       0.0
10 N  dx2y2           0.0       0.0       0.0      34.4       0.0       0.5
10 N  dxy            20.5      14.5       2.8       0.0       0.1       0.0
11 C  s               1.3       0.4       0.1       0.8       0.0       0.0
11 C  pz              0.0       0.0       0.0       0.0       0.5       0.4
11 C  px              0.2       0.9       0.0       0.6       0.0       0.0
11 C  py              1.0       0.9       0.2       0.0       0.0       0.0
11 C  dz2             1.2       0.4       0.2       0.0       0.4       0.7
11 C  dxz             0.2       0.2       0.0       0.3       1.0       0.9
11 C  dyz             0.0       0.2       0.2       1.2       7.9       7.8
11 C  dx2y2           0.0       2.3       0.2       3.2       0.0       0.0
11 C  dxy             0.0       0.8       0.0      10.2       0.6       0.8
12 O  s               0.0       0.8       0.1       2.0       0.0       0.0
12 O  pz              0.0       0.0       0.0       0.0       0.6       0.6
12 O  px              0.2       0.4       0.0       0.1       0.0       0.0
12 O  py              0.0       0.3       0.0       0.9       0.0       0.0
12 O  dz2             0.0       1.0       0.0       3.1       2.0       2.2
12 O  dxz             0.2       0.3       0.1       1.1       4.1       3.8
12 O  dyz             0.0       0.8       0.7       0.3      29.8      26.4
12 O  dx2y2           1.1       1.6       0.1       0.1       0.1       0.0
12 O  dxy             2.0       1.6       0.0       0.5       2.1       2.0
13 S  s               0.0       0.0       0.0       0.2       0.0       0.0
13 S  px              0.0       0.0       0.0       0.4       0.0       0.0
13 S  dxz             0.0       0.0       0.0       0.2       0.0       0.0
13 S  dx2y2           0.0       0.0       0.0       0.4       0.0       0.0
13 S  dxy             0.1       0.1       0.0       0.0       0.0       0.0
20 H  s               0.0       0.1       0.8       0.0       0.0       0.0
21 H  s               0.0       0.1       0.8       0.0       0.0       0.0

                    252       253       254       255   
                   3.29636   3.41931   3.52169   3.56732
                   0.00000   0.00000   0.00000   0.00000
                  --------  --------  --------  --------
 4 C  s               0.2       0.2       0.1       0.0
 4 C  px              0.3       0.3       0.0       0.0
 4 C  py              0.1       0.1       0.0       0.1
 4 C  dz2             0.2       0.1       0.0       0.0
 4 C  dxz             0.0       0.2       0.0       0.0
 4 C  dx2y2           1.0       1.7       0.2       0.1
 4 C  dxy             0.1       0.1       0.2       0.1
 6 C  s               0.2       0.2       0.1       0.0
 6 C  px              0.3       0.3       0.0       0.0
 6 C  py              0.1       0.1       0.0       0.1
 6 C  dxz             0.6       0.6       0.1       0.0
 6 C  dyz             0.0       0.2       0.0       0.1
 6 C  dx2y2           0.5       1.3       0.2       0.1
 6 C  dxy             0.3       0.0       0.2       0.0
 8 C  s               0.1       0.3       3.4       4.0
 8 C  pz              0.0       0.0       0.1       0.1
 8 C  px              0.3       0.1       0.3       0.3
 8 C  py              0.0       0.0       3.4       3.1
 8 C  dz2             0.2       0.5       0.4       0.6
 8 C  dxz             1.7       0.8       0.1       0.0
 8 C  dyz             1.1       1.6       0.5       0.3
 8 C  dx2y2           6.0       5.6       0.6       2.6
 8 C  dxy             4.9       6.8       1.3       1.2
 9 O  s               0.1       0.0       3.3       3.0
 9 O  pz              0.1       0.1       0.0       0.1
 9 O  px              0.5       0.5       0.2       0.3
 9 O  py              0.2       0.0       2.0       1.8
 9 O  dz2             1.0       0.1       7.2       5.4
 9 O  dxz             1.8       2.0       0.1       0.3
 9 O  dyz             2.5       3.1       2.1       3.0
 9 O  dx2y2          13.2       5.2      17.6      12.8
 9 O  dxy            12.0      12.9       6.5       9.2
10 N  s               0.5       0.0       0.0       0.0
10 N  px              0.8       0.0       0.0       0.1
10 N  py              0.0       1.3       0.5       0.0
10 N  dz2             0.2       0.0       0.0       0.0
10 N  dxz             0.5       0.1       0.0       0.3
10 N  dyz             0.1       1.4       0.0       0.0
10 N  dx2y2           1.4       0.0       0.0       2.0
10 N  dxy             0.0      12.0       0.0       0.0
11 C  s               0.1       0.3       3.4       4.0
11 C  px              0.3       0.1       0.4       0.4
11 C  py              0.0       0.0       3.3       3.0
11 C  dz2             0.0       0.1       0.4       0.6
11 C  dxz             0.6       0.4       0.0       0.0
11 C  dyz             0.2       0.1       0.1       0.2
11 C  dx2y2           8.2       7.3       0.5       2.5
11 C  dxy             5.0       7.3       1.8       1.4
12 O  s               0.1       0.0       3.3       3.0
12 O  px              0.5       0.6       0.2       0.4
12 O  py              0.2       0.0       1.9       1.8
12 O  dz2             0.5       0.0       7.3       6.2
12 O  dxz             1.0       0.9       0.2       0.2
12 O  dyz             0.4       0.4       1.5       1.6
12 O  dx2y2          16.8       8.1      15.4      10.2
12 O  dxy            11.9      13.5       8.9      12.9


                      *****************************
                      * MAYER POPULATION ANALYSIS *
                      *****************************

  NA   - Mulliken gross atomic population
  ZA   - Total nuclear charge
  QA   - Mulliken gross atomic charge
  VA   - Mayer's total valence
  BVA  - Mayer's bonded valence
  FA   - Mayer's free valence

  ATOM       NA         ZA         QA         VA         BVA        FA
  0 C      5.9981     6.0000     0.0019     3.9632     3.9632     0.0000
  1 C      6.1395     6.0000    -0.1395     4.0542     4.0542     0.0000
  2 C      6.1378     6.0000    -0.1378     4.0533     4.0533     0.0000
  3 C      5.9991     6.0000     0.0009     3.9669     3.9669    -0.0000
  4 C      6.2623     6.0000    -0.2623     3.9864     3.9864    -0.0000
  5 H      0.8754     1.0000     0.1246     0.9480     0.9480    -0.0000
  6 C      6.2507     6.0000    -0.2507     3.9729     3.9729     0.0000
  7 H      0.8763     1.0000     0.1237     0.9550     0.9550     0.0000
  8 C      5.7970     6.0000     0.2030     4.2233     4.2233     0.0000
  9 O      8.1085     8.0000    -0.1085     2.4395     2.4395     0.0000
 10 N      7.3869     7.0000    -0.3869     3.0435     3.0435    -0.0000
 11 C      5.7882     6.0000     0.2118     4.2138     4.2138    -0.0000
 12 O      8.1118     8.0000    -0.1118     2.4335     2.4335    -0.0000
 13 S     15.7225    16.0000     0.2775     2.2074     2.2074    -0.0000
 14 C      6.1406     6.0000    -0.1406     4.0711     4.0711     0.0000
 15 Cl    16.9866    17.0000     0.0134     1.2194     1.2194    -0.0000
 16 Cl    16.9883    17.0000     0.0117     1.2184     1.2184    -0.0000
 17 Cl    16.9921    17.0000     0.0079     1.2201     1.2201     0.0000
 18 H      0.8974     1.0000     0.1026     0.9568     0.9568     0.0000
 19 H      0.8919     1.0000     0.1081     0.9512     0.9512     0.0000
 20 H      0.9304     1.0000     0.0696     0.9520     0.9520     0.0000
 21 H      0.9303     1.0000     0.0697     0.9520     0.9520    -0.0000
 22 H      0.8918     1.0000     0.1082     0.9517     0.9517    -0.0000
 23 H      0.8963     1.0000     0.1037     0.9565     0.9565     0.0000

  Mayer bond orders larger than 0.100000
B(  0-C ,  1-C ) :   1.0497 B(  0-C ,  6-C ) :   1.1053 B(  0-C , 18-H ) :   0.8888 
B(  0-C , 19-H ) :   0.8986 B(  1-C ,  2-C ) :   1.9571 B(  1-C , 20-H ) :   0.9365 
B(  2-C ,  3-C ) :   1.0504 B(  2-C , 21-H ) :   0.9364 B(  3-C ,  4-C ) :   1.1076 
B(  3-C , 22-H ) :   0.8981 B(  3-C , 23-H ) :   0.8888 B(  4-C ,  5-H ) :   0.8546 
B(  4-C ,  6-C ) :   1.0272 B(  4-C , 11-C ) :   0.9241 B(  6-C ,  7-H ) :   0.8542 
B(  6-C ,  8-C ) :   0.9208 B(  8-C ,  9-O ) :   2.2711 B(  8-C , 10-N ) :   0.9497 
B( 10-N , 11-C ) :   0.9602 B( 10-N , 13-S ) :   0.9777 B( 11-C , 12-O ) :   2.2607 
B( 13-S , 14-C ) :   0.9502 B( 14-C , 15-Cl) :   1.0340 B( 14-C , 16-Cl) :   1.0352 
B( 14-C , 17-Cl) :   1.0270 

-------
TIMINGS
-------

Total SCF time: 0 days 0 hours 0 min 15 sec 

Total time                  ....      15.670 sec
Sum of individual times     ....      15.619 sec  ( 99.7%)

SCF preparation             ....       1.278 sec  (  8.2%)
Fock matrix formation       ....      10.382 sec  ( 66.3%)
  Startup                   ....       0.011 sec  (  0.1% of F)
  Split-RI-J                ....       5.792 sec  ( 55.8% of F)
  XC integration            ....       4.436 sec  ( 42.7% of F)
    XC Preparation          ....       0.000 sec  (  0.0% of XC)
    Basis function eval.    ....       1.659 sec  ( 37.4% of XC)
    Density eval.           ....       0.988 sec  ( 22.3% of XC)
    XC-Functional eval.     ....       0.240 sec  (  5.4% of XC)
    XC-Potential eval.      ....       0.915 sec  ( 20.6% of XC)
Diagonalization             ....       0.000 sec  (  0.0%)
Density matrix formation    ....       0.049 sec  (  0.3%)
Total Energy calculation    ....       0.014 sec  (  0.1%)
Population analysis         ....       3.647 sec  ( 23.3%)
Orbital Transformation      ....       0.033 sec  (  0.2%)
Orbital Orthonormalization  ....       0.000 sec  (  0.0%)
DIIS solution               ....       0.152 sec  (  1.0%)
  MO trafo                  ....       0.000 sec  (  0.0 % of DIIS)
  Orb grad                  ....       0.000 sec  (  0.0 % of DIIS)
  Energy W gradient         ....       0.000 sec  (  0.0 % of DIIS)
  DIIS error                ....       0.016 sec  ( 10.2 % of DIIS)
  DIIS work                 ....       0.116 sec  ( 76.3 % of DIIS)
  Form Q                    ....       0.000 sec  (  0.0 % of DIIS)
  Form QpQm                 ....       0.000 sec  (  0.0 % of DIIS)
  Exp/Cayley                ....       0.000 sec  (  0.0 % of DIIS)
  Orb update                ....       0.000 sec  (  0.0 % of DIIS)
  Wake-sleep                ....       0.002 sec  (  1.0 % of DIIS)
SOSCF solution              ....       0.064 sec  (  0.4%)
  MO trafo                  ....       0.029 sec  ( 45.4 % of SOSCF)
  Orb grad                  ....       0.001 sec  (  0.9 % of SOSCF)
  Rot update                ....       0.010 sec  ( 15.2 % of SOSCF)
  Step                      ....       0.024 sec  ( 37.9 % of SOSCF)
Finished LeanSCF after  19.2 sec

Maximum memory used throughout the entire LEANSCF-calculation: 24.7 MB


-------------------------------------------------------------------------------
                          DFT DISPERSION CORRECTION                            
                                                                               
                                DFTD4 V3.4.0                                   
-------------------------------------------------------------------------------
The PBE functional is recognized
Active option DFTDOPT                   ...         5   

-------------------------   ----------------
Dispersion correction           -0.040839983
-------------------------   ----------------

------------------   -----------------
gCP correction             0.094661138
------------------   -----------------

-------------------------   --------------------
FINAL SINGLE POINT ENERGY     -2329.330761447738
-------------------------   --------------------


------------------------------------------------------------------------------
                              ORCA PROPERTY CALCULATIONS
------------------------------------------------------------------------------

GBWName                                 ... sp.gbw
Number of atoms                         ...     24
Number of basis functions               ...    256
Max core memory                         ...   1024 MB

Electric properties:
Dipole moment                           ... YES
Quadrupole moment                       ...  NO
Static polarizability (Dipole/Dipole)   ...  NO
Static polarizability (Dipole/Quad.)    ...  NO
Static polarizability (Quad./Quad.)     ...  NO
Static polarizability (Velocity)        ...  NO

Atomic electric properties:
Dipole moment                           ...  NO
Quadrupole moment                       ...  NO
Static polarizability                   ...  NO

Choice of electric origin               ... Center of mass
Position of electric origin             ...     0.000016     0.000000    -0.000004

General magnetic properties:
Magnetizability                         ...  NO

EPR properties:
g-Tensor (aka g-matrix)                 ...  NO
Zero-Field splitting spin-orbit         ...  NO
Zero-field splitting spin-spin          ...  NO
Hyperfine couplings                     ...  NO (   0 nuclei)
Quadrupole couplings                    ...  NO (   0 nuclei)
Contact density                         ...  NO (   0 nuclei)

NMR properties:
Chemical shifts                         ...  NO (   0 nuclei)
Spin-rotation constants                 ...  NO (   0 nuclei)
Spin-spin couplings                     ...  NO (   0 nuclei,    0 pairs)

Choice of magnetic origin               ... GIAO
Position of magnetic origin             ...     0.000000     0.000000     0.000000

Properties with geometric perturbations:
SCF Hessian                             ...  NO
IR spectrum                             ...  NO
VCD spectrum                            ...  NO
X-ray spectroscopy properties:
SCF XES/XAS/RIXS spectra                ...  NO


-------------
DIPOLE MOMENT
-------------

Method             : SCF
Type of density    : Electron Density
Multiplicity       :   1
Irrep              :   0
Energy             : -2329.3845826032675177 Eh
Relativity type    : 
Basis              : AO
                                X                 Y                 Z
Electronic contribution:    -36.889491029      -0.079521972      -0.534933730
Nuclear contribution   :     38.007025392       0.099828524       0.171186299
                        -----------------------------------------
Total Dipole Moment    :      1.117534363       0.020306552      -0.363747431
                        -----------------------------------------
Magnitude (a.u.)       :      1.175418054
Magnitude (Debye)      :      2.987675259



--------------------
Rotational spectrum 
--------------------
 
Rotational constants in cm-1:             0.024991             0.007651             0.006966 
Rotational constants in MHz :           749.206602           229.360933           208.844485 

Dipole components along the rotational axes: 
x,y,z [a.u.] :     1.117535    -0.020307    -0.363746 
x,y,z [Debye]:     2.840547    -0.051616    -0.924570 

 

Dipole moment calculation done in   1.1 sec 

Maximum memory used throughout the entire PROP-calculation: 17.2 MB

--------------------------------
SUGGESTED CITATIONS FOR THIS RUN
--------------------------------

Below you find a list of papers that are relevant to this ORCA run
We neither can nor want to force you to cite these papers, but we appreciate if you do
You receive ORCA, which is the product of decades of hard work by many enthusiastic individuals, for free
The only thing we kindly ask in return is that you cite our papers,
We deeply appreciate it, if you show your appreciation for ORCA by not just citing the generic ORCA reference.

Please note that relegating all ORCA citations to the supporting information does *not* help us.
SI sections are not indexed - citations you put there will not count into any citation statistics
But we need these citations in order to attract the funding resources that allow us to do what we are doing

Therefore, if you are a happy ORCA user, please consider citing a few of the papers listed below in the main body of your paper

In addition to the list printed below, the program has created the file sp.bibtex that contains the list in bibtex format
You can import this file easily into all common literature databanks and citation aid programs


List of essential papers. We consider these as the minimum necessary citations

  1. Neese,F.
     Software update: the ORCA program system, version 5.0
     WIRES Comput. Molec. Sci., 2022 12(1)e1606
     doi.org/10.1002/wcms.1606

List of papers to cite with high priority. The work reported in these papers was absolutely
necessary for this run to complete.
Our perspective: the developers of density functionals and basis sets usually get cited in chemistry papers
Good! But without the algorithms to do something with them, the functionals or basis sets would not do anything.
Hence, in our opinion, the algorithm design and method developments papers are equally worthy of getting cited

  1. Neese,F.
     An improvement of the resolution of the identity approximation for the formation of the Coulomb matrix
     J. Comp. Chem., 2003 24(14)1740-1747
     doi.org/10.1002/jcc.10318
  2. Neese,F.
     The SHARK Integral Generation and Digestion System
     J. Comp. Chem., 2022  1-16
     doi.org/10.1002/jcc.26942
  3. Caldeweyher,E.; Bannwarth,C.; Grimme,S.
     Extension of the D3 dispersion coefficient model
     J. Chem. Phys., 2017 147 034112
     doi.org/10.1063/1.4993215
  4. Caldeweyher,E.; Ehlert,S.; Hansen,A.; Neugebauer,H.; Spicher,S.; Bannwarth,C.; Grimme,S.
     A generally applicable atomic-charge dependent London dispersion correction
     J. Chem. Phys., 2019 150 154122
     doi.org/10.1063/1.5090222
  5. Caldeweyher,E.; Mewes,J.; Ehlert,S.; Grimme,S.
     Extension and evaluation of the D4 London-dispersion model for periodic systems
     Phys. Chem. Chem. Phys., 2020 22(16)8499-8512
     doi.org/10.1039/D0CP00502A
  6. Wittmann,L.; Gordiy,I.; Friede,M.; Helmich-Paris,B.; Grimme,S.; Hansen,A.; Bursch,M.
     Extension of the D3 and D4 London Dispersion Corrections to the full Actinides Series
     Phys. Chem. Chem. Phys., 2024 26(32)21379-21394
     doi.org/https://doi.org/10.1039/D4CP01514B 

List of suggested additional citations. These are papers that are important in the 'surrounding' of 
of this run, or papers that preceded the highly important papers. If you like your results we are grateful for a citation.

  1. Neese,F.
     The ORCA program system
     WIRES Comput. Molec. Sci., 2012 2(1)73-78
     doi.org/10.1002/wcms.81
  2. Neese,F.
     Software update: the ORCA program system, version 4.0
     WIRES Comput. Molec. Sci., 2018 8(1)1-6
     doi.org/10.1002/wcms.1327
  3. Neese,F.; Wennmohs,F.; Becker,U.; Riplinger,C.
     The ORCA quantum chemistry program package
     J. Chem. Phys., 2020 152 Art. No. L224108
     doi.org/10.1063/5.0004608

List of optional additional citations

  1. Neese,F.
     Approximate second-order SCF convergence for spin unrestricted wavefunctions
     Chem. Phys. Lett., 2000 325(1-3)93-98
     doi.org/10.1016/s0009-2614(00)00662-x

Timings for individual modules:

Sum of individual times          ...       22.464 sec (=   0.374 min)
Startup calculation              ...        0.885 sec (=   0.015 min)   3.9 %
SCF iterations                   ...       20.264 sec (=   0.338 min)  90.2 %
Property calculations            ...        1.315 sec (=   0.022 min)   5.9 %
                             ****ORCA TERMINATED NORMALLY****
TOTAL RUN TIME: 0 days 0 hours 0 minutes 26 seconds 473 msec
