
                                 *****************
                                 * O   R   C   A *
                                 *****************

                                            #,                                       
                                            ###                                      
                                            ####                                     
                                            #####                                    
                                            ######                                   
                                           ########,                                 
                                     ,,################,,,,,                         
                               ,,#################################,,                 
                          ,,##########################################,,             
                       ,#########################################, ''#####,          
                    ,#############################################,,   '####,        
                  ,##################################################,,,,####,       
                ,###########''''           ''''###############################       
              ,#####''   ,,,,##########,,,,          '''####'''          '####       
            ,##' ,,,,###########################,,,                        '##       
           ' ,,###''''                  '''############,,,                           
         ,,##''                                '''############,,,,        ,,,,,,###''
      ,#''                                            '''#######################'''  
     '                                                          ''''####''''         
             ,#######,   #######,   ,#######,      ##                                
            ,#'     '#,  ##    ##  ,#'     '#,    #''#        ,####,   ,####,        
            ##       ##  ##   ,#'  ##            #'  '#       #'       #'  '#        
            ##       ##  #######   ##           ,######,      #####,   #    #        
            '#,     ,#'  ##    ##  '#,     ,#' ,#      #,     #,   #   #,  ,#        
             '#######'   ##     ##  '#######'  #'      '#     '####' # '####'        



                #########################################################
                #                        -***-                          #
                #          Department of theory and spectroscopy        #
                #                                                       #
                #                      Frank Neese                      #
                #                                                       #
                #     Directorship, Architecture, Infrastructure        #
                #                    SHARK, DRIVERS                     #
                #        Core code/Algorithms in most modules           #
                #                                                       #
                #        Max Planck Institute fuer Kohlenforschung      #
                #                Kaiser Wilhelm Platz 1                 #
                #                 D-45470 Muelheim/Ruhr                 #
                #                      Germany                          #
                #                                                       #
                #                  All rights reserved                  #
                #                        -***-                          #
                #########################################################


                         Program Version 6.0.1  -  RELEASE   -


 With contributions from (in alphabetic order):
[Max-Planck-Institut fuer Kohlenforschung]                               
  Daniel Aravena         : Magnetic Suceptibility                        
  Michael Atanasov       : Ab Initio Ligand Field Theory (pilot matlab implementation)
  Alexander A. Auer      : GIAO ZORA, VPT2 properties, NMR spectrum      
  Ute Becker             : All parallelization in ORCA, NUMFREQ, NUMCALC 
  Giovanni Bistoni       : ED, misc. LED, open-shell LED, HFLD           
  Martin Brehm           : Molecular dynamics                            
  Dmytro Bykov           : pre 5.0 version of the SCF Hessian            
  Marcos Casanova-Páez   : Triplet and SCS-CIS(D). UHF-(DLPNO)-IP/EA/STEOM-CCSD. UHF-CVS-IP/STEOM-CCSD   
  Vijay G. Chilkuri      : MRCI spin determinant printing, contributions to CSF-ICE 
  Pauline Colinet        : FMM embedding                                 
  Dipayan Datta          : RHF DLPNO-CCSD density                        
  Achintya Kumar Dutta   : EOM-CC, STEOM-CC                              
  Nicolas Foglia         : Exact transition moments, OPA infrastructure, MCD improvements    
  Dmitry Ganyushin       : Spin-Orbit,Spin-Spin,Magnetic field MRCI      
  Miquel Garcia-Rates    : C-PCM and meta-GGA Hessian, CCSD/C-PCM, Gaussian charge scheme 
  Tiago L. C. Gouveia    : GS-ROHF, GS-ROCIS                             
  Yang Guo               : DLPNO-NEVPT2, F12-NEVPT2, CIM, IAO-localization        
  Andreas Hansen         : Spin unrestricted coupled pair/coupled cluster methods 
  Ingolf Harden          : AUTO-CI MPn and infrastructure                
  Benjamin Helmich-Paris : MC-RPA, TRAH-(SCF,CASSCF), AVAS, COSX integrals, SCF dyn. polar. 
  Lee Huntington         : MR-EOM, pCC                                   
  Robert Izsak           : Overlap fitted RIJCOSX, COSX-SCS-MP3, EOM     
  Riya Kayal             : Wick's Theorem for AUTO-CI, AUTO-CI UHF-CCSDT 
  Emily Kempfer          : AUTO-CI, RHF CISDT and CCSDT                  
  Christian Kollmar      : KDIIS, OOCD, Brueckner-CCSD(T), CCSD density, CASPT2, CASPT2-K, improved NEVPT2 
  Axel Koslowski         : Symmetry handling                             
  Simone Kossmann        : meta-GGA functionals, TD-DFT gradient, OOMP2, (MP2 Hessian; deprecated post 5.0) 
  Lucas Lang             : DCDCAS                                        
  Marvin Lechner         : AUTO-CI (C++ implementation), FIC-MRCC        
  Spencer Leger          : CASSCF response                               
  Dagmar Lenk            : GEPOL surface, SMD, ORCA-2-JSON               
  Dimitrios Liakos       : Extrapolation schemes; Compound Job, initial MDCI parallelization 
  Dimitrios Manganas     : Further ROCIS development; embedding schemes. LFT, Crystal Embedding 
  Dimitrios Pantazis     : SARC Basis sets                               
  Anastasios Papadopoulos: AUTO-CI, single reference methods and gradients 
  Taras Petrenko         : pre 6.0 DFT Hessian and TD-DFT gradient, (ASA, deprecated), ECA, 1-Electron XAS/XES, NRVS 
  Peter Pinski           : DLPNO-MP2, DLPNO-MP2 Gradient                 
  Christoph Reimann      : Effective Core Potentials                     
  Marius Retegan         : Local ZFS, SOC                                
  Christoph Riplinger    : Optimizer, TS searches, QM/MM, DLPNO-CCSD(T), (RO)-DLPNO pert. Triples 
  Michael Roemelt        : Original ROCIS implementation                 
  Masaaki Saitow         : Open-shell DLPNO-CCSD energy and density      
  Barbara Sandhoefer     : DKH picture change effects                    
  Kantharuban Sivalingam : CASSCF convergence/infrastructure, NEVPT2 and variants, FIC-MRCI 
  Bernardo de Souza      : ESD, SOC TD-DFT                               
  Georgi L. Stoychev     : AutoAux, RI-MP2 NMR, DLPNO-MP2 response, X2C  
  Van Anh Tran           : RI-MP2 g-tensors                              
  Willem Van den Heuvel  : Paramagnetic NMR                              
  Zikuan Wang            : NOTCH, Electric field optimization            
  Frank Wennmohs         : Technical directorship and infrastructure     
  Hang Xu                : AUTO-CI-Response properties                   
                                                                         
[FACCTs GmbH]                                                            
  Markus Bursch, Miquel Garcia-Rates, Christoph Riplinger, Bernardo de Souza, Georgi L. Stoychev 
                                                                 
  APM, Basis sets (HGBS, AHGBS, def-TZVP (Ac-Lr), def2-XVPD (La-Lu)), CI-OPT, improved COSX, DLPNO-Multilevel,           
  DOCKER, DRACO, updates on ESD, GOAT, IRC, LR-CPCM, MBIS, meta-GGA TD-DFT gradient, ML-optimized integration grids, 
  MM, NACMEs, nearIR, NEB, NEB-TS, NL-DFT gradient (VV10), 2- and 3-layer-ONIOM, interface openCOSMO-RS, QMMM,   
  Crystal-QMMM, SF, symmetry and pop. for TD-DFT, r2SCAN hybrids, SOLVATOR                                   
                                                                         
[Other institutions]                                                     
  V. Asgeirsson          : NEB                                           
  Christoph Bannwarth    : sTDA-DFT, sTD-DFT, PBEh-3c, B97-3c, D3        
  Sebastian Ehlert       : rSCAN, r2SCAN, r2SCAN-3c, D4, dhf basis sets  
  Marvin Friede          : D4 for Fr, Ra, Ac-Lr                          
  Lars Goerigk           : TD-DFT with DH, B97 family of functionals     
  Stefan Grimme          : VdW corrections, initial TS optimization, DFT functionals, gCP, sTDA/sTD-DF 
  Waldemar Hujo          : DFT-NL                                        
  H. Jonsson             : NEB                                           
  Holger Kruse           : gCP                                           
  Marcel Mueller         : wB97X-3c, vDZP basis set                      
  Hagen Neugebauer       : wr2SCAN                                       
  Tobias Risthaus        : range-separated hybrid DFT                    
  Lukas Wittmann         : regularized MP2, r2SCAN double-hybrids, wr2SCAN        
                                                                         
We gratefully acknowledge several colleagues who have allowed us to      
interface, adapt or use parts of their codes:                            
  Ed Valeev, F. Pavosevic, A. Kumar             : LibInt (2-el integral package), F12 methods 
  Garnet Chan, S. Sharma, J. Yang, R. Olivares  : DMRG                   
  Ulf Ekstrom                                   : XCFun DFT Library      
  Mihaly Kallay                                 : mrcc  (arbitrary order and MRCC methods)
  Frank Weinhold                                : gennbo (NPA and NBO analysis)           
  Simon Mueller                                 : openCOSMO-RS                            
  Christopher J. Cramer and Donald G. Truhlar   : smd solvation model                     
  S Lehtola, MJT Oliveira, MAL Marques          : LibXC Library                           
  Liviu Ungur et al                             : ANISO software                          


 Your calculation uses the libint2 library for the computation of 2-el integrals
 For citations please refer to: http://libint.valeyev.net

 Your ORCA version has been built with support for libXC version: 6.2.2
 For citations please refer to: https://libxc.gitlab.io

 This ORCA versions uses:
   CBLAS   interface :  Fast vector & matrix operations
   LAPACKE interface :  Fast linear algebra routines
   SCALAPACK package :  Parallel linear algebra routines
   Shared memory     :  Shared parallel matrices
   BLAS/LAPACK       :  OpenBLAS 0.3.27  USE64BITINT DYNAMIC_ARCH NO_AFFINITY Zen SINGLE_THREADED
        Core in use  :  Zen
   Copyright (c) 2011-2014, The OpenBLAS Project


Your calculation utilizes the geometrical counterpoise correction gCP
Please cite in your paper:
H.Kruse, S. Grimme J.Chem.Phys., 136, (2012), 154101 
   

Your calculation utilizes the atom-pairwise dispersion correction
based on EEQ partial charges (D4)


================================================================================

----- Orbital basis set information -----
Your calculation utilizes the basis: def2-SV(P)
   F. Weigend and R. Ahlrichs, Phys. Chem. Chem. Phys. 7, 3297 (2005).

----- AuxJ basis set information -----
Your calculation utilizes the auxiliary basis: def2/J
   F. Weigend, Phys. Chem. Chem. Phys. 8, 1057 (2006).

================================================================================
                                        WARNINGS
                       Please study these warnings very carefully!
================================================================================


================================================================================
                                       INPUT FILE
================================================================================
NAME = sp.inp
|  1> ! pbe def2-sv(p) def2/J RI DEFGRID1 loosescf d4 GCP(DFT/SV(P)) printgap
|  2> %output
|  3>     printlevel normal
|  4> end
|  5> * xyz 0 1
|  6> C 1.2282794605 0.564111289 6.25249e-05
|  7> C 0.2835604154 -0.6154076148 6.16563e-05
|  8> Br -1.5558024403 0.0278289076 -1.16843e-05
|  9> Cl 2.9086729738 -0.0425086568 -2.75087e-05
| 10> H 1.1016052985 1.1785693026 -0.8921476648
| 11> H 1.1015983519 1.1785833924 0.8923088324
| 12> H 0.4039640607 -1.2283435056 0.8923517582
| 13> H 0.4039906343 -1.2284832205 -0.8920988471
| 14> *
| 15> 
| 16>                          ****END OF INPUT****
================================================================================

                       ****************************
                       * Single Point Calculation *
                       ****************************

---------------------------------
CARTESIAN COORDINATES (ANGSTROEM)
---------------------------------
  C      1.228279    0.564111    0.000063
  C      0.283560   -0.615408    0.000062
  Br    -1.555802    0.027829   -0.000012
  Cl     2.908673   -0.042509   -0.000028
  H      1.101605    1.178569   -0.892148
  H      1.101598    1.178583    0.892309
  H      0.403964   -1.228344    0.892352
  H      0.403991   -1.228483   -0.892099

----------------------------
CARTESIAN COORDINATES (A.U.)
----------------------------
  NO LB      ZA    FRAG     MASS         X           Y           Z
   0 C     6.0000    0    12.011    2.321112    1.066016    0.000118
   1 C     6.0000    0    12.011    0.535852   -1.162952    0.000117
   2 Br   35.0000    0    79.900   -2.940041    0.052589   -0.000022
   3 Cl   17.0000    0    35.453    5.496595   -0.080330   -0.000052
   4 H     1.0000    0     1.008    2.081732    2.227173   -1.685915
   5 H     1.0000    0     1.008    2.081719    2.227200    1.686219
   6 H     1.0000    0     1.008    0.763381   -2.321233    1.686300
   7 H     1.0000    0     1.008    0.763432   -2.321497   -1.685823

--------------------------------
INTERNAL COORDINATES (ANGSTROEM)
--------------------------------
 C      0   0   0     0.000000000000     0.00000000     0.00000000
 C      1   0   0     1.511211076785     0.00000000     0.00000000
 Br     2   1   0     1.948591528273   109.41744424     0.00000000
 Cl     1   2   3     1.786535789255   108.84297199   180.00533714
 H      1   2   3     1.090708034444   111.53707533   298.43093267
 H      1   2   3     1.090746323569   111.53671528    61.57386912
 H      2   1   3     1.089205705999   111.72287792   241.86231898
 H      2   1   3     1.089181114304   111.72868582   118.14200152

---------------------------
INTERNAL COORDINATES (A.U.)
---------------------------
 C      0   0   0     0.000000000000     0.00000000     0.00000000
 C      1   0   0     2.855775065671     0.00000000     0.00000000
 Br     2   1   0     3.682304335315   109.41744424     0.00000000
 Cl     1   2   3     3.376063370141   108.84297199   180.00533714
 H      1   2   3     2.061139477166   111.53707533   298.43093267
 H      1   2   3     2.061211833128   111.53671528    61.57386912
 H      2   1   3     2.058300487843   111.72287792   241.86231898
 H      2   1   3     2.058254016273   111.72868582   118.14200152

---------------------
BASIS SET INFORMATION
---------------------
There are 4 groups of distinct atoms

 Group   1 Type C   : 7s4p1d contracted to 3s2p1d pattern {511/31/1}
 Group   2 Type Br  : 14s10p6d contracted to 5s4p3d pattern {63311/5311/411}
 Group   3 Type Cl  : 10s7p1d contracted to 4s3p1d pattern {5311/511/1}
 Group   4 Type H   : 4s contracted to 2s pattern {31}

Atom   0C    basis set group =>   1
Atom   1C    basis set group =>   1
Atom   2Br   basis set group =>   2
Atom   3Cl   basis set group =>   3
Atom   4H    basis set group =>   4
Atom   5H    basis set group =>   4
Atom   6H    basis set group =>   4
Atom   7H    basis set group =>   4
---------------------------------
AUXILIARY/J BASIS SET INFORMATION
---------------------------------
There are 4 groups of distinct atoms

 Group   1 Type C   : 12s5p4d2f1g contracted to 6s4p3d1f1g pattern {711111/2111/211/2/1}
 Group   2 Type Br  : 19s5p5d3f1g contracted to 8s4p3d2f1g pattern {121111111/2111/311/21/1}
 Group   3 Type Cl  : 14s5p5d2f1g contracted to 8s4p3d1f1g pattern {71111111/2111/311/2/1}
 Group   4 Type H   : 5s2p1d contracted to 3s1p1d pattern {311/2/1}

Atom   0C    basis set group =>   1
Atom   1C    basis set group =>   1
Atom   2Br   basis set group =>   2
Atom   3Cl   basis set group =>   3
Atom   4H    basis set group =>   4
Atom   5H    basis set group =>   4
Atom   6H    basis set group =>   4
Atom   7H    basis set group =>   4
------------------------------------------------------------------------------
                             ORCA STARTUP CALCULATIONS
                           -- RI-GTO INTEGRALS CHOSEN --
------------------------------------------------------------------------------
------------------------------------------------------------------------------
                   ___                                                        
                  /   \      - P O W E R E D   B Y -                         
                 /     \                                                     
                 |  |  |   _    _      __       _____    __    __             
                 |  |  |  | |  | |    /  \     |  _  \  |  |  /  |          
                  \  \/   | |  | |   /    \    | | | |  |  | /  /          
                 / \  \   | |__| |  /  /\  \   | |_| |  |  |/  /          
                |  |  |   |  __  | /  /__\  \  |    /   |      \           
                |  |  |   | |  | | |   __   |  |    \   |  |\   \          
                \     /   | |  | | |  |  |  |  | |\  \  |  | \   \       
                 \___/    |_|  |_| |__|  |__|  |_| \__\ |__|  \__/        
                                                                              
                      - O R C A' S   B I G   F R I E N D -                    
                                      &                                       
                       - I N T E G R A L  F E E D E R -                       
                                                                              
 v1 FN, 2020, v2 2021, v3 2022-2024                                           
------------------------------------------------------------------------------


----------------------
SHARK INTEGRAL PACKAGE
----------------------

Number of atoms                             ...      8
Number of basis functions                   ...     86
Number of shells                            ...     40
Maximum angular momentum                    ...      2
Integral batch strategy                     ... SHARK/LIBINT Hybrid
RI-J (if used) integral strategy            ... SPLIT-RIJ (Revised 2003 algorithm where possible)
Printlevel                                  ...      1
Contraction scheme used                     ... SEGMENTED contraction
Prescreening option                         ... SCHWARTZ
   Thresh                                   ... 1.000e-09
   Tcut                                     ... 1.000e-10
   Tpresel                                  ... 1.000e-10 
Coulomb Range Separation                    ... NOT USED
Exchange Range Separation                   ... NOT USED
Multipole approximations                    ... NOT USED
Finite Nucleus Model                        ... NOT USED
CABS basis                                  ... NOT available
Auxiliary Coulomb fitting basis             ... AVAILABLE
   # of basis functions in Aux-J            ...    251
   # of shells in Aux-J                     ...     85
   Maximum angular momentum in Aux-J        ...      4
Auxiliary J/K fitting basis                 ... NOT available
Auxiliary Correlation fitting basis         ... NOT available
Auxiliary 'external' fitting basis          ... NOT available

Checking pre-screening integrals            ... done (  0.0 sec) Dimension = 40
Check shell pair data                       ... done (  0.0 sec)
Shell pair information
Shell pair cut-off parameter TPreSel        ...   1.0e-10
Total number of shell pairs                 ...       820
Shell pairs after pre-screening             ...       759
Total number of primitive shell pairs       ...      4017
Primitive shell pairs kept                  ...      2723
          la=0 lb=0:    258 shell pairs
          la=1 lb=0:    235 shell pairs
          la=1 lb=1:     61 shell pairs
          la=2 lb=0:    126 shell pairs
          la=2 lb=1:     60 shell pairs
          la=2 lb=2:     19 shell pairs

Calculating one electron integrals          ... done (  0.0 sec)
Calculating RI/J V-Matrix + Cholesky decomp.... done (  0.0 sec)
Calculating Nuclear repulsion               ... done (  0.0 sec) ENN=    289.425302731773 Eh

Diagonalization of the overlap matrix:
Smallest eigenvalue                        ... 3.397e-03
Time for diagonalization                   ...    0.001 sec
Threshold for overlap eigenvalues          ... 1.000e-07
Number of eigenvalues below threshold      ... 0
Time for construction of square roots      ...    0.003 sec
Total time needed                          ...    0.005 sec

-------------------
DFT GRID GENERATION
-------------------

General Integration Accuracy     IntAcc      ... 4.159
Radial Grid Type                 RadialGrid  ... OptM3 with GC (2021)
Angular Grid (max. ang.)         AngularGrid ... 3 (Lebedev-194)
Angular grid pruning method      GridPruning ... 4 (adaptive)
Weight generation scheme         WeightScheme... mBecke (2022)
Basis function cutoff            BFCut       ... 1.0000e-10
Integration weight cutoff        WCut        ... 1.0000e-14
Partially contracted basis set               ... off
Rotationally invariant grid construction     ... off
Angular grids for H and He will be reduced by one unit
Core-polarized basis detected: some atoms will have their core
                               angular grid increased.

Total number of grid points                  ...    21989
Total number of batches                      ...      348
Average number of points per batch           ...       63
Average number of grid points per atom       ...     2749
Initializing property integral containers    ... done (  0.0 sec)

SHARK setup successfully completed in   0.2 seconds

Maximum memory used throughout the entire STARTUP-calculation: 12.9 MB
-------------------------------------------------------------------------------
                                 ORCA GUESS
                   Start orbitals & Density for SCF / CASSCF
-------------------------------------------------------------------------------

------------
SCF SETTINGS
------------
Hamiltonian:
 Density Functional     Method          .... DFT(GTOs)
 Exchange Functional    Exchange        .... PBE
   PBE kappa parameter   XKappa         ....  0.804000
   PBE mue parameter    XMuePBE         ....  0.219520
 Correlation Functional Correlation     .... PBE
   PBE beta parameter  CBetaPBE         ....  0.066725
 LDA part of GGA corr.  LDAOpt          .... PW91-LDA
 Gradients option       PostSCFGGA      .... off
   NL short-range parameter             ....  6.400000
 RI-approximation to the Coulomb term is turned on
   Number of AuxJ basis functions       .... 251


General Settings:
 Integral files         IntName         .... sp
 Hartree-Fock type      HFTyp           .... RHF
 Total Charge           Charge          ....    0
 Multiplicity           Mult            ....    1
 Number of Electrons    NEL             ....   68
 Basis Dimension        Dim             ....   86
 Nuclear Repulsion      ENuc            ....    289.4253027318 Eh

Convergence Acceleration:
 AO-DIIS                CNVDIIS         .... on
   Start iteration      DIISMaxIt       ....    12
   Startup error        DIISStart       ....  0.200000
   # of expansion vecs  DIISMaxEq       ....     5
   Bias factor          DIISBfac        ....   1.050
   Max. coefficient     DIISMaxC        ....  10.000
 MO-DIIS                CNVKDIIS        .... off
 Trust-Rad. Augm. Hess. CNVTRAH         .... auto
   Auto Start mean grad. ratio tolernc. ....  1.125000
   Auto Start start iteration           ....    50
   Auto Start num. interpolation iter.  ....    10
   Max. Number of Micro iterations      ....    24
   Max. Number of Macro iterations      .... Maxiter - #DIIS iter
   Number of Davidson start vectors     ....     2
   Converg. threshold    (grad. norm)   ....   1.000e-04
   Grad. Scal. Fac. for Micro threshold ....   0.100
   Minimum threshold for Micro iter.    ....   1.000e-02
   NR start threshold (gradient norm)   ....   1.000e-04
   Initial trust radius                 ....   0.400
   Minimum AH scaling param. (alpha)    ....   1.000
   Maximum AH scaling param. (alpha)    .... 1000.000
   Quad. conv. algorithm                .... NR
   White noise on init. David. guess    .... on
   Maximum white noise                  ....   0.010
   Pseudo random numbers                .... off
   Inactive MOs                         .... canonical
   Orbital update algorithm             .... Taylor
   Preconditioner                       .... Diag
   Full preconditioner red. dimension   ....   250
 SOSCF                  CNVSOSCF        .... on
   Start iteration      SOSCFMaxIt      ....   150
   Startup grad/error   SOSCFStart      ....  0.003300
   Hessian update       SOSCFHessUp     .... L-BFGS
 Level Shifting         CNVShift        .... on
   Level shift para.    LevelShift      ....    0.2500
   Turn off err/grad.   ShiftErr        ....    0.0010
 Zerner damping         CNVZerner       .... off
 Static damping         CNVDamp         .... on
   Fraction old density DampFac         ....    0.7000
   Max. Damping (<1)    DampMax         ....    0.9800
   Min. Damping (>=0)   DampMin         ....    0.0000
   Turn off err/grad.   DampErr         ....    0.1000

SCF Procedure:
 Maximum # iterations   MaxIter         ....   125
 SCF integral mode      SCFMode         .... Direct
   Integral package                     .... SHARK and LIBINT hybrid scheme
 Reset frequency        DirectResetFreq ....    20
 Integral Threshold     Thresh          ....  1.000e-09 Eh
 Primitive CutOff       TCut            ....  1.000e-10 Eh

Convergence Tolerance:
 Convergence Check Mode ConvCheckMode   .... Total+1el-Energy
 Convergence forced     ConvForced      .... 0
 Energy Change          TolE            ....  1.000e-05 Eh
 1-El. energy change                    ....  1.000e-02 Eh
 Orbital Gradient       TolG            ....  1.000e-04
 Orbital Rotation angle TolX            ....  1.000e-04
 DIIS Error             TolErr          ....  5.000e-04

------------------------------
INITIAL GUESS: MODEL POTENTIAL
------------------------------
Loading Hartree-Fock densities                     ... done
Calculating cut-offs                               ... done
Initializing the effective Hamiltonian             ... done
Setting up the integral package (SHARK)            ... done
Starting the Coulomb interaction                   ... done (   0.0 sec)
Making the grid                                    ... done (   0.1 sec)
Mapping shells                                     ... done
Starting the XC term evaluation                    ... done (   0.0 sec)
  promolecular density results
     # of electrons  =     67.996247501
     EX              =   -128.067342681
     EC              =     -2.903281456
     EX+EC           =   -130.970624137
Transforming the Hamiltonian                       ... done (   0.0 sec)
Diagonalizing the Hamiltonian                      ... done (   0.0 sec)
Back transforming the eigenvectors                 ... done (   0.0 sec)
Now organizing SCF variables                       ... done
                      ------------------
                      INITIAL GUESS DONE (   0.1 sec)
                      ------------------
             **** ENERGY FILE WAS UPDATED (sp.en.tmp) ****
Finished Guess after   0.2 sec
Maximum memory used throughout the entire GUESS-calculation: 11.4 MB

-------------------------------------------------------------------------------------------
                                      ORCA LEAN-SCF
                              memory conserving SCF solver
-------------------------------------------------------------------------------------------

----------------------------------------D-I-I-S--------------------------------------------
Iteration    Energy (Eh)           Delta-E    RMSDP     MaxDP     DIISErr   Damp  Time(sec)
-------------------------------------------------------------------------------------------
               ***  Starting incremental Fock matrix formation  ***
    1    -3111.7322983281710549     0.00e+00  2.56e-03  4.99e-02  9.44e-02  0.700   0.1
    2    -3111.7491762570534775    -1.69e-02  1.79e-03  2.67e-02  4.17e-02  0.700   0.1
                               ***Turning on AO-DIIS***
    3    -3111.7550017928460875    -5.83e-03  8.74e-04  1.28e-02  1.44e-02  0.700   0.1
    4    -3111.7587337262343681    -3.73e-03  1.57e-03  2.29e-02  9.29e-03  0.000   0.1
                              *** Initializing SOSCF ***
---------------------------------------S-O-S-C-F--------------------------------------
Iteration    Energy (Eh)           Delta-E    RMSDP     MaxDP     MaxGrad    Time(sec)
--------------------------------------------------------------------------------------
    5    -3111.7671407815782914    -8.41e-03  2.41e-04  4.32e-03  2.26e-03     0.1
               *** Restarting incremental Fock matrix formation ***
    6    -3111.7671823359964947    -4.16e-05  1.32e-04  1.73e-03  3.02e-04     0.1
    7    -3111.7671835968394589    -1.26e-06  3.97e-05  8.96e-04  2.80e-04     0.1
                 **** Energy Check signals convergence ****

               *****************************************************
               *                     SUCCESS                       *
               *           SCF CONVERGED AFTER   7 CYCLES          *
               *****************************************************

             **** ENERGY FILE WAS UPDATED (sp.en.tmp) ****

----------------
TOTAL SCF ENERGY
----------------

Total Energy       :      -3111.76718359683946 Eh          -84675.48988 eV

Components:
Nuclear Repulsion  :        289.42530273177312 Eh            7875.66288 eV
Electronic Energy  :      -3401.19248632861263 Eh          -92551.15276 eV
One Electron Energy:      -4898.56958521541583 Eh         -133296.85509 eV
Two Electron Energy:       1497.37709888680320 Eh           40745.70233 eV

Virial components:
Potential Energy   :      -6219.10685228469629 Eh         -169230.50096 eV
Kinetic Energy     :       3107.33966868785683 Eh           84555.01108 eV
Virial Ratio       :          2.00142485707424

DFT components:
N(Alpha)           :       33.999934004564 electrons
N(Beta)            :       33.999934004564 electrons
N(Total)           :       67.999868009128 electrons
E(X)               :     -128.309621850621 Eh       
E(C)               :       -2.908839658474 Eh       
E(XC)              :     -131.218461509095 Eh       

---------------
SCF CONVERGENCE
---------------

  Last Energy change         ...    1.2608e-06  Tolerance :   1.0000e-05
  Last MAX-Density change    ...    8.9587e-04  Tolerance :   1.0000e-03
  Last RMS-Density change    ...    3.9710e-05  Tolerance :   1.0000e-04
  Last DIIS Error            ...    2.2622e-03  Tolerance :   5.0000e-04
  Last Orbital Gradient      ...    2.8028e-04  Tolerance :   1.0000e-04
  Last Orbital Rotation      ...    3.4416e-04  Tolerance :   1.0000e-04


----------------
ORBITAL ENERGIES
----------------

  NO   OCC          E(Eh)            E(eV) 
   0   2.0000    -480.934255    -13086.8864 
   1   2.0000    -100.633946     -2738.3889 
   2   2.0000     -61.776808     -1681.0324 
   3   2.0000     -55.707458     -1515.8770 
   4   2.0000     -55.704260     -1515.7900 
   5   2.0000     -55.704196     -1515.7882 
   6   2.0000      -9.958618      -270.9878 
   7   2.0000      -9.954897      -270.8865 
   8   2.0000      -9.169830      -249.5238 
   9   2.0000      -8.402404      -228.6410 
  10   2.0000      -7.001516      -190.5209 
  11   2.0000      -6.989597      -190.1966 
  12   2.0000      -6.989180      -190.1853 
  13   2.0000      -6.284557      -171.0115 
  14   2.0000      -6.270055      -170.6169 
  15   2.0000      -6.269634      -170.6054 
  16   2.0000      -2.485670       -67.6385 
  17   2.0000      -2.482125       -67.5421 
  18   2.0000      -2.481802       -67.5333 
  19   2.0000      -2.470949       -67.2379 
  20   2.0000      -2.470932       -67.2375 
  21   2.0000      -0.799197       -21.7473 
  22   2.0000      -0.741851       -20.1868 
  23   2.0000      -0.644758       -17.5448 
  24   2.0000      -0.562328       -15.3017 
  25   2.0000      -0.454316       -12.3626 
  26   2.0000      -0.410484       -11.1698 
  27   2.0000      -0.398423       -10.8417 
  28   2.0000      -0.364922        -9.9300 
  29   2.0000      -0.342953        -9.3322 
  30   2.0000      -0.265950        -7.2369 
  31   2.0000      -0.259935        -7.0732 
  32   2.0000      -0.248592        -6.7645 
  33   2.0000      -0.246333        -6.7031 
  34   0.0000      -0.040541        -1.1032 
  35   0.0000       0.003429         0.0933 
  36   0.0000       0.059526         1.6198 
  37   0.0000       0.069487         1.8908 
  38   0.0000       0.073475         1.9994 
  39   0.0000       0.109208         2.9717 
  40   0.0000       0.141413         3.8480 
  41   0.0000       0.290688         7.9100 
  42   0.0000       0.343478         9.3465 
  43   0.0000       0.346613         9.4318 
  44   0.0000       0.364530         9.9194 
*Only the first 10 virtual orbitals were printed.

                    ********************************
                    * MULLIKEN POPULATION ANALYSIS *
                    ********************************

-----------------------
MULLIKEN ATOMIC CHARGES
-----------------------
   0 C :   -0.158069
   1 C :   -0.221102
   2 Br:   -0.104472
   3 Cl:   -0.133541
   4 H :    0.152849
   5 H :    0.152856
   6 H :    0.155739
   7 H :    0.155740
Sum of atomic charges:   -0.0000000

--------------------------------
MULLIKEN REDUCED ORBITAL CHARGES
--------------------------------
  0 C s       :     3.137700  s :     3.137700
      pz      :     1.132622  p :     2.976332
      px      :     0.793073
      py      :     1.050637
      dz2     :     0.007099  d :     0.044037
      dxz     :     0.005375
      dyz     :     0.011865
      dx2y2   :     0.009904
      dxy     :     0.009794

  1 C s       :     3.168683  s :     3.168683
      pz      :     1.118647  p :     3.014829
      px      :     0.838416
      py      :     1.057766
      dz2     :     0.006207  d :     0.037590
      dxz     :     0.004179
      dyz     :     0.011695
      dx2y2   :     0.007695
      dxy     :     0.007814

  2 Brs       :     7.970347  s :     7.970347
      pz      :     5.976294  p :    17.091897
      px      :     5.252432
      py      :     5.863171
      dz2     :     2.005906  d :    10.042227
      dxz     :     2.008065
      dyz     :     2.001985
      dx2y2   :     2.013733
      dxy     :     2.012538

  3 Cls       :     5.958069  s :     5.958069
      pz      :     3.964051  p :    11.143261
      px      :     3.327986
      py      :     3.851224
      dz2     :     0.004632  d :     0.032211
      dxz     :     0.005805
      dyz     :     0.001268
      dx2y2   :     0.010869
      dxy     :     0.009637

  4 H s       :     0.847151  s :     0.847151

  5 H s       :     0.847144  s :     0.847144

  6 H s       :     0.844261  s :     0.844261

  7 H s       :     0.844260  s :     0.844260


------------------------
MULLIKEN OVERLAP CHARGES
------------------------
B(  0-C ,  1-C ) :   0.7264 B(  0-C ,  2-Br) :  -0.1230 B(  0-C ,  3-Cl) :   0.4932 
B(  0-C ,  4-H ) :   0.7331 B(  0-C ,  5-H ) :   0.7331 B(  1-C ,  2-Br) :   0.4768 
B(  1-C ,  3-Cl) :  -0.1167 B(  1-C ,  4-H ) :  -0.0512 B(  1-C ,  5-H ) :  -0.0512 
B(  1-C ,  6-H ) :   0.7141 B(  1-C ,  7-H ) :   0.7142 B(  2-Br,  6-H ) :  -0.0533 
B(  2-Br,  7-H ) :  -0.0533 B(  3-Cl,  4-H ) :  -0.0545 B(  3-Cl,  5-H ) :  -0.0544 
B(  4-H ,  5-H ) :  -0.0604 B(  6-H ,  7-H ) :  -0.0598 


                     *******************************
                     * LOEWDIN POPULATION ANALYSIS *
                     *******************************

----------------------
LOEWDIN ATOMIC CHARGES
----------------------
   0 C :   -0.297952
   1 C :   -0.306574
   2 Br:    0.029683
   3 Cl:    0.043762
   4 H :    0.131124
   5 H :    0.131127
   6 H :    0.134415
   7 H :    0.134415

-------------------------------
LOEWDIN REDUCED ORBITAL CHARGES
-------------------------------
  0 C s       :     2.992584  s :     2.992584
      pz      :     1.167313  p :     3.204688
      px      :     0.935271
      py      :     1.102104
      dz2     :     0.016397  d :     0.100680
      dxz     :     0.010696
      dyz     :     0.027200
      dx2y2   :     0.020510
      dxy     :     0.025876

  1 C s       :     2.996755  s :     2.996755
      pz      :     1.160761  p :     3.223086
      px      :     0.958497
      py      :     1.103827
      dz2     :     0.014896  d :     0.086733
      dxz     :     0.007929
      dyz     :     0.026561
      dx2y2   :     0.016196
      dxy     :     0.021151

  2 Brs       :     7.832966  s :     7.832966
      pz      :     5.961764  p :    17.081447
      px      :     5.264537
      py      :     5.855146
      dz2     :     2.008405  d :    10.055904
      dxz     :     2.008917
      dyz     :     2.002227
      dx2y2   :     2.020081
      dxy     :     2.016273

  3 Cls       :     5.790907  s :     5.790907
      pz      :     3.951333  p :    11.129173
      px      :     3.333251
      py      :     3.844588
      dz2     :     0.005487  d :     0.036159
      dxz     :     0.005755
      dyz     :     0.001285
      dx2y2   :     0.012840
      dxy     :     0.010791

  4 H s       :     0.868876  s :     0.868876

  5 H s       :     0.868873  s :     0.868873

  6 H s       :     0.865585  s :     0.865585

  7 H s       :     0.865585  s :     0.865585


---------------------------------
LOEWDIN BOND ORDERS (THRESH 0.050000)
---------------------------------
B(  0-C ,  1-C ) :   1.1485 B(  0-C ,  2-Br) :   0.0888 B(  0-C ,  3-Cl) :   1.1902 
B(  0-C ,  4-H ) :   0.9217 B(  0-C ,  5-H ) :   0.9217 B(  1-C ,  2-Br) :   1.1597 
B(  1-C ,  3-Cl) :   0.0909 B(  1-C ,  6-H ) :   0.9200 B(  1-C ,  7-H ) :   0.9200 
B(  2-Br,  3-Cl) :   0.0563 

------------------------------------------
LOEWDIN REDUCED ORBITAL POPULATIONS PER MO
-------------------------------------------
THRESHOLD FOR PRINTING IS 0.1%%
                      0         1         2         3         4         5   
                 -480.93426 -100.63395 -61.77681 -55.70746 -55.70426 -55.70420
                   2.00000   2.00000   2.00000   2.00000   2.00000   2.00000
                  --------  --------  --------  --------  --------  --------
 2 Br s             100.0       0.0     100.0       0.0       0.0       0.0
 2 Br pz              0.0       0.0       0.0       0.0     100.0       0.0
 2 Br px              0.0       0.0       0.0      87.6       0.0      12.4
 2 Br py              0.0       0.0       0.0      12.4       0.0      87.6
 3 Cl s               0.0     100.0       0.0       0.0       0.0       0.0

                      6         7         8         9        10        11   
                  -9.95862  -9.95490  -9.16983  -8.40240  -7.00152  -6.98960
                   2.00000   2.00000   2.00000   2.00000   2.00000   2.00000
                  --------  --------  --------  --------  --------  --------
 0 C  s              99.7       0.0       0.0       0.0       0.0       0.0
 0 C  px              0.0       0.0       0.1       0.0       0.0       0.0
 1 C  s               0.0      99.7       0.0       0.0       0.0       0.0
 1 C  px              0.0       0.0       0.0       0.1       0.0       0.0
 2 Br s               0.0       0.0       0.0      99.9       0.0       0.0
 3 Cl s               0.0       0.0      99.9       0.0       0.0       0.0
 3 Cl px              0.0       0.0       0.0       0.0      88.4      11.6
 3 Cl py              0.0       0.0       0.0       0.0      11.6      88.4

                     12        13        14        15        16        17   
                  -6.98918  -6.28456  -6.27005  -6.26963  -2.48567  -2.48213
                   2.00000   2.00000   2.00000   2.00000   2.00000   2.00000
                  --------  --------  --------  --------  --------  --------
 2 Br pz              0.0       0.0       0.0     100.0       0.0       0.0
 2 Br px              0.0      89.1      10.8       0.0       0.0       0.0
 2 Br py              0.0      10.8      89.2       0.0       0.0       0.0
 2 Br dz2             0.0       0.0       0.0       0.0      24.0       0.0
 2 Br dx2y2           0.0       0.0       0.0       0.0      47.1      38.1
 2 Br dxy             0.0       0.0       0.0       0.0      28.8      61.9
 3 Cl pz            100.0       0.0       0.0       0.0       0.0       0.0

                     18        19        20        21        22        23   
                  -2.48180  -2.47095  -2.47093  -0.79920  -0.74185  -0.64476
                   2.00000   2.00000   2.00000   2.00000   2.00000   2.00000
                  --------  --------  --------  --------  --------  --------
 0 C  s               0.0       0.0       0.0      23.0       0.0      12.0
 0 C  px              0.0       0.0       0.0       2.0       8.3       5.6
 0 C  py              0.0       0.0       0.0       2.1       0.2       0.2
 0 C  dx2y2           0.0       0.0       0.0       0.1       0.1       0.2
 0 C  dxy             0.0       0.0       0.0       0.0       0.2       0.2
 1 C  s               0.0       0.0       0.0      11.2      13.9       9.9
 1 C  px              0.0       0.0       0.0       0.6       6.0       7.2
 1 C  py              0.0       0.0       0.0       1.7       0.3       0.3
 1 C  dx2y2           0.0       0.0       0.0       0.0       0.0       0.2
 1 C  dxy             0.0       0.0       0.0       0.0       0.1       0.2
 2 Br s               0.0       0.0       0.0       4.7      44.6      31.3
 2 Br px              0.0       0.0       0.0       0.8       1.5       1.2
 2 Br py              0.0       0.0       0.0       0.0       0.2       0.1
 2 Br dz2             0.0       0.0      76.0       0.0       0.1       0.0
 2 Br dxz            89.0      11.0       0.0       0.0       0.0       0.0
 2 Br dyz            11.0      89.0       0.0       0.0       0.0       0.0
 2 Br dx2y2           0.0       0.0      14.8       0.1       0.2       0.1
 2 Br dxy             0.0       0.0       9.2       0.0       0.1       0.0
 3 Cl s               0.0       0.0       0.0      39.2      19.2      19.4
 3 Cl px              0.0       0.0       0.0       2.4       0.1       1.7
 3 Cl py              0.0       0.0       0.0       0.2       0.0       0.1
 3 Cl dx2y2           0.0       0.0       0.0       0.1       0.0       0.0
 4 H  s               0.0       0.0       0.0       3.8       0.0       2.8
 5 H  s               0.0       0.0       0.0       3.8       0.0       2.8
 6 H  s               0.0       0.0       0.0       2.0       2.5       2.3
 7 H  s               0.0       0.0       0.0       2.0       2.5       2.3

                     24        25        26        27        28        29   
                  -0.56233  -0.45432  -0.41048  -0.39842  -0.36492  -0.34295
                   2.00000   2.00000   2.00000   2.00000   2.00000   2.00000
                  --------  --------  --------  --------  --------  --------
 0 C  s              13.5       0.0       0.2       0.1       0.0       0.1
 0 C  pz              0.0      33.4       0.0       0.0      21.1       0.0
 0 C  px              0.0       0.0      14.5       9.6       0.0       5.4
 0 C  py             11.9       0.0       8.2      25.6       0.0       3.6
 0 C  dz2             0.2       0.0       0.1       0.2       0.0       0.2
 0 C  dyz             0.0       0.1       0.0       0.0       0.8       0.0
 0 C  dx2y2           0.0       0.0       0.0       0.0       0.0       0.6
 0 C  dxy             0.0       0.0       0.1       0.1       0.0       0.0
 1 C  s              13.5       0.0       0.3       0.1       0.0       0.0
 1 C  pz              0.0      30.5       0.0       0.0      25.0       0.0
 1 C  px              0.0       0.0       9.2       9.6       0.0      13.2
 1 C  py             11.5       0.0       5.7      25.6       0.0       7.1
 1 C  dz2             0.2       0.0       0.0       0.2       0.0       0.2
 1 C  dyz             0.0       0.0       0.0       0.0       0.9       0.0
 1 C  dx2y2           0.0       0.0       0.0       0.0       0.0       0.4
 1 C  dxy             0.0       0.0       0.0       0.2       0.0       0.0
 2 Br s               5.1       0.0       3.6       0.3       0.0       2.1
 2 Br pz              0.0       2.0       0.0       0.0       4.6       0.0
 2 Br px              1.7       0.0      15.0       0.4       0.0      30.7
 2 Br py              1.1       0.0       0.1       4.7       0.0       3.8
 2 Br dz2             0.1       0.0       0.1       0.0       0.0       0.1
 2 Br dxz             0.0       0.2       0.0       0.0       0.2       0.0
 2 Br dx2y2           0.1       0.0       0.3       0.1       0.0       0.3
 2 Br dxy             0.2       0.0       0.0       0.3       0.0       0.1
 3 Cl s               4.9       0.0       5.8       0.3       0.0       0.8
 3 Cl pz              0.0       3.4       0.0       0.0       7.4       0.0
 3 Cl px              2.3       0.0      31.4       0.2       0.0      17.1
 3 Cl py              1.6       0.0       0.7       8.1       0.0       4.4
 3 Cl dz2             0.0       0.0       0.1       0.0       0.0       0.0
 3 Cl dxz             0.0       0.2       0.0       0.0       0.1       0.0
 3 Cl dx2y2           0.0       0.0       0.3       0.1       0.0       0.1
 3 Cl dxy             0.1       0.0       0.0       0.2       0.0       0.1
 4 H  s               8.0       7.8       1.4       3.3       9.0       2.2
 5 H  s               8.0       7.8       1.4       3.3       9.0       2.2
 6 H  s               8.0       7.2       0.6       3.7      10.8       2.6
 7 H  s               8.0       7.2       0.6       3.7      10.8       2.6

                     30        31        32        33        34        35   
                  -0.26595  -0.25994  -0.24859  -0.24633  -0.04054   0.00343
                   2.00000   2.00000   2.00000   2.00000   0.00000   0.00000
                  --------  --------  --------  --------  --------  --------
 0 C  s               0.1       0.0       0.9       0.0       0.2      13.3
 0 C  pz              0.0       3.8       0.0       0.1       0.0       0.0
 0 C  px              0.1       0.0       1.2       0.0       3.5      21.5
 0 C  py              1.3       0.0       1.8       0.0       1.6       0.6
 0 C  dz2             0.1       0.0       0.0       0.0       0.2       0.1
 0 C  dxz             0.0       0.4       0.0       0.0       0.0       0.0
 0 C  dyz             0.0       0.5       0.0       0.0       0.0       0.0
 0 C  dx2y2           0.1       0.0       0.0       0.0       1.0       0.3
 0 C  dxy             0.5       0.0       0.2       0.0       0.0       0.8
 1 C  s               1.1       0.0       0.1       0.0       6.7       6.0
 1 C  pz              0.0       0.2       0.0       2.3       0.0       0.0
 1 C  px              1.4       0.0       0.6       0.0      24.3       2.1
 1 C  py              0.7       0.0       2.2       0.0       2.7       0.5
 1 C  dz2             0.0       0.0       0.0       0.0       0.3       0.0
 1 C  dxz             0.0       0.0       0.0       0.3       0.0       0.0
 1 C  dyz             0.0       0.2       0.0       0.2       0.0       0.0
 1 C  dx2y2           0.1       0.0       0.0       0.0       0.8       0.2
 1 C  dxy             0.0       0.0       0.5       0.0       0.2       0.3
 2 Br s               0.0       0.0       0.0       0.0       3.6       0.6
 2 Br pz              0.0       2.2       0.0      89.4       0.0       0.0
 2 Br px              0.1       0.0      11.8       0.0      29.2       0.5
 2 Br py             13.3       0.0      69.5       0.0       2.8       1.5
 2 Br dz2             0.0       0.0       0.0       0.0       2.8       0.4
 2 Br dx2y2           0.0       0.0       0.0       0.0       5.1       0.3
 2 Br dxy             0.0       0.0       0.0       0.0       2.6       2.7
 3 Cl s               0.0       0.0       0.0       0.0       1.4       2.3
 3 Cl pz              0.0      83.5       0.0       3.2       0.0       0.0
 3 Cl px              7.6       0.0       4.0       0.0       8.3      16.0
 3 Cl py             71.3       0.0       5.7       0.0       0.0       4.4
 3 Cl dz2             0.0       0.0       0.0       0.0       0.2       1.6
 3 Cl dx2y2           0.0       0.0       0.0       0.0       0.6       2.1
 3 Cl dxy             0.0       0.0       0.0       0.0       0.0       3.0
 4 H  s               0.9       4.0       0.2       0.1       0.4       4.2
 5 H  s               0.9       4.0       0.2       0.1       0.4       4.2
 6 H  s               0.2       0.7       0.6       2.1       0.4       5.2
 7 H  s               0.2       0.7       0.6       2.1       0.4       5.2

                     36        37        38        39        40        41   
                   0.05953   0.06949   0.07348   0.10921   0.14141   0.29069
                   0.00000   0.00000   0.00000   0.00000   0.00000   0.00000
                  --------  --------  --------  --------  --------  --------
 0 C  s               3.3       0.0      12.0       0.0       4.7       0.3
 0 C  pz              0.0      13.0       0.0      12.9       0.0       0.0
 0 C  px             11.4       0.0       0.3       0.0      10.6      12.4
 0 C  py              9.5       0.0       2.1       0.0      19.0       5.0
 0 C  dz2             1.3       0.0       0.0       0.0       2.0       2.1
 0 C  dxz             0.0       0.0       0.0       0.8       0.0       0.0
 0 C  dyz             0.0       1.8       0.0       0.1       0.0       0.0
 0 C  dx2y2           0.0       0.0       0.5       0.0       0.2       0.2
 0 C  dxy             0.3       0.0       0.1       0.0       4.4       0.0
 1 C  s               2.5       0.0      12.2       0.0       4.2       1.0
 1 C  pz              0.0      12.6       0.0      12.8       0.0       0.0
 1 C  px              6.0       0.0       1.5       0.0      11.5       1.4
 1 C  py              7.0       0.0       3.3       0.0      18.4       0.1
 1 C  dz2             0.9       0.0       0.0       0.0       2.1       0.0
 1 C  dxz             0.0       0.1       0.0       0.8       0.0       0.0
 1 C  dyz             0.0       1.8       0.0       0.2       0.0       0.0
 1 C  dx2y2           0.2       0.0       0.4       0.0       0.2       0.1
 1 C  dxy             0.1       0.0       0.2       0.0       4.9       0.2
 2 Br s               1.4       0.0       0.1       0.0       1.4      57.7
 2 Br pz              0.0       0.4       0.0       0.3       0.0       0.0
 2 Br px              2.6       0.0       0.0       0.0       0.1       0.8
 2 Br py              0.4       0.0       0.5       0.0       0.5       0.5
 2 Br dz2             0.0       0.0       0.1       0.0       0.4       0.5
 2 Br dxz             0.0       0.4       0.0       3.8       0.0       0.0
 2 Br dyz             0.0       0.0       0.0       0.1       0.0       0.0
 2 Br dx2y2           0.5       0.0       0.1       0.0       5.6       1.5
 2 Br dxy             0.6       0.0       0.1       0.0       0.7       8.6
 3 Cl s               2.2       0.0       0.0       0.0       0.4       0.2
 3 Cl pz              0.0       0.1       0.0       0.5       0.0       0.0
 3 Cl px              4.9       0.0       0.2       0.0       0.1       0.1
 3 Cl py              0.7       0.0       0.1       0.0       0.6       0.2
 3 Cl dz2             0.0       0.0       0.1       0.0       0.1       1.1
 3 Cl dxz             0.0       0.4       0.0       1.8       0.0       0.0
 3 Cl dx2y2           0.6       0.0       0.2       0.0       2.9       0.2
 3 Cl dxy             0.3       0.0       0.3       0.0       0.3       1.2
 4 H  s              12.8      17.6      14.9      16.3       1.1       2.3
 5 H  s              12.9      17.6      14.9      16.3       1.1       2.3
 6 H  s               8.8      17.1      17.9      16.6       1.2       0.1
 7 H  s               8.8      17.2      17.8      16.6       1.2       0.1

                     42        43        44        45        46        47   
                   0.34348   0.34661   0.36453   0.39674   0.42143   0.47784
                   0.00000   0.00000   0.00000   0.00000   0.00000   0.00000
                  --------  --------  --------  --------  --------  --------
 0 C  s               0.0       0.3       0.3       2.0       0.0       6.3
 0 C  pz              6.4       0.0       0.0       0.0      16.9       0.0
 0 C  px              0.0      14.4       8.2       3.8       0.0       4.7
 0 C  py              0.0      10.2       2.3      18.9       0.0       8.2
 0 C  dz2             0.0       1.4       0.7       2.4       0.0       0.6
 0 C  dxz             0.0       0.0       0.0       0.0       1.1       0.0
 0 C  dyz             4.0       0.0       0.0       0.0       4.9       0.0
 0 C  dx2y2           0.0       0.5       0.0       1.0       0.0       0.5
 0 C  dxy             0.0       2.4       1.3       0.1       0.0       0.4
 1 C  s               0.0       2.1       0.0       1.3       0.0       2.4
 1 C  pz             15.8       0.0       0.0       0.0       2.8       0.0
 1 C  px              0.0       1.3      27.0       5.4       0.0       6.2
 1 C  py              0.0      21.0       8.2       2.4       0.0       6.3
 1 C  dz2             0.0       2.8       3.5       0.0       0.0       0.0
 1 C  dxz             0.4       0.0       0.0       0.0       2.7       0.0
 1 C  dyz             6.7       0.0       0.0       0.0       0.0       0.0
 1 C  dx2y2           0.0       0.2       0.1       2.2       0.0       0.6
 1 C  dxy             0.0       1.4       1.3       0.7       0.0       0.5
 2 Br s               0.0       1.0       1.5      16.7       0.0       0.1
 2 Br pz              1.1       0.0       0.0       0.0       0.3       0.0
 2 Br px              0.0       0.2       0.5       8.3       0.0       2.0
 2 Br py              0.0       0.5       0.8       0.1       0.0       0.1
 2 Br dz2             0.0       0.2      15.6       2.7       0.0      33.0
 2 Br dxz            25.7       0.0       0.0       0.0      18.8       0.0
 2 Br dyz             0.5       0.0       0.0       0.0      24.9       0.0
 2 Br dx2y2           0.0       9.7       5.4       0.3       0.0       6.9
 2 Br dxy             0.0      13.1       1.5       4.5       0.0       0.1
 3 Cl s               0.0       2.9      10.9       8.1       0.0       9.4
 3 Cl pz              0.7       0.0       0.0       0.0       1.5       0.0
 3 Cl px              0.0       0.2       0.5       0.0       0.0       0.9
 3 Cl py              0.0       0.2       1.5       0.9       0.0       0.1
 3 Cl dz2             0.0       0.1       0.9       0.8       0.0       0.5
 3 Cl dxz             2.3       0.0       0.0       0.0       9.6       0.0
 3 Cl dyz             0.0       0.0       0.0       0.0       1.7       0.0
 3 Cl dx2y2           0.0       4.8       0.6       0.0       0.0       0.8
 3 Cl dxy             0.0       0.0       2.6       8.3       0.0       0.0
 4 H  s               6.5       0.7       0.3       2.6       7.3       4.1
 5 H  s               6.5       0.7       0.3       2.6       7.3       4.1
 6 H  s              11.7       3.8       2.1       2.0       0.1       0.6
 7 H  s              11.7       3.8       2.1       2.0       0.1       0.6

                     48        49        50        51        52        53   
                   0.48620   0.49724   0.53044   0.54642   0.55846   0.58495
                   0.00000   0.00000   0.00000   0.00000   0.00000   0.00000
                  --------  --------  --------  --------  --------  --------
 0 C  s               6.1       0.0       0.2       1.5       0.0       0.8
 0 C  pz              0.0       2.4       0.0       0.0      10.0       0.0
 0 C  px              5.2       0.0       5.0       0.4       0.0       3.7
 0 C  py              1.2       0.0      12.8       0.5       0.0       5.7
 0 C  dz2             0.3       0.0       0.1       0.1       0.0       0.3
 0 C  dxz             0.0       0.1       0.0       0.0       1.5       0.0
 0 C  dyz             0.0       0.7       0.0       0.0       0.0       0.0
 0 C  dx2y2           0.5       0.0       0.2       0.5       0.0       0.5
 0 C  dxy             0.2       0.0       0.0       0.1       0.0       0.0
 1 C  s               0.0       0.0       3.4      10.3       0.0      10.4
 1 C  pz              0.0       3.4       0.0       0.0       2.3       0.0
 1 C  px              2.7       0.0       1.8       0.3       0.0      17.1
 1 C  py              4.3       0.0       1.9       2.9       0.0       2.7
 1 C  dz2             0.6       0.0       0.7       1.0       0.0       1.4
 1 C  dyz             0.0       0.2       0.0       0.0       1.7       0.0
 1 C  dx2y2           0.7       0.0       0.0       0.0       0.0       0.0
 1 C  dxy             0.5       0.0       0.0       0.1       0.0       0.0
 2 Br s               0.2       0.0       0.2       0.0       0.0       1.4
 2 Br pz              0.0       0.8       0.0       0.0      56.8       0.0
 2 Br px              0.9       0.0      38.4       3.4       0.0       1.1
 2 Br py              3.5       0.0       3.2      36.2       0.0       6.4
 2 Br dz2            10.0       0.0       5.9      11.2       0.0       0.3
 2 Br dxz             0.0      18.4       0.0       0.0       6.1       0.0
 2 Br dyz             0.0      67.0       0.0       0.0       2.8       0.0
 2 Br dx2y2           4.4       0.0      19.0       2.4       0.0      14.1
 2 Br dxy            16.9       0.0       1.7      10.4       0.0       1.1
 3 Cl s              29.0       0.0       1.5       0.5       0.0       3.5
 3 Cl pz              0.0       0.3       0.0       0.0       0.3       0.0
 3 Cl px              3.0       0.0       0.4       0.4       0.0       1.6
 3 Cl py              0.5       0.0       0.3       0.0       0.0       0.1
 3 Cl dz2             3.9       0.0       0.0       0.3       0.0       7.3
 3 Cl dxz             0.0       1.8       0.0       0.0       9.2       0.0
 3 Cl dyz             0.0       0.4       0.0       0.0       1.9       0.0
 3 Cl dx2y2           2.4       0.0       1.3       0.0       0.0       0.0
 3 Cl dxy             0.5       0.0       0.5       0.2       0.0       5.5
 4 H  s               0.9       1.0       0.4       3.2       0.3       1.5
 5 H  s               0.9       1.0       0.4       3.2       0.3       1.5
 6 H  s               0.4       1.3       0.3       5.5       3.5       5.9
 7 H  s               0.4       1.3       0.3       5.5       3.5       5.9

                     54        55        56        57        58        59   
                   0.60999   0.62039   0.63234   0.63853   0.67783   0.69028
                   0.00000   0.00000   0.00000   0.00000   0.00000   0.00000
                  --------  --------  --------  --------  --------  --------
 0 C  s              15.0       0.0      14.7       0.0       0.0       2.7
 0 C  pz              0.0      32.8       0.0       8.8       3.1       0.0
 0 C  px              4.7       0.0       0.2       0.0       0.0       5.3
 0 C  py              1.6       0.0      17.4       0.0       0.0       0.5
 0 C  dz2             0.2       0.0       0.8       0.0       0.0       0.6
 0 C  dxz             0.0       0.2       0.0       0.2       3.5       0.0
 0 C  dyz             0.0       2.3       0.0       0.3       0.7       0.0
 0 C  dx2y2           0.0       0.0       0.0       0.0       0.0       0.3
 0 C  dxy             0.0       0.0       0.0       0.0       0.0       0.8
 1 C  s               9.0       0.0       4.5       0.0       0.0       8.1
 1 C  pz              0.0       9.1       0.0      25.1      25.9       0.0
 1 C  px              7.3       0.0       1.6       0.0       0.0       6.8
 1 C  py             20.4       0.0      14.6       0.0       0.0      10.3
 1 C  dz2             0.2       0.0       0.0       0.0       0.0       0.3
 1 C  dxz             0.0       0.1       0.0       0.0       1.1       0.0
 1 C  dyz             0.0       1.2       0.0       1.8       1.0       0.0
 1 C  dx2y2           0.6       0.0       0.2       0.0       0.0       0.5
 2 Br s               0.1       0.0       0.1       0.0       0.0       0.7
 2 Br pz              0.0       0.3       0.0      26.8       8.4       0.0
 2 Br px              0.5       0.0       2.2       0.0       0.0       1.9
 2 Br py              2.1       0.0      17.2       0.0       0.0      14.8
 2 Br dz2             4.8       0.0       0.0       0.0       0.0       1.9
 2 Br dxz             0.0       0.0       0.0       0.2      13.3       0.0
 2 Br dyz             0.0       1.6       0.0       0.8       0.0       0.0
 2 Br dx2y2           3.4       0.0       0.7       0.0       0.0       0.0
 2 Br dxy             0.6       0.0       0.0       0.0       0.0      14.1
 3 Cl s               7.5       0.0       0.3       0.0       0.0       1.3
 3 Cl pz              0.0       0.0       0.0       1.9       0.4       0.0
 3 Cl px              2.2       0.0       0.8       0.0       0.0       2.1
 3 Cl py              0.0       0.0       0.2       0.0       0.0       2.1
 3 Cl dz2             1.0       0.0       0.0       0.0       0.0      19.1
 3 Cl dxz             0.0       1.0       0.0       7.8       8.9       0.0
 3 Cl dyz             0.0       3.3       0.0       0.8      31.6       0.0
 3 Cl dx2y2           0.1       0.0       2.8       0.0       0.0       0.8
 3 Cl dxy             0.0       0.0       4.2       0.0       0.0       0.1
 4 H  s               5.1      17.0       6.6       2.3       0.0       0.0
 5 H  s               5.1      17.1       6.6       2.3       0.0       0.0
 6 H  s               4.1       7.0       2.2      10.3       1.0       2.4
 7 H  s               4.1       6.9       2.2      10.3       1.0       2.4

                     60        61        62        63        64        65   
                   0.71161   0.73790   0.74055   0.75861   0.76106   0.82309
                   0.00000   0.00000   0.00000   0.00000   0.00000   0.00000
                  --------  --------  --------  --------  --------  --------
 0 C  s              10.3      15.6       0.0       0.0       0.3       0.0
 0 C  pz              0.0       0.0       5.3       0.0       0.0       3.2
 0 C  px              1.3       9.7       0.0       1.7       5.1       0.0
 0 C  py              4.2       2.3       0.0       0.1      10.8       0.0
 0 C  dz2             0.3       1.5       0.0       0.0       0.5       0.0
 0 C  dxz             0.0       0.0       0.7       0.0       0.0       1.3
 0 C  dx2y2           0.0       0.1       0.0       0.2       1.7       0.0
 0 C  dxy             0.9       0.6       0.0       0.1       0.1       0.0
 1 C  s              16.8       0.1       0.0       3.4       0.1       0.0
 1 C  pz              0.0       0.0       4.2       0.0       0.0       4.5
 1 C  px              1.0       1.2       0.0       5.3       0.9       0.0
 1 C  py              1.7       0.1       0.0       0.1       6.1       0.0
 1 C  dz2             0.5       0.1       0.0       0.0       0.5       0.0
 1 C  dxz             0.0       0.0       0.2       0.0       0.0       0.0
 1 C  dyz             0.0       0.0       0.8       0.0       0.0       1.9
 1 C  dx2y2           0.0       0.0       0.0       0.3       0.4       0.0
 1 C  dxy             0.0       0.2       0.0       0.2       0.0       0.0
 2 Br s               0.3       0.1       0.0       0.4       0.0       0.0
 2 Br pz              0.0       0.0       0.6       0.0       0.0       4.0
 2 Br px              9.0       0.0       0.0       0.0       0.3       0.0
 2 Br py              1.8       0.4       0.0       6.8       2.2       0.0
 2 Br dz2             0.0       0.0       0.0       0.0       0.5       0.0
 2 Br dxz             0.0       0.0       1.4       0.0       0.0       4.6
 2 Br dyz             0.0       0.0       0.1       0.0       0.0       0.5
 2 Br dx2y2           4.2       0.0       0.0       0.4       0.1       0.0
 2 Br dxy             1.3       0.5       0.0       3.2       5.3       0.0
 3 Cl s               6.5       2.0       0.0       0.1       0.6       0.0
 3 Cl pz              0.0       0.0       1.5       0.0       0.0      69.8
 3 Cl px             18.8       4.7       0.0       8.0       3.5       0.0
 3 Cl py              3.9       0.3       0.0      16.8       9.9       0.0
 3 Cl dz2             0.0       0.2       0.0      23.6      27.0       0.0
 3 Cl dxz             0.0       0.0      30.4       0.0       0.0       3.7
 3 Cl dyz             0.0       0.0      52.3       0.0       0.0       3.8
 3 Cl dx2y2           2.7      53.1       0.0       1.1       2.4       0.0
 3 Cl dxy             0.5       3.7       0.0      26.2      20.0       0.0
 4 H  s               4.4       1.6       1.1       0.2       0.6       0.3
 5 H  s               4.4       1.6       1.1       0.2       0.6       0.3
 6 H  s               2.7       0.2       0.2       0.7       0.3       1.1
 7 H  s               2.7       0.2       0.2       0.7       0.3       1.1

                     66        67        68        69        70        71   
                   0.91604   0.96115   1.01840   1.04625   1.25894   1.43606
                   0.00000   0.00000   0.00000   0.00000   0.00000   0.00000
                  --------  --------  --------  --------  --------  --------
 0 C  s              16.2       6.4       3.8       0.0       8.8       0.2
 0 C  pz              0.0       0.0       0.0      17.6       0.0       0.0
 0 C  px              5.6       1.2       3.7       0.0       1.9       0.7
 0 C  py              1.1       1.0       0.0       0.0       0.0       0.5
 0 C  dz2             0.0       0.9       0.1       0.0       0.9       5.3
 0 C  dyz             0.0       0.0       0.0       3.5       0.0       0.0
 0 C  dx2y2           1.1       0.3       1.0       0.0       4.4      27.7
 0 C  dxy             0.2       0.0       0.1       0.0       1.3       8.8
 1 C  s              13.1       1.5      24.5       0.0       0.5       0.1
 1 C  pz              0.0       0.0       0.0      14.1       0.0       0.0
 1 C  px              3.8       2.1       3.2       0.0       2.1       0.5
 1 C  py              0.7       0.2       0.3       0.0       0.1       0.4
 1 C  dz2             0.0       1.1       0.0       0.0       0.0       4.7
 1 C  dxz             0.0       0.0       0.0       4.6       0.0       0.0
 1 C  dyz             0.0       0.0       0.0       1.2       0.0       0.0
 1 C  dx2y2           0.0       0.8       1.0       0.0       1.5      33.2
 1 C  dxy             0.1       2.5       0.0       0.0       0.2       7.4
 2 Br s               0.9       9.5       5.5       0.0       0.2       0.4
 2 Br pz              0.0       0.0       0.0       1.5       0.0       0.0
 2 Br px              8.1      15.9       7.2       0.0       0.0       0.1
 2 Br py              2.7       0.8       0.3       0.0       0.1       0.4
 2 Br dz2             2.6       4.6       2.1       0.0       0.0       0.1
 2 Br dxz             0.0       0.0       0.0       6.2       0.0       0.0
 2 Br dyz             0.0       0.0       0.0       1.4       0.0       0.0
 2 Br dx2y2           0.9       5.2       8.5       0.0       0.3       0.0
 2 Br dxy             3.5       2.2       2.2       0.0       0.0       2.3
 3 Cl s               0.1       0.0       0.2       0.0      14.5       0.7
 3 Cl pz              0.0       0.0       0.0      23.6       0.0       0.0
 3 Cl px              1.7       4.8       4.9       0.0      42.0       0.2
 3 Cl py             20.3      26.0      13.8       0.0       2.7       1.8
 3 Cl dz2             3.3       0.2       2.6       0.0       3.7       0.2
 3 Cl dxz             0.0       0.0       0.0      18.8       0.0       0.0
 3 Cl dyz             0.0       0.0       0.0       3.5       0.0       0.0
 3 Cl dx2y2           5.5       0.6       0.0       0.0       8.7       0.1
 3 Cl dxy             1.6       8.2       3.0       0.0       2.6       4.1
 4 H  s               2.3       1.6       0.3       1.1       1.8       0.0
 5 H  s               2.3       1.6       0.3       1.1       1.8       0.0
 6 H  s               1.1       0.2       5.8       0.9       0.0       0.0
 7 H  s               1.1       0.2       5.8       0.9       0.0       0.0

                     72        73        74        75        76        77   
                   1.51439   1.77751   1.82137   1.82984   2.03349   2.08560
                   0.00000   0.00000   0.00000   0.00000   0.00000   0.00000
                  --------  --------  --------  --------  --------  --------
 0 C  s               0.0       2.3       0.0       0.2       0.0       0.1
 0 C  pz              2.5       0.0       4.6       0.0       1.5       0.0
 0 C  px              0.0       1.5       0.0       1.0       0.0       1.4
 0 C  py              0.0       1.8       0.0       1.8       0.0       1.5
 0 C  dz2             0.0      10.2       0.0      24.2       0.0      21.8
 0 C  dxz            36.8       0.0      43.1       0.0       6.9       0.0
 0 C  dyz             4.4       0.0       0.7       0.0      36.5       0.0
 0 C  dx2y2           0.0       0.5       0.0       2.9       0.0       0.0
 0 C  dxy             0.0      30.5       0.0       6.4       0.0       7.8
 1 C  s               0.0       1.8       0.0       0.3       0.0       0.1
 1 C  pz              1.3       0.0       4.8       0.0       1.7       0.0
 1 C  px              0.0       2.1       0.0       1.7       0.0       0.9
 1 C  py              0.0       1.6       0.0       2.3       0.0       0.7
 1 C  dz2             0.0       6.2       0.0      37.5       0.0      24.2
 1 C  dxz            39.3       0.0      39.7       0.0       7.7       0.0
 1 C  dyz             4.6       0.0       0.8       0.0      31.0       0.0
 1 C  dx2y2           0.0       1.2       0.0       1.0       0.0      24.6
 1 C  dxy             0.0      35.2       0.0      10.9       0.0       1.4
 2 Br s               0.0       0.3       0.0       0.7       0.0       1.3
 2 Br pz              0.4       0.0       0.0       0.0       0.0       0.0
 2 Br px              0.0       0.2       0.0       0.8       0.0       1.1
 2 Br py              0.0       0.0       0.0       0.0       0.0       0.1
 2 Br dz2             0.0       0.1       0.0       0.3       0.0       1.1
 2 Br dxz             2.0       0.0       0.1       0.0       0.0       0.0
 2 Br dyz             0.3       0.0       0.0       0.0       0.0       0.0
 2 Br dx2y2           0.0       0.5       0.0       1.6       0.0       1.4
 2 Br dxy             0.0       0.2       0.0       0.0       0.0       0.6
 3 Cl s               0.0       0.3       0.0       0.7       0.0       1.6
 3 Cl pz              1.6       0.0       0.0       0.0       0.0       0.0
 3 Cl px              0.0       0.2       0.0       0.6       0.0       1.0
 3 Cl dz2             0.0       0.1       0.0       0.3       0.0       0.6
 3 Cl dxz             3.5       0.0       0.3       0.0       0.1       0.0
 3 Cl dyz             0.6       0.0       0.0       0.0       0.0       0.0
 3 Cl dx2y2           0.0       0.7       0.0       1.5       0.0       1.8
 3 Cl dxy             0.0       0.1       0.0       0.0       0.0       0.0
 4 H  s               0.8       0.8       1.5       0.5       3.8       0.8
 5 H  s               0.8       0.8       1.5       0.5       3.8       0.8
 6 H  s               0.6       0.5       1.5       1.1       3.5       1.6
 7 H  s               0.6       0.5       1.5       1.1       3.5       1.6

                     78        79        80        81        82        83   
                   2.15369   2.16070   2.43308   3.31817   3.33382   3.41239
                   0.00000   0.00000   0.00000   0.00000   0.00000   0.00000
                  --------  --------  --------  --------  --------  --------
 0 C  s               0.4       0.0       1.9       0.0       0.2       0.0
 0 C  pz              0.0       0.5       0.0       0.0       0.0       0.0
 0 C  px              0.4       0.0       2.5       0.0       0.1       0.2
 0 C  py              0.1       0.0       2.8       0.0       0.0       0.0
 0 C  dz2            11.6       0.0       8.6       0.0       0.0       0.0
 0 C  dxz             0.0       3.1       0.0       0.0       0.0       0.0
 0 C  dyz             0.0      38.7       0.0       0.0       0.0       0.0
 0 C  dx2y2          50.5       0.0       2.2       0.0       0.0       0.1
 0 C  dxy             0.1       0.0      30.7       0.0       0.0       0.0
 1 C  s               0.0       0.0       2.1       0.0       0.1       0.0
 1 C  pz              0.0       0.7       0.0       0.0       0.0       0.0
 1 C  px              0.1       0.0       2.3       0.0       0.0       0.1
 1 C  py              0.3       0.0       3.0       0.0       0.1       0.2
 1 C  dz2             0.2       0.0      10.0       0.0       0.0       0.0
 1 C  dxz             0.0       2.6       0.0       0.0       0.0       0.0
 1 C  dyz             0.0      43.9       0.0       0.1       0.0       0.0
 1 C  dx2y2          26.1       0.0       1.5       0.0       0.0       0.4
 1 C  dxy             0.7       0.0      29.1       0.0       0.0       0.3
 2 Br s               0.0       0.0       0.3       0.0       0.0       0.0
 2 Br px              0.0       0.0       0.2       0.0       0.0       0.0
 2 Br py              0.1       0.0       0.0       0.0       0.0       0.1
 2 Br dz2             0.0       0.0       0.2       0.0      75.6       0.3
 2 Br dxz             0.0       0.1       0.0      10.9       0.0       0.0
 2 Br dyz             0.0       0.3       0.0      88.9       0.0       0.0
 2 Br dx2y2           0.1       0.0       0.3       0.0      18.7      29.6
 2 Br dxy             1.0       0.0       0.0       0.0       5.1      68.3
 3 Cl s               1.3       0.0       0.4       0.0       0.0       0.1
 3 Cl px              1.0       0.0       0.3       0.0       0.0       0.0
 3 Cl py              0.3       0.0       0.0       0.0       0.0       0.0
 3 Cl dz2             0.9       0.0       0.1       0.0       0.0       0.0
 3 Cl dyz             0.0       0.1       0.0       0.0       0.0       0.0
 3 Cl dx2y2           0.6       0.0       0.3       0.0       0.0       0.0
 3 Cl dxy             2.3       0.0       0.0       0.0       0.0       0.0
 4 H  s               1.0       2.3       0.3       0.0       0.0       0.0
 5 H  s               1.0       2.3       0.3       0.0       0.0       0.0
 6 H  s               0.0       2.7       0.3       0.0       0.0       0.0
 7 H  s               0.0       2.7       0.3       0.0       0.0       0.0

                     84        85   
                   3.41444   3.64437
                   0.00000   0.00000
                  --------  --------
 0 C  pz              0.1       0.0
 1 C  s               0.0       1.4
 1 C  pz              0.9       0.0
 1 C  px              0.0       0.6
 1 C  dz2             0.0       0.2
 1 C  dxz             0.4       0.0
 1 C  dx2y2           0.0       0.3
 1 C  dxy             0.0       0.3
 2 Br s               0.0       1.9
 2 Br pz              0.1       0.0
 2 Br px              0.0       1.3
 2 Br py              0.0       0.1
 2 Br dz2             0.0      22.2
 2 Br dxz            87.6       0.0
 2 Br dyz            10.6       0.0
 2 Br dx2y2           0.0      47.7
 2 Br dxy             0.0      23.9


                      *****************************
                      * MAYER POPULATION ANALYSIS *
                      *****************************

  NA   - Mulliken gross atomic population
  ZA   - Total nuclear charge
  QA   - Mulliken gross atomic charge
  VA   - Mayer's total valence
  BVA  - Mayer's bonded valence
  FA   - Mayer's free valence

  ATOM       NA         ZA         QA         VA         BVA        FA
  0 C      6.1581     6.0000    -0.1581     3.9513     3.9513    -0.0000
  1 C      6.2211     6.0000    -0.2211     3.9523     3.9523    -0.0000
  2 Br    35.1045    35.0000    -0.1045     1.1122     1.1122     0.0000
  3 Cl    17.1335    17.0000    -0.1335     1.1194     1.1194    -0.0000
  4 H      0.8472     1.0000     0.1528     0.9458     0.9458    -0.0000
  5 H      0.8471     1.0000     0.1529     0.9457     0.9457    -0.0000
  6 H      0.8443     1.0000     0.1557     0.9424     0.9424    -0.0000
  7 H      0.8443     1.0000     0.1557     0.9424     0.9424    -0.0000

  Mayer bond orders larger than 0.100000
B(  0-C ,  1-C ) :   1.0802 B(  0-C ,  3-Cl) :   1.0249 B(  0-C ,  4-H ) :   0.9248 
B(  0-C ,  5-H ) :   0.9248 B(  1-C ,  2-Br) :   1.0315 B(  1-C ,  6-H ) :   0.9212 
B(  1-C ,  7-H ) :   0.9212 

-------
TIMINGS
-------

Total SCF time: 0 days 0 hours 0 min 3 sec 

Total time                  ....       3.849 sec
Sum of individual times     ....       3.824 sec  ( 99.4%)

SCF preparation             ....       1.205 sec  ( 31.3%)
Fock matrix formation       ....       0.821 sec  ( 21.3%)
  Startup                   ....       0.006 sec  (  0.7% of F)
  Split-RI-J                ....       0.276 sec  ( 33.6% of F)
  XC integration            ....       0.478 sec  ( 58.2% of F)
    Basis function eval.    ....       0.188 sec  ( 39.4% of XC)
    Density eval.           ....       0.078 sec  ( 16.3% of XC)
    XC-Functional eval.     ....       0.055 sec  ( 11.6% of XC)
    XC-Potential eval.      ....       0.086 sec  ( 18.0% of XC)
Diagonalization             ....       0.000 sec  (  0.0%)
Density matrix formation    ....       0.021 sec  (  0.6%)
Total Energy calculation    ....       0.001 sec  (  0.0%)
Population analysis         ....       1.719 sec  ( 44.7%)
Orbital Transformation      ....       0.009 sec  (  0.2%)
Orbital Orthonormalization  ....       0.000 sec  (  0.0%)
DIIS solution               ....       0.035 sec  (  0.9%)
  MO trafo                  ....       0.000 sec  (  0.0 % of DIIS)
  Orb grad                  ....       0.000 sec  (  0.0 % of DIIS)
  Energy W gradient         ....       0.000 sec  (  0.0 % of DIIS)
  DIIS error                ....       0.001 sec  (  1.7 % of DIIS)
  DIIS work                 ....       0.029 sec  ( 83.0 % of DIIS)
  Form Q                    ....       0.000 sec  (  0.0 % of DIIS)
  Form QpQm                 ....       0.000 sec  (  0.0 % of DIIS)
  Exp/Cayley                ....       0.000 sec  (  0.0 % of DIIS)
  Orb update                ....       0.000 sec  (  0.0 % of DIIS)
  Wake-sleep                ....       0.001 sec  (  1.8 % of DIIS)
SOSCF solution              ....       0.012 sec  (  0.3%)
  MO trafo                  ....       0.007 sec  ( 60.9 % of SOSCF)
  Orb grad                  ....       0.000 sec  (  1.0 % of SOSCF)
  Rot update                ....       0.001 sec  ( 12.1 % of SOSCF)
  Step                      ....       0.003 sec  ( 25.6 % of SOSCF)
Finished LeanSCF after   6.2 sec

Maximum memory used throughout the entire LEANSCF-calculation: 8.1 MB


-------------------------------------------------------------------------------
                          DFT DISPERSION CORRECTION                            
                                                                               
                                DFTD4 V3.4.0                                   
-------------------------------------------------------------------------------
The PBE functional is recognized
Active option DFTDOPT                   ...         5   

-------------------------   ----------------
Dispersion correction           -0.006283895
-------------------------   ----------------

------------------   -----------------
gCP correction             0.037792606
------------------   -----------------

-------------------------   --------------------
FINAL SINGLE POINT ENERGY     -3111.735674885729
-------------------------   --------------------


------------------------------------------------------------------------------
                              ORCA PROPERTY CALCULATIONS
------------------------------------------------------------------------------

GBWName                                 ... sp.gbw
Number of atoms                         ...      8
Number of basis functions               ...     86
Max core memory                         ...   1024 MB

Electric properties:
Dipole moment                           ... YES
Quadrupole moment                       ...  NO
Static polarizability (Dipole/Dipole)   ...  NO
Static polarizability (Dipole/Quad.)    ...  NO
Static polarizability (Quad./Quad.)     ...  NO
Static polarizability (Velocity)        ...  NO

Atomic electric properties:
Dipole moment                           ...  NO
Quadrupole moment                       ...  NO
Static polarizability                   ...  NO

Choice of electric origin               ... Center of mass
Position of electric origin             ...     0.000086    -0.000002     0.000000

General magnetic properties:
Magnetizability                         ...  NO

EPR properties:
g-Tensor (aka g-matrix)                 ...  NO
Zero-Field splitting spin-orbit         ...  NO
Zero-field splitting spin-spin          ...  NO
Hyperfine couplings                     ...  NO (   0 nuclei)
Quadrupole couplings                    ...  NO (   0 nuclei)
Contact density                         ...  NO (   0 nuclei)

NMR properties:
Chemical shifts                         ...  NO (   0 nuclei)
Spin-rotation constants                 ...  NO (   0 nuclei)
Spin-spin couplings                     ...  NO (   0 nuclei,    0 pairs)

Choice of magnetic origin               ... GIAO
Position of magnetic origin             ...     0.000000     0.000000     0.000000

Properties with geometric perturbations:
SCF Hessian                             ...  NO
IR spectrum                             ...  NO
VCD spectrum                            ...  NO
X-ray spectroscopy properties:
SCF XES/XAS/RIXS spectra                ...  NO


-------------
DIPOLE MOMENT
-------------

Method             : SCF
Type of density    : Electron Density
Multiplicity       :   1
Irrep              :   0
Energy             : -3111.7671835968394589 Eh
Relativity type    : 
Basis              : AO
                                X                 Y                 Z
Electronic contribution:    -13.358358893       0.303849621      -0.000481670
Nuclear contribution   :     13.366900472      -0.294853733       0.000533894
                        -----------------------------------------
Total Dipole Moment    :      0.008541579       0.008995888       0.000052224
                        -----------------------------------------
Magnitude (a.u.)       :      0.012405132
Magnitude (Debye)      :      0.031531339



--------------------
Rotational spectrum 
--------------------
 
Rotational constants in cm-1:             0.960594             0.032518             0.031834 
Rotational constants in MHz :         28797.887958           974.851151           954.362330 

Dipole components along the rotational axes: 
x,y,z [a.u.] :    -0.008542     0.008996     0.000052 
x,y,z [Debye]:    -0.021711     0.022866     0.000133 

 

Dipole moment calculation done in   1.2 sec 

Maximum memory used throughout the entire PROP-calculation: 5.7 MB

--------------------------------
SUGGESTED CITATIONS FOR THIS RUN
--------------------------------

Below you find a list of papers that are relevant to this ORCA run
We neither can nor want to force you to cite these papers, but we appreciate if you do
You receive ORCA, which is the product of decades of hard work by many enthusiastic individuals, for free
The only thing we kindly ask in return is that you cite our papers,
We deeply appreciate it, if you show your appreciation for ORCA by not just citing the generic ORCA reference.

Please note that relegating all ORCA citations to the supporting information does *not* help us.
SI sections are not indexed - citations you put there will not count into any citation statistics
But we need these citations in order to attract the funding resources that allow us to do what we are doing

Therefore, if you are a happy ORCA user, please consider citing a few of the papers listed below in the main body of your paper

In addition to the list printed below, the program has created the file sp.bibtex that contains the list in bibtex format
You can import this file easily into all common literature databanks and citation aid programs


List of essential papers. We consider these as the minimum necessary citations

  1. Neese,F.
     Software update: the ORCA program system, version 5.0
     WIRES Comput. Molec. Sci., 2022 12(1)e1606
     doi.org/10.1002/wcms.1606

List of papers to cite with high priority. The work reported in these papers was absolutely
necessary for this run to complete.
Our perspective: the developers of density functionals and basis sets usually get cited in chemistry papers
Good! But without the algorithms to do something with them, the functionals or basis sets would not do anything.
Hence, in our opinion, the algorithm design and method developments papers are equally worthy of getting cited

  1. Neese,F.
     An improvement of the resolution of the identity approximation for the formation of the Coulomb matrix
     J. Comp. Chem., 2003 24(14)1740-1747
     doi.org/10.1002/jcc.10318
  2. Neese,F.
     The SHARK Integral Generation and Digestion System
     J. Comp. Chem., 2022  1-16
     doi.org/10.1002/jcc.26942
  3. Caldeweyher,E.; Bannwarth,C.; Grimme,S.
     Extension of the D3 dispersion coefficient model
     J. Chem. Phys., 2017 147 034112
     doi.org/10.1063/1.4993215
  4. Caldeweyher,E.; Ehlert,S.; Hansen,A.; Neugebauer,H.; Spicher,S.; Bannwarth,C.; Grimme,S.
     A generally applicable atomic-charge dependent London dispersion correction
     J. Chem. Phys., 2019 150 154122
     doi.org/10.1063/1.5090222
  5. Caldeweyher,E.; Mewes,J.; Ehlert,S.; Grimme,S.
     Extension and evaluation of the D4 London-dispersion model for periodic systems
     Phys. Chem. Chem. Phys., 2020 22(16)8499-8512
     doi.org/10.1039/D0CP00502A
  6. Wittmann,L.; Gordiy,I.; Friede,M.; Helmich-Paris,B.; Grimme,S.; Hansen,A.; Bursch,M.
     Extension of the D3 and D4 London Dispersion Corrections to the full Actinides Series
     Phys. Chem. Chem. Phys., 2024 26(32)21379-21394
     doi.org/https://doi.org/10.1039/D4CP01514B 

List of suggested additional citations. These are papers that are important in the 'surrounding' of 
of this run, or papers that preceded the highly important papers. If you like your results we are grateful for a citation.

  1. Neese,F.
     The ORCA program system
     WIRES Comput. Molec. Sci., 2012 2(1)73-78
     doi.org/10.1002/wcms.81
  2. Neese,F.
     Software update: the ORCA program system, version 4.0
     WIRES Comput. Molec. Sci., 2018 8(1)1-6
     doi.org/10.1002/wcms.1327
  3. Neese,F.; Wennmohs,F.; Becker,U.; Riplinger,C.
     The ORCA quantum chemistry program package
     J. Chem. Phys., 2020 152 Art. No. L224108
     doi.org/10.1063/5.0004608

List of optional additional citations

  1. Neese,F.
     Approximate second-order SCF convergence for spin unrestricted wavefunctions
     Chem. Phys. Lett., 2000 325(1-3)93-98
     doi.org/10.1016/s0009-2614(00)00662-x

Timings for individual modules:

Sum of individual times          ...        7.999 sec (=   0.133 min)
Startup calculation              ...        0.223 sec (=   0.004 min)   2.8 %
SCF iterations                   ...        6.486 sec (=   0.108 min)  81.1 %
Property calculations            ...        1.290 sec (=   0.022 min)  16.1 %
                             ****ORCA TERMINATED NORMALLY****
TOTAL RUN TIME: 0 days 0 hours 0 minutes 11 seconds 196 msec
