 Entering Gaussian System
 *********************************************
 Gaussian 98:
 frequency output generated by the xtb code
 *********************************************
                         Standard orientation:
 --------------------------------------------------------------------
  Center     Atomic     Atomic              Coordinates (Angstroms)
  Number     Number      Type              X           Y           Z
 --------------------------------------------------------------------
    1          6             0        3.340013    0.001555    0.218951
    2          7             0        1.926594    0.274597    0.332177
    3          6             0        1.568413    1.285245    1.292942
    4          6             0        1.057562   -0.370153   -0.482683
    5          8             0        1.425430   -1.149612   -1.343369
    6          6             0       -0.398397   -0.093458   -0.265107
    7          6             0       -1.036372   -0.511113    0.898025
    8          6             0       -2.399118   -0.324375    1.046959
    9          6             0       -3.131901    0.281448    0.039738
   10          6             0       -2.502075    0.688335   -1.124488
   11          6             0       -1.141246    0.493402   -1.281978
   12          1             0        3.881468    0.899577   -0.088600
   13          1             0        3.474002   -0.775738   -0.530764
   14          1             0        3.735870   -0.340952    1.177709
   15          1             0        1.752063    0.930866    2.312087
   16          1             0        0.519390    1.552773    1.194770
   17          1             0        2.176653    2.178758    1.127060
   18          1             0       -0.465125   -0.991078    1.679712
   19          1             0       -2.890679   -0.653376    1.950820
   20          1             0       -4.195042    0.429304    0.159756
   21          1             0       -3.073409    1.152585   -1.914731
   22          1             0       -0.644970    0.793868   -2.192718
 --------------------------------------------------------------------
     1 basis functions        1 primitive gaussians
     1 alpha electrons        1 beta electrons
 
 Harmonic frequencies (cm**-1), IR intensities (km*mol⁻¹),
 Raman scattering activities (A**4/amu), Raman depolarization ratios,
 reduced masses (AMU), force constants (mDyne/A) and normal coordinates:
                      1                      2                      3
                        a                      a                      a 
 Frequencies --    31.6156                79.8343                91.4770
 Red. masses --    10.9439                 8.8503                 9.8252
 Frc consts  --     0.0000                 0.0000                 0.0000
 IR Inten    --     2.7640                 0.1224                 2.0746
 Raman Activ --     0.0000                 0.0000                 0.0000
 Depolar     --     0.0000                 0.0000                 0.0000
 Atom AN      X      Y      Z        X      Y      Z        X      Y      Z
   1   6     0.00   0.15  -0.07     0.06   0.38  -0.42     0.09  -0.19  -0.14
   2   7    -0.01   0.09  -0.10     0.03   0.02  -0.02     0.14  -0.02   0.06
   3   6    -0.07   0.19  -0.22     0.03  -0.28   0.29     0.40   0.11   0.01
   4   6     0.00  -0.13   0.07    -0.01  -0.10   0.11    -0.03   0.13   0.13
   5   8     0.00  -0.36   0.28    -0.03  -0.08   0.10    -0.25   0.07   0.12
   6   6     0.00  -0.07   0.03    -0.02  -0.12   0.12    -0.01   0.23   0.16
   7   6    -0.08  -0.32  -0.11    -0.14   0.00   0.09    -0.09   0.11   0.07
   8   6    -0.07  -0.26  -0.12    -0.14   0.14  -0.03    -0.15  -0.16  -0.12
   9   6     0.02   0.06   0.00    -0.01   0.13  -0.12    -0.13  -0.31  -0.22
  10   6     0.11   0.33   0.14     0.11  -0.01  -0.10    -0.04  -0.10  -0.10
  11   6     0.10   0.26   0.15     0.10  -0.13   0.02     0.02   0.17   0.09
  12   1    -0.02   0.04  -0.06    -0.07   0.17  -0.10     0.04  -0.08  -0.07
  13   1     0.01   0.02   0.01     0.02   0.17  -0.19    -0.03  -0.07  -0.04
  14   1     0.01   0.09  -0.01     0.11   0.07  -0.18     0.05  -0.06  -0.05
  15   1     0.03   0.11  -0.05     0.10  -0.14   0.05     0.27   0.10  -0.00
  16   1    -0.04  -0.00  -0.04    -0.01  -0.14   0.17     0.09  -0.03   0.13
  17   1    -0.07   0.08  -0.13    -0.06  -0.03   0.10     0.04   0.06  -0.12
  18   1    -0.04  -0.16  -0.06    -0.07   0.00   0.05    -0.03   0.05   0.04
  19   1    -0.04  -0.13  -0.07    -0.07   0.07  -0.01    -0.06  -0.09  -0.06
  20   1     0.01   0.03  -0.00    -0.00   0.07  -0.06    -0.06  -0.16  -0.11
  21   1     0.05   0.17   0.07     0.06  -0.01  -0.05    -0.00  -0.05  -0.05
  22   1     0.05   0.14   0.07     0.06  -0.07   0.01     0.02   0.08   0.05
                      4                      5                      6
                        a                      a                      a 
 Frequencies --   120.9134               154.5257               196.1678
 Red. masses --     5.5534                 1.8692                 9.2245
 Frc consts  --     0.0000                 0.0000                 0.0000
 IR Inten    --     0.7055                 0.1449                 0.8752
 Raman Activ --     0.0000                 0.0000                 0.0000
 Depolar     --     0.0000                 0.0000                 0.0000
 Atom AN      X      Y      Z        X      Y      Z        X      Y      Z
   1   6     0.04  -0.02  -0.05    -0.02  -0.05   0.10     0.03  -0.05  -0.03
   2   7     0.08   0.28  -0.28    -0.01   0.11  -0.10     0.04  -0.08   0.06
   3   6    -0.00  -0.09   0.09     0.00   0.03  -0.01    -0.00   0.20  -0.24
   4   6     0.00   0.04   0.01     0.00   0.01  -0.02    -0.00  -0.04   0.07
   5   8    -0.11  -0.22   0.20     0.02  -0.10   0.08    -0.05   0.33  -0.27
   6   6     0.02   0.13   0.03    -0.00   0.01  -0.06    -0.00  -0.21   0.27
   7   6     0.03   0.09   0.01     0.03   0.01  -0.04    -0.17  -0.15   0.20
   8   6     0.01  -0.06  -0.02     0.04   0.02   0.02    -0.19  -0.02  -0.01
   9   6    -0.03  -0.14  -0.04     0.01   0.02   0.04     0.00   0.08  -0.08
  10   6    -0.03  -0.03  -0.01    -0.04  -0.02   0.01     0.18   0.01  -0.01
  11   6    -0.00   0.11   0.03    -0.04  -0.01  -0.05     0.16  -0.17   0.17
  12   1     0.08  -0.01   0.12     0.08   0.10   0.53     0.02   0.03   0.15
  13   1     0.00   0.07  -0.10     0.03   0.33  -0.32     0.01   0.11  -0.14
  14   1    -0.06  -0.15  -0.03    -0.14  -0.50  -0.09    -0.00  -0.18  -0.06
  15   1    -0.39  -0.25   0.02     0.22   0.06  -0.02    -0.20   0.09  -0.02
  16   1     0.09   0.26  -0.23    -0.05  -0.15   0.16     0.05   0.18  -0.24
  17   1     0.27  -0.16   0.36    -0.16   0.10  -0.12     0.14  -0.03  -0.03
  18   1     0.01   0.04   0.01     0.02   0.00  -0.02    -0.09  -0.05   0.08
  19   1     0.00  -0.03  -0.01     0.02   0.01   0.01    -0.10   0.01  -0.02
  20   1    -0.01  -0.08  -0.03     0.00   0.01   0.02     0.00   0.06  -0.06
  21   1    -0.01  -0.02  -0.00    -0.02  -0.01   0.01     0.10   0.02  -0.02
  22   1    -0.00   0.05   0.01    -0.02  -0.00  -0.02     0.09  -0.07   0.07
                      7                      8                      9
                        a                      a                      a 
 Frequencies --   238.3822               269.8946               327.6088
 Red. masses --     9.9765                 9.9705                10.4196
 Frc consts  --     0.0000                 0.0000                 0.0000
 IR Inten    --     5.6739                 3.2646                 0.2474
 Raman Activ --     0.0000                 0.0000                 0.0000
 Depolar     --     0.0000                 0.0000                 0.0000
 Atom AN      X      Y      Z        X      Y      Z        X      Y      Z
   1   6    -0.00  -0.17   0.12    -0.01   0.03   0.17    -0.35  -0.21  -0.26
   2   7     0.08   0.49  -0.40    -0.02   0.10  -0.29    -0.24   0.15   0.11
   3   6     0.18   0.02   0.12    -0.31  -0.18  -0.10    -0.16   0.14   0.14
   4   6     0.01   0.09  -0.01    -0.02  -0.09  -0.09    -0.14   0.11   0.09
   5   8     0.06   0.12  -0.01    -0.24  -0.06  -0.24    -0.20   0.09   0.13
   6   6    -0.05  -0.16   0.06     0.07   0.01   0.18     0.01   0.03   0.02
   7   6    -0.14  -0.22  -0.00     0.07   0.18   0.24     0.20  -0.09   0.04
   8   6    -0.13  -0.02  -0.02     0.04   0.09   0.08     0.22  -0.11   0.01
   9   6    -0.03   0.19   0.04     0.09  -0.20  -0.14     0.33   0.01  -0.01
  10   6     0.01  -0.03  -0.01     0.19  -0.00  -0.01     0.22  -0.01  -0.08
  11   6    -0.02  -0.23   0.00     0.22   0.17   0.19     0.18  -0.06  -0.12
  12   1     0.13  -0.16  -0.05     0.03  -0.02   0.03    -0.04  -0.11  -0.13
  13   1    -0.03  -0.18   0.16     0.05  -0.05   0.12    -0.25  -0.07  -0.09
  14   1    -0.12   0.05   0.12    -0.08   0.08   0.11    -0.04  -0.11  -0.12
  15   1     0.18  -0.09  -0.02     0.04  -0.05  -0.05    -0.02   0.04   0.04
  16   1     0.02  -0.06   0.17    -0.13  -0.20   0.06    -0.05   0.04   0.06
  17   1    -0.02   0.06   0.07    -0.23   0.04  -0.05    -0.05   0.04   0.03
  18   1    -0.07  -0.09   0.00     0.01   0.08   0.09     0.09  -0.03  -0.01
  19   1    -0.05   0.00  -0.01    -0.01   0.05   0.02     0.04  -0.04  -0.02
  20   1     0.00   0.13   0.03     0.01  -0.14  -0.10     0.10   0.03   0.01
  21   1     0.02   0.00  -0.01     0.07  -0.01  -0.02     0.04  -0.01  -0.01
  22   1     0.00  -0.10  -0.00     0.10   0.07   0.08     0.08  -0.05  -0.03
                     10                     11                     12
                        a                      a                      a 
 Frequencies --   349.2470               364.8069               406.1504
 Red. masses --    12.1338                 8.9103                 8.9290
 Frc consts  --     0.0000                 0.0000                 0.0000
 IR Inten    --    14.4431                 0.6550                 1.6298
 Raman Activ --     0.0000                 0.0000                 0.0000
 Depolar     --     0.0000                 0.0000                 0.0000
 Atom AN      X      Y      Z        X      Y      Z        X      Y      Z
   1   6    -0.18  -0.22  -0.23    -0.03   0.02   0.01    -0.26   0.22   0.18
   2   7    -0.11   0.09  -0.03    -0.04   0.01  -0.03    -0.31  -0.02  -0.04
   3   6    -0.06   0.04   0.02     0.03  -0.01   0.01     0.43   0.10   0.11
   4   6     0.04  -0.10  -0.03    -0.01  -0.05  -0.02    -0.16  -0.16  -0.10
   5   8     0.65   0.06   0.05     0.08  -0.02  -0.02    -0.07  -0.09  -0.16
   6   6    -0.02  -0.21  -0.05    -0.01  -0.05  -0.02    -0.09  -0.21  -0.08
   7   6    -0.06   0.12   0.07     0.07   0.42   0.19     0.05  -0.05   0.03
   8   6    -0.07   0.18   0.08    -0.07  -0.33  -0.15     0.08   0.09   0.07
   9   6    -0.15  -0.20  -0.09    -0.02  -0.06  -0.02     0.09  -0.14  -0.08
  10   6    -0.04   0.06   0.07     0.07   0.40   0.19     0.07   0.05  -0.03
  11   6     0.00   0.18   0.16    -0.07  -0.34  -0.14     0.06   0.09  -0.00
  12   1    -0.00  -0.11  -0.09    -0.01   0.01   0.01    -0.11   0.11   0.10
  13   1    -0.15  -0.07  -0.08     0.00   0.00   0.01     0.04   0.08   0.06
  14   1    -0.03  -0.10  -0.09    -0.02   0.01   0.01    -0.12   0.09   0.08
  15   1    -0.00   0.00   0.00     0.03  -0.01  -0.00     0.16  -0.03   0.00
  16   1    -0.02   0.01   0.02     0.01   0.01   0.03     0.16   0.23   0.14
  17   1    -0.02   0.01   0.01     0.01  -0.01  -0.01     0.28  -0.08  -0.00
  18   1    -0.03   0.07   0.05     0.04   0.26   0.12     0.03  -0.00   0.00
  19   1    -0.01   0.11   0.05    -0.04  -0.22  -0.10     0.02   0.08   0.04
  20   1    -0.06  -0.13  -0.07    -0.01  -0.04  -0.02     0.02  -0.08  -0.04
  21   1     0.01   0.04   0.02     0.05   0.26   0.12     0.01   0.04   0.01
  22   1     0.01   0.13   0.07    -0.04  -0.22  -0.09     0.04   0.06   0.03
                     13                     14                     15
                        a                      a                      a 
 Frequencies --   542.2407               585.4014               614.8993
 Red. masses --    10.4478                11.1982                11.8474
 Frc consts  --     0.0000                 0.0000                 0.0000
 IR Inten    --     3.5724                 0.4861                10.7596
 Raman Activ --     0.0000                 0.0000                 0.0000
 Depolar     --     0.0000                 0.0000                 0.0000
 Atom AN      X      Y      Z        X      Y      Z        X      Y      Z
   1   6     0.24  -0.04  -0.00     0.01  -0.01  -0.00     0.08   0.01   0.01
   2   7     0.20   0.09   0.09     0.01  -0.02   0.04     0.02  -0.12  -0.16
   3   6    -0.05   0.08   0.07    -0.01   0.01   0.02     0.06  -0.25  -0.25
   4   6     0.00   0.05   0.18     0.02   0.10  -0.09    -0.26   0.09   0.11
   5   8    -0.30   0.10   0.05    -0.02  -0.05   0.03     0.22   0.24   0.28
   6   6    -0.12  -0.36  -0.24     0.02  -0.11   0.16    -0.35   0.04   0.04
   7   6    -0.01  -0.13  -0.13     0.32  -0.19   0.24    -0.02  -0.09   0.22
   8   6     0.08   0.23   0.13     0.31   0.12  -0.33     0.00  -0.10   0.20
   9   6    -0.02  -0.32  -0.12    -0.03   0.06  -0.19     0.33  -0.04  -0.04
  10   6     0.03   0.25   0.09    -0.33   0.20  -0.24    -0.06   0.11  -0.23
  11   6    -0.05  -0.10  -0.17    -0.29  -0.11   0.33    -0.08   0.11  -0.19
  12   1     0.09  -0.03  -0.02     0.00  -0.00  -0.00    -0.02   0.04   0.05
  13   1     0.02  -0.02  -0.00    -0.00  -0.00  -0.00     0.13   0.01   0.02
  14   1     0.08  -0.02  -0.01     0.01  -0.00  -0.01    -0.03   0.04   0.04
  15   1    -0.05   0.04   0.03    -0.00   0.00   0.01     0.00  -0.06  -0.06
  16   1    -0.03  -0.04  -0.04    -0.00  -0.00   0.00     0.01  -0.08  -0.09
  17   1    -0.06   0.06   0.04    -0.01   0.01   0.01     0.00  -0.06  -0.06
  18   1     0.04   0.07  -0.00     0.03  -0.05   0.11     0.06  -0.01   0.02
  19   1     0.06   0.22   0.11     0.03   0.07  -0.11    -0.08   0.01   0.02
  20   1    -0.01  -0.10  -0.03    -0.00  -0.05   0.08     0.09  -0.01  -0.00
  21   1     0.01   0.23   0.11    -0.03   0.08  -0.10    -0.09   0.03  -0.01
  22   1    -0.00   0.09  -0.00    -0.03  -0.04   0.12     0.05   0.00  -0.02
                     16                     17                     18
                        a                      a                      a 
 Frequencies --   662.5113               684.0581               730.6455
 Red. masses --    11.1947                 9.4282                 9.6062
 Frc consts  --     0.0000                 0.0000                 0.0000
 IR Inten    --     6.8102                24.5666                 5.7351
 Raman Activ --     0.0000                 0.0000                 0.0000
 Depolar     --     0.0000                 0.0000                 0.0000
 Atom AN      X      Y      Z        X      Y      Z        X      Y      Z
   1   6     0.10  -0.02  -0.00    -0.05   0.01  -0.00    -0.21   0.04   0.01
   2   7     0.07   0.13  -0.02    -0.01   0.08  -0.10    -0.06  -0.05  -0.12
   3   6    -0.02   0.09   0.08    -0.00  -0.01  -0.03     0.07  -0.26  -0.26
   4   6    -0.02  -0.44   0.38    -0.04  -0.47   0.41    -0.10   0.03   0.26
   5   8    -0.07   0.10  -0.14     0.05   0.15  -0.10    -0.04   0.26   0.23
   6   6    -0.09  -0.27  -0.16     0.08   0.32   0.11     0.17   0.02  -0.01
   7   6     0.10   0.23   0.07     0.04  -0.10  -0.13     0.10   0.01  -0.20
   8   6     0.04  -0.24  -0.15     0.13   0.22   0.02     0.12   0.02  -0.27
   9   6     0.08   0.21   0.10    -0.05  -0.10  -0.04    -0.24  -0.03   0.00
  10   6    -0.16  -0.19  -0.18    -0.04   0.23   0.07     0.08  -0.17   0.16
  11   6    -0.04   0.27   0.03    -0.07  -0.09  -0.06     0.08  -0.13   0.09
  12   1     0.05  -0.02  -0.01    -0.01  -0.00  -0.00    -0.09   0.04   0.03
  13   1    -0.00  -0.01  -0.00    -0.01   0.00   0.00     0.01   0.01   0.01
  14   1     0.03  -0.01  -0.01    -0.02   0.01   0.01    -0.10   0.04   0.03
  15   1    -0.01   0.04   0.03     0.01   0.00  -0.01     0.03  -0.07  -0.07
  16   1    -0.01   0.01   0.00     0.00   0.01   0.00     0.02  -0.05  -0.06
  17   1    -0.02   0.03   0.02     0.01  -0.01  -0.02     0.03  -0.08  -0.08
  18   1     0.06   0.14   0.04    -0.02  -0.23  -0.13     0.02   0.16   0.05
  19   1     0.02  -0.04  -0.03     0.02  -0.13  -0.07     0.15   0.17   0.05
  20   1     0.04   0.11   0.10    -0.05  -0.24  -0.06    -0.03   0.19   0.11
  21   1    -0.06  -0.02  -0.02    -0.05  -0.12  -0.06     0.13   0.15   0.09
  22   1     0.00   0.16   0.04    -0.07  -0.24  -0.11     0.01   0.16   0.09
                     19                     20                     21
                        a                      a                      a 
 Frequencies --   773.1092               879.1923               903.2372
 Red. masses --     7.4315                 3.3076                 3.7782
 Frc consts  --     0.0000                 0.0000                 0.0000
 IR Inten    --    14.3240                 0.3355                 0.8195
 Raman Activ --     0.0000                 0.0000                 0.0000
 Depolar     --     0.0000                 0.0000                 0.0000
 Atom AN      X      Y      Z        X      Y      Z        X      Y      Z
   1   6    -0.00   0.00   0.00     0.00  -0.00  -0.00     0.07  -0.02  -0.01
   2   7     0.01  -0.04  -0.00    -0.00  -0.00  -0.00    -0.02  -0.01  -0.01
   3   6     0.04  -0.10  -0.10    -0.00  -0.00   0.00    -0.01   0.03   0.02
   4   6    -0.09   0.23  -0.00     0.00   0.00  -0.00    -0.08   0.01  -0.02
   5   8    -0.10   0.12   0.20    -0.00   0.00   0.00     0.01   0.01   0.02
   6   6    -0.04  -0.43  -0.20    -0.01  -0.01  -0.00    -0.05  -0.06  -0.02
   7   6     0.08   0.18  -0.00    -0.03  -0.19  -0.10     0.06   0.21   0.11
   8   6     0.07   0.10  -0.10    -0.04  -0.20  -0.10     0.02  -0.01  -0.05
   9   6    -0.09   0.19   0.09    -0.01  -0.01   0.00    -0.10  -0.27  -0.12
  10   6     0.09  -0.01   0.14     0.04   0.19   0.09     0.01  -0.09   0.00
  11   6     0.10   0.12   0.12     0.05   0.23   0.10     0.07   0.22   0.08
  12   1    -0.01   0.02   0.02    -0.00   0.00   0.00     0.01   0.00   0.01
  13   1     0.03   0.00   0.01     0.00  -0.00   0.00     0.04  -0.00   0.00
  14   1    -0.02   0.02   0.02    -0.00  -0.00   0.00     0.01   0.00   0.00
  15   1    -0.00  -0.03  -0.02     0.00   0.00   0.00    -0.01   0.01   0.01
  16   1     0.01  -0.04  -0.04     0.00   0.00  -0.00    -0.00   0.01   0.01
  17   1     0.00  -0.02  -0.01     0.00  -0.00   0.00    -0.00   0.01   0.01
  18   1    -0.04  -0.18  -0.10     0.07   0.39   0.18    -0.07  -0.44  -0.21
  19   1     0.01  -0.28  -0.15     0.08   0.40   0.19     0.04   0.11   0.04
  20   1    -0.10  -0.34  -0.16     0.00   0.01   0.01     0.07   0.43   0.20
  21   1     0.01  -0.29  -0.12    -0.07  -0.37  -0.16     0.05   0.17   0.08
  22   1    -0.03  -0.18  -0.07    -0.07  -0.44  -0.19    -0.06  -0.43  -0.18
                     22                     23                     24
                        a                      a                      a 
 Frequencies --   927.0895               928.4047               933.0071
 Red. masses --    10.4085                 4.1964                 3.1460
 Frc consts  --     0.0000                 0.0000                 0.0000
 IR Inten    --    11.7488                 0.4167                 0.1383
 Raman Activ --     0.0000                 0.0000                 0.0000
 Depolar     --     0.0000                 0.0000                 0.0000
 Atom AN      X      Y      Z        X      Y      Z        X      Y      Z
   1   6     0.39  -0.13  -0.09    -0.02   0.01   0.00    -0.04   0.01   0.01
   2   7    -0.16  -0.10  -0.12     0.01   0.01   0.01     0.02   0.01   0.01
   3   6    -0.13   0.21   0.19     0.01  -0.01  -0.01     0.01  -0.02  -0.02
   4   6    -0.42  -0.08  -0.13     0.03   0.00   0.01     0.04   0.01   0.01
   5   8     0.11   0.02   0.03    -0.00  -0.00  -0.00    -0.02   0.00   0.00
   6   6    -0.20   0.12   0.06     0.00  -0.00   0.00     0.00  -0.09  -0.04
   7   6     0.10  -0.13   0.07    -0.05  -0.23  -0.11    -0.02  -0.03  -0.03
   8   6     0.12   0.10  -0.20     0.04   0.24   0.12     0.03   0.19   0.11
   9   6    -0.21   0.04   0.02     0.01   0.02   0.01    -0.03  -0.26  -0.12
  10   6     0.16  -0.11   0.19    -0.06  -0.25  -0.12     0.02   0.20   0.07
  11   6     0.10  -0.02  -0.12     0.04   0.23   0.10    -0.01  -0.02   0.00
  12   1     0.04   0.02   0.04    -0.00  -0.00  -0.00    -0.00  -0.00  -0.00
  13   1     0.27  -0.03   0.00    -0.02   0.00  -0.00    -0.03   0.00  -0.00
  14   1     0.03   0.03   0.03    -0.00  -0.00  -0.00    -0.00  -0.00  -0.00
  15   1    -0.00   0.04   0.04     0.00  -0.00  -0.00     0.00  -0.00  -0.00
  16   1    -0.03   0.11   0.11     0.00  -0.00  -0.01     0.00  -0.01  -0.01
  17   1    -0.01   0.03   0.03     0.00  -0.00  -0.00    -0.00  -0.00  -0.00
  18   1     0.05   0.10   0.08     0.06   0.37   0.18     0.03   0.18   0.08
  19   1     0.04  -0.05  -0.08    -0.07  -0.38  -0.17    -0.08  -0.42  -0.19
  20   1    -0.05   0.02  -0.00    -0.01  -0.04  -0.01     0.10   0.51   0.23
  21   1     0.07  -0.06   0.02     0.07   0.41   0.18    -0.08  -0.40  -0.18
  22   1     0.05   0.09   0.01    -0.06  -0.36  -0.15     0.02   0.13   0.06
                     25                     26                     27
                        a                      a                      a 
 Frequencies --   989.5782              1045.0087              1080.0614
 Red. masses --    10.4098                 3.8800                 7.7209
 Frc consts  --     0.0000                 0.0000                 0.0000
 IR Inten    --     1.4294                 2.6211                11.6536
 Raman Activ --     0.0000                 0.0000                 0.0000
 Depolar     --     0.0000                 0.0000                 0.0000
 Atom AN      X      Y      Z        X      Y      Z        X      Y      Z
   1   6    -0.17   0.10   0.09    -0.26  -0.14  -0.18     0.00  -0.07  -0.07
   2   7     0.13   0.07   0.09     0.10  -0.02  -0.02    -0.04  -0.03  -0.03
   3   6     0.10  -0.09  -0.07     0.27   0.13   0.19    -0.08   0.03   0.00
   4   6     0.16  -0.00   0.01    -0.00  -0.03  -0.02     0.09   0.03   0.04
   5   8    -0.01  -0.07  -0.08     0.01  -0.03  -0.03    -0.03   0.03   0.03
   6   6    -0.13   0.03   0.02     0.01   0.01   0.00     0.10  -0.03  -0.01
   7   6     0.18  -0.23   0.43    -0.00  -0.00   0.00     0.17  -0.05   0.03
   8   6     0.03   0.05  -0.12     0.00  -0.00  -0.00    -0.07  -0.14   0.34
   9   6    -0.34   0.05   0.04     0.00   0.00  -0.00    -0.44   0.06   0.06
  10   6     0.03  -0.05   0.12    -0.00  -0.00   0.00    -0.11   0.18  -0.33
  11   6     0.14   0.17  -0.47    -0.00  -0.00   0.00     0.17   0.00  -0.08
  12   1     0.02  -0.03  -0.04    -0.21   0.12   0.13    -0.05   0.03   0.04
  13   1    -0.21   0.02  -0.01     0.37  -0.02   0.03     0.14  -0.01   0.01
  14   1     0.03  -0.04  -0.03    -0.23   0.15   0.09    -0.06   0.04   0.03
  15   1    -0.02  -0.00  -0.00    -0.21   0.13   0.13     0.04  -0.03  -0.02
  16   1     0.01  -0.10  -0.10     0.00  -0.35  -0.34    -0.01   0.08   0.08
  17   1    -0.02   0.01   0.00    -0.21   0.24   0.15     0.04  -0.04  -0.02
  18   1     0.01  -0.08   0.14    -0.00   0.00   0.00     0.24   0.01  -0.11
  19   1    -0.07   0.04  -0.06     0.00   0.00   0.00     0.20  -0.13   0.19
  20   1    -0.10   0.01   0.01     0.00  -0.00   0.00    -0.13   0.01   0.02
  21   1    -0.07  -0.02   0.07     0.00   0.00  -0.00     0.16   0.07  -0.23
  22   1     0.00   0.07  -0.15    -0.00   0.00   0.00     0.27  -0.07   0.07
                     28                     29                     30
                        a                      a                      a 
 Frequencies --  1092.8843              1094.2473              1117.6479
 Red. masses --     5.0932                 3.7264                 4.1499
 Frc consts  --     0.0000                 0.0000                 0.0000
 IR Inten    --    76.8825                26.6908                 0.4720
 Raman Activ --     0.0000                 0.0000                 0.0000
 Depolar     --     0.0000                 0.0000                 0.0000
 Atom AN      X      Y      Z        X      Y      Z        X      Y      Z
   1   6     0.04   0.26   0.08     0.02   0.11  -0.29     0.01   0.06  -0.02
   2   7     0.05   0.07   0.05    -0.04  -0.04  -0.01     0.00  -0.05   0.05
   3   6     0.18  -0.17   0.11    -0.14  -0.16   0.17     0.03   0.05  -0.04
   4   6    -0.29  -0.07  -0.12     0.17   0.05   0.06    -0.03   0.02  -0.04
   5   8     0.07  -0.06  -0.05    -0.04   0.02   0.04     0.02  -0.02  -0.01
   6   6    -0.20   0.07   0.03     0.12  -0.04  -0.00    -0.04  -0.04   0.15
   7   6     0.00   0.05  -0.11    -0.01  -0.02   0.06    -0.23   0.10  -0.12
   8   6     0.04  -0.03   0.04    -0.02   0.02  -0.02     0.12   0.05  -0.16
   9   6    -0.07   0.02  -0.01     0.04  -0.01   0.01     0.02  -0.08   0.17
  10   6     0.07  -0.00  -0.03    -0.04   0.01   0.01    -0.11   0.07  -0.11
  11   6    -0.01  -0.06   0.13     0.01   0.04  -0.09     0.20   0.01  -0.13
  12   1     0.31  -0.15  -0.06     0.31  -0.09   0.12     0.09  -0.04   0.00
  13   1    -0.33  -0.02   0.04     0.16  -0.11   0.11    -0.04  -0.02   0.02
  14   1    -0.04  -0.12  -0.03    -0.46   0.03   0.13    -0.06  -0.02   0.01
  15   1    -0.13   0.27   0.17     0.01   0.30   0.15    -0.00  -0.08  -0.04
  16   1     0.04  -0.15  -0.27     0.02   0.18  -0.01    -0.01  -0.04   0.01
  17   1    -0.07   0.01  -0.14     0.12  -0.21  -0.33    -0.03   0.05   0.09
  18   1     0.16   0.04  -0.13    -0.09  -0.03   0.07    -0.35  -0.01   0.15
  19   1     0.14  -0.05   0.06    -0.08   0.03  -0.03     0.27  -0.07   0.05
  20   1    -0.02   0.02  -0.03     0.01  -0.01   0.03     0.02  -0.19   0.40
  21   1     0.17   0.02  -0.11    -0.11  -0.01   0.06    -0.24  -0.00   0.10
  22   1     0.12  -0.05   0.10    -0.07   0.03  -0.06     0.41  -0.11   0.12
                     31                     32                     33
                        a                      a                      a 
 Frequencies --  1127.0438              1182.0062              1192.4769
 Red. masses --     4.1660                 1.3367                 2.1823
 Frc consts  --     0.0000                 0.0000                 0.0000
 IR Inten    --     2.5186                 0.0356                 7.5754
 Raman Activ --     0.0000                 0.0000                 0.0000
 Depolar     --     0.0000                 0.0000                 0.0000
 Atom AN      X      Y      Z        X      Y      Z        X      Y      Z
   1   6     0.00   0.22  -0.18    -0.00  -0.00  -0.00     0.05   0.02   0.02
   2   7     0.01  -0.22   0.20     0.00  -0.00   0.00    -0.06  -0.01  -0.01
   3   6     0.05   0.21  -0.19    -0.00  -0.00  -0.00     0.03   0.00   0.01
   4   6    -0.03  -0.05   0.03     0.01  -0.00   0.01    -0.11  -0.01  -0.03
   5   8     0.01   0.01  -0.01     0.00  -0.00  -0.00    -0.00   0.02   0.02
   6   6    -0.02   0.02  -0.02    -0.00  -0.02   0.05     0.15  -0.02  -0.01
   7   6     0.05  -0.02   0.01     0.09  -0.01  -0.01    -0.06  -0.03   0.09
   8   6    -0.02  -0.01   0.03     0.02  -0.01   0.01     0.06  -0.06   0.10
   9   6    -0.00   0.02  -0.04    -0.00   0.04  -0.08     0.02  -0.00  -0.00
  10   6     0.03  -0.02   0.02    -0.03  -0.01   0.03     0.04   0.04  -0.12
  11   6    -0.05  -0.00   0.03    -0.08   0.01   0.02    -0.06   0.05  -0.07
  12   1     0.38  -0.14   0.07    -0.00   0.00   0.00     0.03  -0.01  -0.02
  13   1    -0.06  -0.10   0.11     0.00  -0.00   0.00    -0.03   0.00  -0.00
  14   1    -0.37  -0.05   0.08    -0.00   0.00   0.00     0.03  -0.02  -0.01
  15   1     0.03  -0.37  -0.19     0.00  -0.00  -0.00    -0.02   0.01   0.01
  16   1    -0.04  -0.09   0.13    -0.00   0.00   0.00     0.00  -0.03  -0.03
  17   1    -0.06   0.17   0.35     0.00  -0.00  -0.00    -0.02   0.02   0.01
  18   1     0.10   0.01  -0.05    -0.09  -0.02   0.07    -0.44  -0.06   0.30
  19   1    -0.04   0.01  -0.01     0.37  -0.14   0.15     0.38  -0.15   0.18
  20   1    -0.00   0.04  -0.09    -0.03   0.30  -0.65     0.00   0.01  -0.03
  21   1     0.07   0.00  -0.03    -0.40  -0.05   0.27     0.29   0.04  -0.22
  22   1    -0.09   0.03  -0.02     0.15  -0.06   0.08    -0.44   0.16  -0.20
                     34                     35                     36
                        a                      a                      a 
 Frequencies --  1224.0659              1265.7767              1278.4411
 Red. masses --     9.0104                12.2500                 3.7125
 Frc consts  --     0.0000                 0.0000                 0.0000
 IR Inten    --    42.0730                40.0209                 0.8476
 Raman Activ --     0.0000                 0.0000                 0.0000
 Depolar     --     0.0000                 0.0000                 0.0000
 Atom AN      X      Y      Z        X      Y      Z        X      Y      Z
   1   6    -0.18  -0.05  -0.07    -0.29   0.12   0.11    -0.05   0.03   0.01
   2   7     0.26   0.00   0.03     0.54  -0.41  -0.37     0.11  -0.07  -0.06
   3   6    -0.14   0.01  -0.00    -0.15   0.22   0.22    -0.03   0.04   0.04
   4   6     0.31   0.05   0.08    -0.19   0.00  -0.04    -0.03  -0.02   0.02
   5   8     0.02  -0.08  -0.09     0.02   0.07   0.09    -0.00   0.02   0.02
   6   6    -0.56   0.06   0.07     0.10  -0.07   0.05     0.00   0.11  -0.28
   7   6    -0.15   0.03   0.00     0.01   0.00  -0.01     0.17  -0.00  -0.06
   8   6     0.14   0.04  -0.14    -0.04   0.00   0.01     0.07  -0.05   0.09
   9   6     0.07  -0.01  -0.01    -0.01   0.01  -0.01     0.01  -0.07   0.14
  10   6     0.15  -0.08   0.11    -0.01   0.02  -0.05    -0.07  -0.03   0.10
  11   6    -0.17   0.02   0.03     0.05  -0.01  -0.00    -0.17   0.04  -0.02
  12   1    -0.08   0.04   0.05    -0.02  -0.02  -0.05     0.00  -0.01  -0.01
  13   1     0.09  -0.01   0.00    -0.15   0.03  -0.00    -0.02   0.00   0.00
  14   1    -0.08   0.06   0.03     0.01  -0.04  -0.03    -0.01  -0.01  -0.00
  15   1     0.09  -0.02  -0.03     0.02   0.07   0.04     0.00   0.01   0.00
  16   1    -0.01   0.12   0.10    -0.02   0.12   0.10    -0.00   0.02   0.02
  17   1     0.08  -0.08  -0.04     0.01   0.00   0.01     0.01  -0.00  -0.00
  18   1     0.05   0.02  -0.07     0.05   0.01  -0.03    -0.40  -0.06   0.27
  19   1     0.30  -0.09   0.06     0.01  -0.01   0.01    -0.32   0.11  -0.11
  20   1     0.02  -0.00  -0.01    -0.00  -0.02   0.04    -0.01   0.10  -0.22
  21   1     0.29   0.00  -0.13    -0.10  -0.00   0.05     0.30   0.02  -0.18
  22   1     0.03  -0.02   0.05    -0.10   0.04  -0.05     0.40  -0.15   0.18
                     37                     38                     39
                        a                      a                      a 
 Frequencies --  1314.3748              1391.1657              1395.9235
 Red. masses --    11.9840                 3.5541                 7.4452
 Frc consts  --     0.0000                 0.0000                 0.0000
 IR Inten    --     0.2323                15.9686                67.9988
 Raman Activ --     0.0000                 0.0000                 0.0000
 Depolar     --     0.0000                 0.0000                 0.0000
 Atom AN      X      Y      Z        X      Y      Z        X      Y      Z
   1   6     0.01  -0.01   0.00     0.38  -0.08  -0.02    -0.04  -0.10  -0.11
   2   7    -0.02   0.01   0.01    -0.08  -0.13  -0.15     0.33   0.22   0.28
   3   6     0.01  -0.01  -0.01     0.04   0.06   0.07    -0.01  -0.27  -0.26
   4   6     0.00   0.01  -0.02     0.11   0.04   0.06    -0.32  -0.04  -0.07
   5   8     0.01  -0.01  -0.00    -0.01   0.01   0.00     0.05  -0.08  -0.09
   6   6     0.02  -0.17   0.39    -0.02  -0.00   0.01     0.04   0.00  -0.01
   7   6     0.34   0.04  -0.23    -0.02  -0.00   0.01     0.04   0.01  -0.04
   8   6    -0.34   0.13  -0.14     0.00   0.01  -0.01     0.01  -0.02   0.04
   9   6     0.02  -0.17   0.37     0.01  -0.00   0.00    -0.03   0.01  -0.00
  10   6     0.32   0.03  -0.22    -0.01  -0.00   0.01     0.01   0.01  -0.04
  11   6    -0.36   0.13  -0.15    -0.02   0.01  -0.01     0.05  -0.02   0.03
  12   1    -0.00   0.00  -0.00    -0.35   0.24   0.06    -0.10   0.11   0.18
  13   1     0.01   0.00  -0.00    -0.59  -0.00  -0.13    -0.08  -0.03  -0.02
  14   1     0.01   0.00  -0.00    -0.38   0.14   0.23    -0.09   0.18   0.09
  15   1    -0.01   0.00   0.00    -0.06  -0.01   0.02    -0.02   0.27   0.08
  16   1     0.00  -0.01  -0.00     0.00  -0.03  -0.02     0.05   0.31   0.29
  17   1    -0.01   0.01   0.00    -0.04   0.04  -0.02    -0.12   0.10   0.24
  18   1    -0.00  -0.00  -0.00     0.01   0.00  -0.01    -0.05  -0.00   0.03
  19   1    -0.03   0.01  -0.01     0.01  -0.00   0.00    -0.05   0.01  -0.01
  20   1    -0.00   0.01  -0.01     0.00   0.00  -0.01    -0.01   0.00   0.01
  21   1     0.02   0.01  -0.02     0.02   0.00  -0.01    -0.04   0.00   0.02
  22   1    -0.01   0.01  -0.00     0.01  -0.00   0.00    -0.04   0.01  -0.01
                     40                     41                     42
                        a                      a                      a 
 Frequencies --  1423.6811              1429.0915              1461.8872
 Red. masses --     5.5062                 8.4001                 1.5725
 Frc consts  --     0.0000                 0.0000                 0.0000
 IR Inten    --    56.7630                 7.7412                 3.4870
 Raman Activ --     0.0000                 0.0000                 0.0000
 Depolar     --     0.0000                 0.0000                 0.0000
 Atom AN      X      Y      Z        X      Y      Z        X      Y      Z
   1   6    -0.01  -0.08  -0.08    -0.01  -0.03  -0.02     0.04   0.14  -0.13
   2   7     0.23   0.19   0.23     0.06   0.07   0.08    -0.01   0.00  -0.02
   3   6    -0.18   0.12   0.08    -0.06   0.03   0.03    -0.03  -0.07   0.08
   4   6    -0.28  -0.03  -0.04    -0.10   0.02  -0.05     0.01  -0.00   0.00
   5   8     0.04  -0.06  -0.07     0.02  -0.04  -0.03    -0.00   0.01   0.00
   6   6     0.03   0.05  -0.12     0.03  -0.15   0.35     0.01  -0.00  -0.01
   7   6     0.11  -0.02  -0.00    -0.22   0.10  -0.12    -0.00  -0.00   0.01
   8   6    -0.10  -0.01   0.06     0.34  -0.03  -0.07    -0.01   0.00  -0.00
   9   6    -0.04   0.05  -0.09    -0.00  -0.13   0.29     0.01   0.00  -0.00
  10   6     0.13  -0.01  -0.04    -0.33   0.07  -0.03    -0.00  -0.00   0.01
  11   6    -0.03  -0.03   0.09     0.24   0.01  -0.14    -0.01   0.00  -0.01
  12   1    -0.03   0.07   0.16    -0.01   0.02   0.05    -0.21   0.22   0.26
  13   1    -0.07  -0.01  -0.02    -0.02   0.00  -0.02    -0.07  -0.44   0.45
  14   1    -0.03   0.17   0.07     0.00   0.06   0.02     0.12  -0.34  -0.18
  15   1     0.30  -0.24  -0.14     0.12  -0.09  -0.05     0.22  -0.06  -0.06
  16   1    -0.06  -0.25  -0.30    -0.01  -0.06  -0.13     0.08   0.23  -0.25
  17   1     0.31  -0.25  -0.17     0.08  -0.07  -0.06    -0.17   0.12   0.02
  18   1    -0.06  -0.02   0.06     0.05   0.04  -0.11     0.00  -0.00  -0.00
  19   1     0.01  -0.02   0.03    -0.17   0.09  -0.13     0.01  -0.00   0.00
  20   1    -0.00  -0.05   0.11    -0.02   0.15  -0.32     0.00  -0.00   0.00
  21   1    -0.09  -0.02   0.07     0.12   0.05  -0.15     0.01  -0.00  -0.00
  22   1    -0.01  -0.01   0.02    -0.10   0.07  -0.11     0.01  -0.00   0.00
                     43                     44                     45
                        a                      a                      a 
 Frequencies --  1469.5274              1471.0287              1479.8394
 Red. masses --     8.7436                 1.5799                 1.7905
 Frc consts  --     0.0000                 0.0000                 0.0000
 IR Inten    --    15.2043                14.9202                 5.7833
 Raman Activ --     0.0000                 0.0000                 0.0000
 Depolar     --     0.0000                 0.0000                 0.0000
 Atom AN      X      Y      Z        X      Y      Z        X      Y      Z
   1   6    -0.02  -0.03  -0.03    -0.03  -0.08   0.05    -0.10  -0.07  -0.13
   2   7     0.02   0.02   0.02    -0.03  -0.04   0.02    -0.04  -0.05  -0.07
   3   6    -0.02  -0.00  -0.02    -0.01  -0.12   0.14     0.12   0.06   0.06
   4   6    -0.13  -0.02  -0.04     0.02  -0.00   0.00     0.05   0.00   0.01
   5   8    -0.01   0.02   0.03    -0.01   0.01   0.01    -0.01   0.02   0.02
   6   6     0.40  -0.06  -0.04     0.01   0.00  -0.02    -0.04   0.00   0.00
   7   6    -0.17  -0.09   0.25     0.01  -0.01   0.01     0.01   0.01  -0.02
   8   6    -0.25   0.14  -0.21    -0.02   0.00   0.00     0.02  -0.01   0.02
   9   6     0.26  -0.04  -0.02     0.01   0.01  -0.02    -0.02   0.00  -0.00
  10   6    -0.23  -0.07   0.26     0.01  -0.01   0.01     0.02   0.00  -0.02
  11   6    -0.18   0.13  -0.22    -0.02   0.00  -0.00     0.01  -0.01   0.01
  12   1     0.05   0.00   0.10     0.16  -0.13  -0.07     0.25   0.03   0.51
  13   1    -0.03  -0.00  -0.01     0.01   0.23  -0.24    -0.18  -0.09   0.04
  14   1     0.06   0.09   0.01    -0.02   0.23   0.10     0.36   0.37  -0.02
  15   1     0.04   0.04   0.01     0.30  -0.19  -0.11    -0.34  -0.21  -0.01
  16   1    -0.01  -0.03   0.00     0.15   0.45  -0.39    -0.00   0.01   0.16
  17   1     0.05  -0.03   0.05    -0.38   0.24  -0.06    -0.12   0.03  -0.31
  18   1     0.23   0.01  -0.11    -0.00  -0.01   0.00    -0.01   0.00   0.01
  19   1     0.23  -0.07   0.06     0.01  -0.01   0.01    -0.02   0.00  -0.00
  20   1     0.08  -0.01  -0.01     0.00  -0.01   0.02    -0.01   0.00   0.00
  21   1     0.23   0.01  -0.12     0.00  -0.00   0.00    -0.01  -0.00   0.01
  22   1     0.23  -0.07   0.05     0.02  -0.01   0.01    -0.02   0.00  -0.00
                     46                     47                     48
                        a                      a                      a 
 Frequencies --  1499.5220              1584.1439              1597.0468
 Red. masses --     2.8351                11.5055                11.4711
 Frc consts  --     0.0000                 0.0000                 0.0000
 IR Inten    --    31.8822                 0.0456                 1.3318
 Raman Activ --     0.0000                 0.0000                 0.0000
 Depolar     --     0.0000                 0.0000                 0.0000
 Atom AN      X      Y      Z        X      Y      Z        X      Y      Z
   1   6     0.02   0.04   0.04     0.00  -0.00   0.00    -0.00   0.00  -0.00
   2   7     0.19   0.14   0.17    -0.01   0.00   0.00     0.00  -0.00  -0.00
   3   6     0.11   0.01   0.05    -0.00   0.00  -0.00    -0.00   0.00   0.00
   4   6    -0.17  -0.00  -0.02    -0.01   0.02  -0.02     0.03   0.01   0.01
   5   8     0.03  -0.05  -0.05     0.01  -0.01  -0.00     0.01  -0.01  -0.01
   6   6     0.07  -0.01  -0.00     0.02  -0.19   0.43    -0.27   0.05   0.01
   7   6    -0.01  -0.01   0.03     0.16   0.10  -0.27     0.42  -0.01  -0.15
   8   6    -0.04   0.02  -0.02     0.11  -0.14   0.26    -0.44   0.12  -0.08
   9   6     0.03  -0.00  -0.01    -0.01   0.24  -0.51     0.21  -0.04  -0.01
  10   6    -0.04  -0.01   0.03    -0.12  -0.11   0.30    -0.42   0.01   0.16
  11   6    -0.01   0.01  -0.03    -0.15   0.13  -0.23     0.44  -0.12   0.08
  12   1    -0.20   0.03  -0.25    -0.00   0.00   0.00     0.00  -0.00   0.00
  13   1     0.13   0.00   0.03     0.00  -0.00   0.00    -0.00  -0.00   0.00
  14   1    -0.22  -0.24   0.00     0.00  -0.00  -0.00     0.00   0.00  -0.00
  15   1    -0.35  -0.40  -0.08     0.00   0.00   0.00     0.00   0.00   0.00
  16   1     0.02   0.12   0.16    -0.00  -0.01  -0.00     0.00  -0.01  -0.01
  17   1    -0.18   0.03  -0.51     0.01  -0.00   0.00     0.00  -0.00   0.00
  18   1     0.03   0.01  -0.01    -0.09   0.01   0.02    -0.07  -0.02   0.08
  19   1     0.02  -0.01   0.01    -0.06  -0.00   0.03     0.08  -0.04   0.06
  20   1     0.01  -0.00  -0.00     0.01  -0.06   0.13     0.05  -0.01  -0.01
  21   1     0.02   0.00  -0.01     0.07  -0.02   0.01     0.07   0.02  -0.08
  22   1     0.02  -0.01   0.00     0.08  -0.01  -0.01    -0.08   0.04  -0.06
                     49                     50                     51
                        a                      a                      a 
 Frequencies --  1705.0055              2938.1450              2956.9327
 Red. masses --    13.3368                 1.9020                 1.9424
 Frc consts  --     0.0000                 0.0000                 0.0000
 IR Inten    --   528.1204                30.5486                35.5035
 Raman Activ --     0.0000                 0.0000                 0.0000
 Depolar     --     0.0000                 0.0000                 0.0000
 Atom AN      X      Y      Z        X      Y      Z        X      Y      Z
   1   6     0.00  -0.02  -0.02     0.00   0.01  -0.00     0.04   0.22  -0.19
   2   7     0.07   0.09   0.10     0.00  -0.00  -0.01     0.00   0.00  -0.00
   3   6    -0.00  -0.01  -0.01     0.03   0.18  -0.22     0.00  -0.00   0.01
   4   6     0.21  -0.51  -0.57     0.00   0.00  -0.00    -0.00   0.00  -0.00
   5   8    -0.18   0.37   0.41    -0.00  -0.00  -0.00    -0.00  -0.00   0.00
   6   6    -0.06   0.02   0.02     0.00  -0.00   0.00    -0.00  -0.00   0.00
   7   6    -0.00   0.00  -0.00     0.00  -0.00   0.00     0.00  -0.00   0.00
   8   6     0.01  -0.00  -0.00    -0.00  -0.00   0.00    -0.00  -0.00   0.00
   9   6    -0.00   0.00  -0.00     0.00  -0.00   0.00     0.00  -0.00   0.00
  10   6     0.00  -0.00   0.00     0.00  -0.00   0.00     0.00  -0.00   0.00
  11   6     0.01  -0.00  -0.00    -0.00  -0.00   0.00    -0.00  -0.00   0.00
  12   1    -0.04   0.02  -0.00    -0.02  -0.03   0.01    -0.38  -0.63   0.19
  13   1    -0.02  -0.00  -0.01     0.00  -0.00  -0.00     0.01   0.03  -0.04
  14   1    -0.04   0.01   0.02     0.00  -0.00   0.00     0.22  -0.15   0.51
  15   1     0.00  -0.02  -0.00     0.16  -0.27   0.78    -0.01   0.01  -0.03
  16   1     0.00   0.00   0.01     0.02   0.03  -0.03     0.00  -0.00   0.00
  17   1     0.01  -0.01  -0.02    -0.27  -0.36   0.04     0.00   0.00  -0.00
  18   1    -0.01   0.00   0.00    -0.01   0.00  -0.01    -0.00   0.00  -0.00
  19   1     0.00  -0.00  -0.00     0.00   0.00  -0.00     0.00   0.00  -0.00
  20   1    -0.00   0.00   0.00    -0.00  -0.00   0.00    -0.00   0.00   0.00
  21   1     0.00   0.00  -0.00    -0.00   0.00  -0.00    -0.00   0.00  -0.00
  22   1     0.00   0.00  -0.00     0.00   0.00  -0.00     0.00   0.00  -0.00
                     52                     53                     54
                        a                      a                      a 
 Frequencies --  2966.0844              2977.3083              3038.4742
 Red. masses --     1.5118                 1.4354                 1.7286
 Frc consts  --     0.0000                 0.0000                 0.0000
 IR Inten    --    28.1783                71.1276                 2.4479
 Raman Activ --     0.0000                 0.0000                 0.0000
 Depolar     --     0.0000                 0.0000                 0.0000
 Atom AN      X      Y      Z        X      Y      Z        X      Y      Z
   1   6     0.03   0.02   0.03     0.13   0.06   0.13    -0.03   0.18   0.18
   2   7     0.00  -0.02  -0.01     0.02   0.01   0.01    -0.00   0.01   0.01
   3   6    -0.15  -0.12  -0.07     0.03   0.03   0.02     0.02  -0.00   0.00
   4   6     0.00   0.00   0.00    -0.00  -0.00  -0.00    -0.00  -0.00  -0.00
   5   8     0.00  -0.00  -0.00    -0.00   0.00   0.00     0.00   0.00   0.00
   6   6     0.00   0.00   0.00    -0.00  -0.00  -0.00    -0.00   0.00   0.00
   7   6    -0.00   0.00  -0.00    -0.00   0.00  -0.00     0.00  -0.00   0.00
   8   6    -0.00  -0.00   0.00     0.00   0.00  -0.00     0.00  -0.00  -0.00
   9   6    -0.00   0.00   0.00     0.00  -0.00  -0.00    -0.00   0.00   0.00
  10   6    -0.00   0.00  -0.00     0.00  -0.00   0.00    -0.00   0.00  -0.00
  11   6    -0.00   0.00  -0.00    -0.00  -0.00   0.00     0.00   0.00  -0.00
  12   1    -0.07  -0.12   0.05    -0.27  -0.47   0.19    -0.00   0.02   0.02
  13   1     0.01  -0.02  -0.01     0.01   0.02   0.03     0.12  -0.69  -0.66
  14   1    -0.06   0.06  -0.15    -0.26   0.26  -0.67    -0.01   0.03   0.00
  15   1     0.05  -0.18   0.42    -0.02   0.05  -0.12     0.00   0.01  -0.02
  16   1     0.01  -0.02  -0.00     0.03  -0.00   0.00    -0.07   0.02  -0.01
  17   1     0.46   0.68  -0.15    -0.10  -0.16   0.03    -0.01  -0.02   0.00
  18   1     0.00  -0.00   0.00     0.00  -0.00   0.00    -0.00   0.00  -0.00
  19   1     0.00   0.00  -0.00    -0.00  -0.00   0.00    -0.00  -0.00   0.00
  20   1     0.00  -0.00  -0.00    -0.00   0.00   0.00     0.00  -0.00  -0.00
  21   1     0.00  -0.00   0.00    -0.00   0.00  -0.00     0.00  -0.00   0.00
  22   1    -0.00  -0.00   0.00     0.00   0.00  -0.00    -0.00  -0.00   0.00
                     55                     56                     57
                        a                      a                      a 
 Frequencies --  3047.7231              3072.9786              3077.2982
 Red. masses --     1.6896                 1.7568                 1.7819
 Frc consts  --     0.0000                 0.0000                 0.0000
 IR Inten    --    16.4106                 3.2069                 3.0776
 Raman Activ --     0.0000                 0.0000                 0.0000
 Depolar     --     0.0000                 0.0000                 0.0000
 Atom AN      X      Y      Z        X      Y      Z        X      Y      Z
   1   6    -0.01   0.01   0.01    -0.00  -0.00   0.00    -0.00  -0.00   0.00
   2   7    -0.01   0.00   0.00    -0.00   0.00  -0.00    -0.00   0.00  -0.00
   3   6    -0.24   0.06  -0.02    -0.01   0.00   0.00    -0.00   0.00   0.00
   4   6    -0.00   0.00   0.00     0.00   0.00   0.00     0.00   0.00   0.00
   5   8     0.00  -0.00  -0.00    -0.00   0.00  -0.00    -0.00  -0.00  -0.00
   6   6     0.00  -0.00  -0.00     0.01  -0.00   0.00     0.00  -0.00   0.00
   7   6    -0.01   0.00  -0.01     0.09  -0.08   0.12     0.07  -0.06   0.09
   8   6    -0.00  -0.00   0.00     0.08   0.05  -0.14     0.00  -0.00  -0.00
   9   6    -0.00   0.00  -0.00    -0.09   0.01   0.01     0.14  -0.02  -0.02
  10   6    -0.00   0.00  -0.00     0.02  -0.02   0.03    -0.09   0.07  -0.12
  11   6    -0.00  -0.00   0.00     0.00   0.00  -0.00    -0.03  -0.02   0.05
  12   1     0.01   0.02  -0.01     0.00   0.00  -0.00     0.00   0.00  -0.00
  13   1     0.01  -0.05  -0.05     0.00  -0.00  -0.00     0.00  -0.00  -0.00
  14   1     0.01  -0.01   0.02     0.00  -0.00  -0.00    -0.00   0.00  -0.00
  15   1    -0.04   0.01  -0.03    -0.00   0.00  -0.01    -0.00   0.00  -0.01
  16   1     0.93  -0.23   0.09     0.03  -0.01   0.00     0.01  -0.00   0.00
  17   1    -0.04  -0.01  -0.00     0.00   0.00  -0.00     0.00   0.00  -0.00
  18   1     0.02  -0.02   0.03    -0.33   0.27  -0.45    -0.24   0.20  -0.33
  19   1     0.00   0.00  -0.00    -0.29  -0.19   0.53    -0.00  -0.00   0.00
  20   1    -0.00   0.00   0.00     0.35  -0.05  -0.04    -0.52   0.07   0.06
  21   1     0.00  -0.00   0.00    -0.08   0.06  -0.11     0.33  -0.27   0.45
  22   1     0.00   0.00  -0.00    -0.01  -0.00   0.01     0.11   0.07  -0.21
                     58                     59                     60
                        a                      a                      a 
 Frequencies --  3083.4405              3090.2196              3095.6380
 Red. masses --     1.8383                 1.8755                 1.9126
 Frc consts  --     0.0000                 0.0000                 0.0000
 IR Inten    --    46.2628                69.4295                28.9689
 Raman Activ --     0.0000                 0.0000                 0.0000
 Depolar     --     0.0000                 0.0000                 0.0000
 Atom AN      X      Y      Z        X      Y      Z        X      Y      Z
   1   6    -0.00  -0.00   0.00    -0.00   0.00  -0.00     0.00   0.00  -0.00
   2   7    -0.00   0.00  -0.00     0.00  -0.00   0.00    -0.00  -0.00  -0.00
   3   6    -0.00   0.00   0.00     0.00   0.00  -0.00    -0.00   0.00  -0.00
   4   6     0.00  -0.00   0.00    -0.00  -0.00  -0.00     0.00  -0.00  -0.00
   5   8    -0.00   0.00   0.00     0.00   0.00   0.00    -0.00   0.00   0.00
   6   6     0.01  -0.00  -0.00     0.00  -0.00   0.00     0.01  -0.00  -0.00
   7   6     0.08  -0.07   0.11    -0.04   0.04  -0.06     0.02  -0.01   0.02
   8   6    -0.06  -0.04   0.11     0.07   0.05  -0.13    -0.03  -0.02   0.06
   9   6     0.09  -0.01  -0.01     0.14  -0.02  -0.01    -0.13   0.02   0.02
  10   6     0.07  -0.06   0.10    -0.00   0.00  -0.00    -0.08   0.07  -0.12
  11   6     0.05   0.03  -0.09     0.08   0.05  -0.14     0.08   0.05  -0.15
  12   1     0.00   0.00  -0.00    -0.00  -0.00  -0.00    -0.00  -0.00   0.00
  13   1     0.00  -0.00  -0.00    -0.00   0.00   0.00     0.00   0.00   0.00
  14   1    -0.00   0.00  -0.00     0.00  -0.00   0.00    -0.00   0.00  -0.00
  15   1    -0.00   0.00  -0.00     0.00  -0.00   0.01    -0.00   0.00  -0.00
  16   1     0.02  -0.01   0.00    -0.00   0.00  -0.00     0.01  -0.00   0.00
  17   1     0.00   0.00  -0.00    -0.00  -0.00   0.00    -0.00  -0.00   0.00
  18   1    -0.26   0.22  -0.36     0.14  -0.12   0.19    -0.06   0.05  -0.08
  19   1     0.20   0.13  -0.37    -0.24  -0.16   0.44     0.11   0.07  -0.20
  20   1    -0.31   0.04   0.03    -0.48   0.07   0.05     0.42  -0.06  -0.05
  21   1    -0.26   0.21  -0.36     0.00  -0.00   0.01     0.28  -0.23   0.39
  22   1    -0.17  -0.11   0.32    -0.27  -0.16   0.49    -0.28  -0.17   0.52
