      -----------------------------------------------------------      
     |                   =====================                   |     
     |                           x T B                           |     
     |                   =====================                   |     
     |                         S. Grimme                         |     
     |          Mulliken Center for Theoretical Chemistry        |     
     |                    University of Bonn                     |     
      -----------------------------------------------------------      

   * xtb version 6.7.1 (edcfbbe) compiled by 'albert@albert-system' on 2024-07-22

   xtb is free software: you can redistribute it and/or modify it under
   the terms of the GNU Lesser General Public License as published by
   the Free Software Foundation, either version 3 of the License, or
   (at your option) any later version.
   
   xtb is distributed in the hope that it will be useful,
   but WITHOUT ANY WARRANTY; without even the implied warranty of
   MERCHANTABILITY or FITNESS FOR A PARTICULAR PURPOSE.  See the
   GNU Lesser General Public License for more details.
   
   Cite this work as:
   * C. Bannwarth, E. Caldeweyher, S. Ehlert, A. Hansen, P. Pracht,
     J. Seibert, S. Spicher, S. Grimme, WIREs Comput. Mol. Sci., 2020, 11,
     e01493. DOI: 10.1002/wcms.1493
   
   for GFN2-xTB:
   * C. Bannwarth, S. Ehlert and S. Grimme., J. Chem. Theory Comput., 2019,
     15, 1652-1671. DOI: 10.1021/acs.jctc.8b01176
   for GFN1-xTB:
   * S. Grimme, C. Bannwarth, P. Shushkov, J. Chem. Theory Comput., 2017,
     13, 1989-2009. DOI: 10.1021/acs.jctc.7b00118
   for GFN0-xTB:
   * P. Pracht, E. Caldeweyher, S. Ehlert, S. Grimme, ChemRxiv, 2019, preprint.
     DOI: 10.26434/chemrxiv.8326202.v1
   for GFN-FF:
   * S. Spicher and S. Grimme, Angew. Chem. Int. Ed., 2020, 59, 15665-15673.
     DOI: 10.1002/anie.202004239
   
   for ALPB and GBSA implicit solvation:
   * S. Ehlert, M. Stahn, S. Spicher, S. Grimme, J. Chem. Theory Comput.,
     2021, 17, 4250-4261. DOI: 10.1021/acs.jctc.1c00471
   
   for ddCOSMO and CPCM-X implicit solvation:
   * M. Stahn, S. Ehlert, S. Grimme, J. Phys. Chem. A,
     2023, XX, XXXX-XXXX. DOI: 10.1021/acs.jpca.3c04382
   
   for DFT-D4:
   * E. Caldeweyher, C. Bannwarth and S. Grimme, J. Chem. Phys., 2017,
     147, 034112. DOI: 10.1063/1.4993215
   * E. Caldeweyher, S. Ehlert, A. Hansen, H. Neugebauer, S. Spicher,
     C. Bannwarth and S. Grimme, J. Chem. Phys., 2019, 150, 154122.
     DOI: 10.1063/1.5090222
   * E. Caldeweyher, J.-M. Mewes, S. Ehlert and S. Grimme, Phys. Chem. Chem. Phys.
     2020, 22, 8499-8512. DOI: 10.1039/D0CP00502A
   
   for sTDA-xTB:
   * S. Grimme and C. Bannwarth, J. Chem. Phys., 2016, 145, 054103.
     DOI: 10.1063/1.4959605
   
   in the mass-spec context:
   * V. Asgeirsson, C. Bauer and S. Grimme, Chem. Sci., 2017, 8, 4879.
     DOI: 10.1039/c7sc00601b
   * J. Koopman and S. Grimme, ACS Omega 2019, 4, 12, 15120-15133.
     DOI: 10.1021/acsomega.9b02011
   
   for metadynamics refer to:
   * S. Grimme, J. Chem. Theory Comput., 2019, 155, 2847-2862
     DOI: 10.1021/acs.jctc.9b00143
   
   for SPH calculations refer to:
   * S. Spicher and S. Grimme, J. Chem. Theory Comput., 2021, 17, 1701-1714
     DOI: 10.1021/acs.jctc.0c01306
   
   for ONIOM refer to:
   * C. Plett, A. Katbashev, S. Ehlert, S. Grimme, M. Bursch,
     Phys. Chem. Chem. Phys., 2023, 25, 17860-17868. DOI: 10.1039/D3CP02178E
   
   for DIPRO refer to:
   * J. Kohn, N. Gildemeister, S. Grimme, D. Fazzi, A. Hansen,
     J. Chem. Phys., 2023, just accepted.
   
   for PTB refer to:
   * S. Grimme, M. Mueller, A. Hansen, J. Chem. Phys., 2023, 158, 124111.
     DOI: 10.1063/5.0137838
   
   with help from (in alphabetical order)
   P. Atkinson, C. Bannwarth, F. Bohle, G. Brandenburg, E. Caldeweyher
   M. Checinski, S. Dohm, S. Ehlert, S. Ehrlich, I. Gerasimov, C. Hölzer
   A. Katbashev, J. Kohn, J. Koopman, C. Lavigne, S. Lehtola, F. März, M. Müller,
   F. Musil, H. Neugebauer, J. Pisarek, C. Plett, P. Pracht, F. Pultar,
   J. Seibert, P. Shushkov, S. Spicher, M. Stahn, M. Steiner, T. Strunk,
   J. Stückrath, T. Rose, and J. Unsleber
   
 * started run on 2025/04/15 at 20:06:22.878     
   ID    Z sym.   atoms
    1    6 C      1, 3-9
    2    7 N      2
    3    1 H      10-20

           -------------------------------------------------
          |                Calculation Setup                |
           -------------------------------------------------

          program call               : /software/projects/pawsey0265/mwang1/xtb/bin/xtb xtb_rrho.coord --gfn2 --ohess vtight --chrg 0 --enso --norestart -I rrho-xcontrol-inp --parallel 1
          hostname                   : nid002803
          coordinate file            : xtb_rrho.coord
          omp threads                :                     1


           -------------------------------------------------
          |                 G F N 2 - x T B                 |
           -------------------------------------------------

        Reference                      10.1021/acs.jctc.8b01176
      * Hamiltonian:
        H0-scaling (s, p, d)           1.850000    2.230000    2.230000
        zeta-weighting                 0.500000
      * Dispersion:
        s8                             2.700000
        a1                             0.520000
        a2                             5.000000
        s9                             5.000000
      * Repulsion:
        kExp                           1.500000    1.000000
        rExp                           1.000000
      * Coulomb:
        alpha                          2.000000
        third order                    shell-resolved
        anisotropic                    true
        a3                             3.000000
        a5                             4.000000
        cn-shift                       1.200000
        cn-exp                         4.000000
        max-rad                        5.000000


          ...................................................
          :                      SETUP                      :
          :.................................................:
          :  # basis functions                  47          :
          :  # atomic orbitals                  47          :
          :  # shells                           29          :
          :  # electrons                        48          :
          :  max. iterations                   250          :
          :  Hamiltonian                  GFN2-xTB          :
          :  restarted?                      false          :
          :  GBSA solvation                  false          :
          :  PC potential                    false          :
          :  electronic temp.          300.0000000     K    :
          :  accuracy                    1.0000000          :
          :  -> integral cutoff          0.2500000E+02      :
          :  -> integral neglect         0.1000000E-07      :
          :  -> SCF convergence          0.1000000E-05 Eh   :
          :  -> wf. convergence          0.1000000E-03 e    :
          :  Broyden damping             0.4000000          :
          :  net charge                          0          :
          :  unpaired electrons                  0          :
          ...................................................

 iter      E             dE          RMSdq      gap      omega  full diag
   1    -26.0267736 -0.260268E+02  0.380E+00    3.21       0.0  T
   2    -26.0592758 -0.325022E-01  0.243E+00    3.76       1.0  T
   3    -26.0573540  0.192180E-02  0.102E+00    3.58       1.0  T
   4    -26.0615660 -0.421199E-02  0.331E-01    3.63       1.0  T
   5    -26.0626635 -0.109748E-02  0.709E-02    3.67       1.0  T
   6    -26.0626805 -0.170291E-04  0.314E-02    3.66       1.0  T
   7    -26.0626798  0.747795E-06  0.977E-03    3.66       2.3  T
   8    -26.0626812 -0.138067E-05  0.180E-03    3.66      12.4  T
   9    -26.0626812 -0.335114E-07  0.782E-04    3.66      28.6  T
  10    -26.0626812 -0.403617E-08  0.412E-04    3.66      54.3  T

   *** convergence criteria satisfied after 10 iterations ***

         #    Occupation            Energy/Eh            Energy/eV
      -------------------------------------------------------------
         1        2.0000           -0.6463939             -17.5893
       ...           ...                  ...                  ...
        18        2.0000           -0.4579056             -12.4602
        19        2.0000           -0.4548497             -12.3771
        20        2.0000           -0.4196907             -11.4204
        21        2.0000           -0.4080578             -11.1038
        22        2.0000           -0.4058103             -11.0427
        23        2.0000           -0.3859590             -10.5025
        24        2.0000           -0.3409958              -9.2790 (HOMO)
        25                         -0.2065666              -5.6210 (LUMO)
        26                         -0.1966685              -5.3516
        27                         -0.0770534              -2.0967
        28                          0.0032019               0.0871
        29                          0.0998532               2.7171
       ...                                ...                  ...
        47                          0.6598992              17.9568
      -------------------------------------------------------------
                  HL-Gap            0.1344291 Eh            3.6580 eV
             Fermi-level           -0.2737812 Eh           -7.4500 eV

 SCC (total)                   0 d,  0 h,  0 min,  0.046 sec
 SCC setup                      ...        0 min,  0.000 sec (  0.522%)
 Dispersion                     ...        0 min,  0.000 sec (  0.396%)
 classical contributions        ...        0 min,  0.000 sec (  0.085%)
 integral evaluation            ...        0 min,  0.003 sec (  6.623%)
 iterations                     ...        0 min,  0.035 sec ( 76.252%)
 molecular gradient             ...        0 min,  0.007 sec ( 15.647%)
 printout                       ...        0 min,  0.000 sec (  0.422%)

         :::::::::::::::::::::::::::::::::::::::::::::::::::::
         ::                     SUMMARY                     ::
         :::::::::::::::::::::::::::::::::::::::::::::::::::::
         :: total energy             -25.645120108016 Eh    ::
         :: gradient norm              0.017732277003 Eh/a0 ::
         :: HOMO-LUMO gap              3.658002857790 eV    ::
         ::.................................................::
         :: SCC energy               -26.062631807589 Eh    ::
         :: -> isotropic ES            0.005574126951 Eh    ::
         :: -> anisotropic ES          0.007236991918 Eh    ::
         :: -> anisotropic XC          0.017205702412 Eh    ::
         :: -> dispersion             -0.015811364936 Eh    ::
         :: repulsion energy           0.417511699573 Eh    ::
         :: add. restraining           0.000000000000 Eh    ::
         :: total charge              -0.000000000000 e     ::
         :::::::::::::::::::::::::::::::::::::::::::::::::::::

      ----------------------------------------------------------- 
     |                   =====================                   |
     |                        A N C O P T                        |
     |                   =====================                   |
     |               Approximate Normal Coordinate               |
     |                Rational Function Optimizer                |
      ----------------------------------------------------------- 
      ----------------------------------------------------------- 
     |                   =====================                   |
     |                        A N C O P T                        |
     |                   =====================                   |
     |               Approximate Normal Coordinate               |
     |                Rational Function Optimizer                |
      ----------------------------------------------------------- 

          ...................................................
          :                      SETUP                      :
          :.................................................:
          :   optimization level         verytight          :
          :   max. optcycles                   400          :
          :   ANC micro-cycles                  20          :
          :   degrees of freedom                54          :
          :.................................................:
          :   RF solver                   davidson          :
          :   write xtbopt.log                true          :
          :   linear?                        false          :
          :   energy convergence         0.1000000E-06 Eh   :
          :   grad. convergence          0.2000000E-03 Eh/α :
          :   maxmium RF displ.          1.0000000          :
          :   Hlow (freq-cutoff)         0.1000000E-01      :
          :   Hmax (freq-cutoff)         5.0000000          :
          :   S6 in model hess.         20.0000000          :
          ...................................................

generating ANC from exact Hessian ...
Using Lindh-Hessian (1995)
 Shifting diagonal of input Hessian by   8.149567602916864E-003
 Lowest  eigenvalues of input Hessian
    0.000000    0.000000    0.000000    0.000000    0.000000    0.000000
    0.010000    0.012099    0.014291    0.017891    0.018120    0.022710
    0.022896    0.025556    0.032737    0.037139    0.044265    0.054329
 Highest eigenvalues
    1.470994    1.617120    1.746329    1.860366    1.961632    2.045566
 

........................................................................
.............................. CYCLE    1 ..............................
........................................................................

 iter      E             dE          RMSdq      gap      omega  full diag
   1    -26.0626812 -0.260627E+02  0.593E-05    3.66       0.0  T
   2    -26.0626812 -0.254374E-11  0.360E-05    3.66     621.0  T
   3    -26.0626812  0.135358E-11  0.195E-05    3.66    1146.2  T
     SCC iter.                  ...        0 min,  0.002 sec
     gradient                   ...        0 min,  0.007 sec
 * total energy  :   -25.6451201 Eh     change       -0.5192788E-09 Eh
   gradient norm :     0.0177319 Eh/α   predicted     0.0000000E+00 (-100.00%)
   displ. norm   :     0.1113548 α      lambda       -0.1477071E-02
   maximum displ.:     0.0633152 α      in ANC's #12, #32, #13, ...

........................................................................
.............................. CYCLE    2 ..............................
........................................................................

 iter      E             dE          RMSdq      gap      omega  full diag
   1    -26.0794251 -0.260794E+02  0.112E-01    3.69       0.0  T
   2    -26.0794318 -0.660292E-05  0.659E-02    3.70       1.0  T
   3    -26.0794279  0.384766E-05  0.193E-02    3.69       1.2  T
   4    -26.0794327 -0.480240E-05  0.431E-03    3.70       5.2  T
   5    -26.0794330 -0.246936E-06  0.146E-03    3.69      15.3  T
   6    -26.0794330 -0.875552E-09  0.587E-04    3.69      38.1  T
   7    -26.0794330 -0.250175E-08  0.160E-04    3.69     139.8  T
     SCC iter.                  ...        0 min,  0.002 sec
     gradient                   ...        0 min,  0.004 sec
 * total energy  :   -25.6459838 Eh     change       -0.8636951E-03 Eh
   gradient norm :     0.0039967 Eh/α   predicted    -0.7533275E-03 ( -12.78%)
   displ. norm   :     0.0329166 α      lambda       -0.7523777E-04
   maximum displ.:     0.0162984 α      in ANC's #12, #8, #2, ...

........................................................................
.............................. CYCLE    3 ..............................
........................................................................

 iter      E             dE          RMSdq      gap      omega  full diag
   1    -26.0833059 -0.260833E+02  0.280E-02    3.69       0.0  T
   2    -26.0833073 -0.144584E-05  0.170E-02    3.70       1.3  T
   3    -26.0833072  0.186405E-06  0.881E-03    3.70       2.5  T
   4    -26.0833078 -0.642418E-06  0.153E-03    3.70      14.6  T
   5    -26.0833078 -0.260420E-07  0.497E-04    3.70      45.0  T
   6    -26.0833078 -0.276358E-09  0.249E-04    3.70      89.9  T
     SCC iter.                  ...        0 min,  0.002 sec
     gradient                   ...        0 min,  0.004 sec
 * total energy  :   -25.6460279 Eh     change       -0.4409842E-04 Eh
   gradient norm :     0.0016711 Eh/α   predicted    -0.3766310E-04 ( -14.59%)
   displ. norm   :     0.0409696 α      lambda       -0.1575580E-04
   maximum displ.:     0.0226591 α      in ANC's #4, #2, #8, ...

........................................................................
.............................. CYCLE    4 ..............................
........................................................................

 iter      E             dE          RMSdq      gap      omega  full diag
   1    -26.0842179 -0.260842E+02  0.249E-02    3.69       0.0  T
   2    -26.0842195 -0.153624E-05  0.146E-02    3.70       1.5  T
   3    -26.0842195 -0.257953E-07  0.788E-03    3.70       2.8  T
   4    -26.0842199 -0.435900E-06  0.151E-03    3.70      14.8  T
   5    -26.0842200 -0.222145E-07  0.566E-04    3.70      39.5  T
   6    -26.0842200  0.379075E-11  0.218E-04    3.70     102.5  T
     SCC iter.                  ...        0 min,  0.002 sec
     gradient                   ...        0 min,  0.004 sec
 * total energy  :   -25.6460460 Eh     change       -0.1812998E-04 Eh
   gradient norm :     0.0013135 Eh/α   predicted    -0.7993625E-05 ( -55.91%)
   displ. norm   :     0.0973062 α      lambda       -0.2663121E-04
   maximum displ.:     0.0609426 α      in ANC's #4, #2, #8, ...

........................................................................
.............................. CYCLE    5 ..............................
........................................................................

 iter      E             dE          RMSdq      gap      omega  full diag
   1    -26.0836962 -0.260837E+02  0.518E-02    3.67       0.0  T
   2    -26.0837007 -0.449095E-05  0.292E-02    3.69       1.0  T
   3    -26.0837000  0.618508E-06  0.151E-02    3.68       1.5  T
   4    -26.0837020 -0.192875E-05  0.273E-03    3.69       8.2  T
   5    -26.0837020 -0.531805E-07  0.121E-03    3.69      18.4  T
   6    -26.0837020 -0.230454E-09  0.338E-04    3.69      66.1  T
   7    -26.0837020 -0.146232E-08  0.966E-05    3.69     231.4  T
     SCC iter.                  ...        0 min,  0.002 sec
     gradient                   ...        0 min,  0.004 sec
 * total energy  :   -25.6460727 Eh     change       -0.2667325E-04 Eh
   gradient norm :     0.0015274 Eh/α   predicted    -0.1344513E-04 ( -49.59%)
   displ. norm   :     0.0746933 α      lambda       -0.1032257E-04
   maximum displ.:     0.0541860 α      in ANC's #4, #2, #8, ...

........................................................................
.............................. CYCLE    6 ..............................
........................................................................

 iter      E             dE          RMSdq      gap      omega  full diag
   1    -26.0834895 -0.260835E+02  0.369E-02    3.67       0.0  T
   2    -26.0834908 -0.135056E-05  0.208E-02    3.68       1.1  T
   3    -26.0834904  0.436324E-06  0.958E-03    3.68       2.3  T
   4    -26.0834912 -0.847705E-06  0.164E-03    3.68      13.6  T
   5    -26.0834913 -0.125648E-07  0.782E-04    3.68      28.6  T
   6    -26.0834913 -0.326640E-09  0.155E-04    3.68     144.0  T
     SCC iter.                  ...        0 min,  0.002 sec
     gradient                   ...        0 min,  0.004 sec
 * total energy  :   -25.6460828 Eh     change       -0.1007223E-04 Eh
   gradient norm :     0.0008428 Eh/α   predicted    -0.5258014E-05 ( -47.80%)
   displ. norm   :     0.0448283 α      lambda       -0.3698842E-05
   maximum displ.:     0.0389415 α      in ANC's #4, #2, #8, ...

........................................................................
.............................. CYCLE    7 ..............................
........................................................................

 iter      E             dE          RMSdq      gap      omega  full diag
   1    -26.0835417 -0.260835E+02  0.196E-02    3.68       0.0  T
   2    -26.0835420 -0.240431E-06  0.112E-02    3.68       2.0  T
   3    -26.0835419  0.120799E-06  0.439E-03    3.68       5.1  T
   4    -26.0835421 -0.197522E-06  0.774E-04    3.68      28.9  T
   5    -26.0835421 -0.218342E-08  0.369E-04    3.68      60.6  T
     SCC iter.                  ...        0 min,  0.002 sec
     gradient                   ...        0 min,  0.004 sec
 * total energy  :   -25.6460861 Eh     change       -0.3350428E-05 Eh
   gradient norm :     0.0003809 Eh/α   predicted    -0.1855985E-05 ( -44.60%)
   displ. norm   :     0.0148566 α      lambda       -0.1449260E-05
   maximum displ.:     0.0136580 α      in ANC's #4, #2, #15, ...

........................................................................
.............................. CYCLE    8 ..............................
........................................................................

 iter      E             dE          RMSdq      gap      omega  full diag
   1    -26.0836145 -0.260836E+02  0.454E-03    3.68       0.0  T
   2    -26.0836145 -0.521681E-08  0.270E-03    3.68       8.3  T
   3    -26.0836145  0.126679E-07  0.850E-04    3.68      26.3  T
   4    -26.0836145 -0.153051E-07  0.996E-05    3.68     224.5  T
     SCC iter.                  ...        0 min,  0.001 sec
     gradient                   ...        0 min,  0.004 sec
 * total energy  :   -25.6460878 Eh     change       -0.1628089E-05 Eh
   gradient norm :     0.0003343 Eh/α   predicted    -0.7251354E-06 ( -55.46%)
   displ. norm   :     0.0204973 α      lambda       -0.1384673E-05
   maximum displ.:     0.0145228 α      in ANC's #2, #4, #10, ...

........................................................................
.............................. CYCLE    9 ..............................
........................................................................

 iter      E             dE          RMSdq      gap      omega  full diag
   1    -26.0836791 -0.260837E+02  0.647E-03    3.68       0.0  T
   2    -26.0836791 -0.322734E-07  0.373E-03    3.68       6.0  T
   3    -26.0836791  0.189182E-07  0.169E-03    3.68      13.2  T
   4    -26.0836791 -0.296874E-07  0.260E-04    3.68      86.1  T
   5    -26.0836791 -0.366214E-09  0.118E-04    3.68     188.9  T
     SCC iter.                  ...        0 min,  0.002 sec
     gradient                   ...        0 min,  0.004 sec
 * total energy  :   -25.6460894 Eh     change       -0.1659389E-05 Eh
   gradient norm :     0.0003344 Eh/α   predicted    -0.6940621E-06 ( -58.17%)
   displ. norm   :     0.0216545 α      lambda       -0.1012615E-05
   maximum displ.:     0.0151367 α      in ANC's #4, #2, #10, ...

........................................................................
.............................. CYCLE   10 ..............................
........................................................................

 iter      E             dE          RMSdq      gap      omega  full diag
   1    -26.0836276 -0.260836E+02  0.607E-03    3.68       0.0  T
   2    -26.0836276 -0.548267E-08  0.358E-03    3.68       6.2  T
   3    -26.0836276  0.501509E-08  0.780E-04    3.68      28.7  T
   4    -26.0836276 -0.680205E-08  0.140E-04    3.68     160.1  T
     SCC iter.                  ...        0 min,  0.001 sec
     gradient                   ...        0 min,  0.004 sec
 * total energy  :   -25.6460906 Eh     change       -0.1212415E-05 Eh
   gradient norm :     0.0001617 Eh/α   predicted    -0.5127428E-06 ( -57.71%)
   displ. norm   :     0.0205776 α      lambda       -0.6591541E-06
   maximum displ.:     0.0154339 α      in ANC's #4, #2, #8, ...

........................................................................
.............................. CYCLE   11 ..............................
........................................................................

 iter      E             dE          RMSdq      gap      omega  full diag
   1    -26.0836122 -0.260836E+02  0.579E-03    3.68       0.0  T
   2    -26.0836122 -0.699685E-08  0.344E-03    3.68       6.5  T
   3    -26.0836122  0.816241E-08  0.743E-04    3.68      30.1  T
   4    -26.0836122 -0.101353E-07  0.148E-04    3.68     150.7  T
     SCC iter.                  ...        0 min,  0.001 sec
     gradient                   ...        0 min,  0.004 sec
 * total energy  :   -25.6460914 Eh     change       -0.7604209E-06 Eh
   gradient norm :     0.0001142 Eh/α   predicted    -0.3304864E-06 ( -56.54%)
   displ. norm   :     0.0203826 α      lambda       -0.3978348E-06
   maximum displ.:     0.0158808 α      in ANC's #4, #2, #8, ...

........................................................................
.............................. CYCLE   12 ..............................
........................................................................

 iter      E             dE          RMSdq      gap      omega  full diag
   1    -26.0836135 -0.260836E+02  0.612E-03    3.68       0.0  T
   2    -26.0836135 -0.214621E-07  0.361E-03    3.68       6.2  T
   3    -26.0836135  0.167531E-07  0.135E-03    3.68      16.6  T
   4    -26.0836135 -0.231296E-07  0.232E-04    3.68      96.2  T
   5    -26.0836135 -0.341668E-09  0.108E-04    3.68     207.5  T
     SCC iter.                  ...        0 min,  0.002 sec
     gradient                   ...        0 min,  0.004 sec
 * total energy  :   -25.6460918 Eh     change       -0.4078513E-06 Eh
   gradient norm :     0.0000901 Eh/α   predicted    -0.2022625E-06 ( -50.41%)
   displ. norm   :     0.0101507 α      lambda       -0.8585994E-07
   maximum displ.:     0.0081759 α      in ANC's #4, #2, #8, ...

........................................................................
.............................. CYCLE   13 ..............................
........................................................................

 iter      E             dE          RMSdq      gap      omega  full diag
   1    -26.0836377 -0.260836E+02  0.335E-03    3.68       0.0  T
   2    -26.0836377 -0.724222E-08  0.195E-03    3.68      11.5  T
   3    -26.0836377  0.413776E-08  0.770E-04    3.68      29.0  T
   4    -26.0836377 -0.627681E-08  0.141E-04    3.68     158.1  T
     SCC iter.                  ...        0 min,  0.001 sec
     gradient                   ...        0 min,  0.004 sec
 * total energy  :   -25.6460919 Eh     change       -0.7191981E-07 Eh
   gradient norm :     0.0000448 Eh/α   predicted    -0.4567400E-07 ( -36.49%)
   displ. norm   :     0.0076947 α      lambda        0.8559812E-07
   maximum displ.:     0.0060324 α      in ANC's #4, #2, #8, ...

   *** GEOMETRY OPTIMIZATION CONVERGED AFTER 13 ITERATIONS ***

------------------------------------------------------------------------
 total energy gain   :        -0.0009718 Eh       -0.6098 kcal/mol
 total RMSD          :         0.0808809 a0        0.0428 Å
 total power (kW/mol):        -0.1962581 (step)  -21.4925 (real)
------------------------------------------------------------------------

 ANCopt (total)                0 d,  0 h,  0 min,  0.119 sec
 optimizer setup                ...        0 min,  0.001 sec (  0.430%)
 model hessian                  ...        0 min,  0.005 sec (  4.586%)
 ANC generation                 ...        0 min,  0.001 sec (  0.498%)
 coordinate transformation      ...        0 min,  0.000 sec (  0.068%)
 single point calculation       ...        0 min,  0.108 sec ( 91.144%)
 optimization log               ...        0 min,  0.003 sec (  2.396%)
 hessian update                 ...        0 min,  0.000 sec (  0.067%)
 rational function              ...        0 min,  0.001 sec (  0.423%)

================
 final structure:
================
$coord
       -4.40487349063204       -2.32906357787372       -0.12640233501205      C
       -3.04005382772215        0.00006029230900        0.25904187344574      N
       -4.40474590219160        2.32915444572298       -0.12708373674280      C
       -0.43812257031684       -0.00001437555259        0.09756515162150      C
        0.94028033528407        2.26107281913136        0.04744369597692      C
        3.54832304698247        2.24861266571440       -0.02651237924067      C
        4.88233246742647       -0.00011106543440       -0.06360167295767      C
        3.54824114267011       -2.24878474500739       -0.02649096875624      C
        0.94019649568412       -2.26115129704284        0.04746093833247      C
       -6.42266707311939       -1.97126983747718        0.03659881172249      H
       -3.89237102112432       -3.70595146439972        1.32266435567987      H
       -4.03764026298043       -3.16059586113692       -1.99025579529953      H
       -6.42259240701144        1.97139952407802        0.03531010133467      H
       -4.03691312239267        3.16044693008056       -1.99092014851322      H
       -3.89268841286456        3.70622800674879        1.32197183626479      H
       -0.01660229570559        4.05861963237856        0.06535416727472      H
        4.54908030415078        4.02903268105090       -0.06302419571061      H
        6.92106060838939       -0.00014888104085       -0.12577378519043      H
        4.54893289888062       -4.02924188604656       -0.06299458261671      H
       -0.01674402731756       -4.05866764546843        0.06534250463635      H
$end
 
 Bond Distances (Angstroems)
 ---------------------------
C1-N2=1.4430         C1-H10=1.0879        C1-H11=1.0920        C1-H12=1.0974        N2-C1=1.4430         N2-C3=1.4430         
N2-C4=1.3795         C3-N2=1.4430         C3-H13=1.0879        C3-H14=1.0974        C3-H15=1.0920        C4-N2=1.3795         
C4-C5=1.4016         C4-C9=1.4016         C5-C4=1.4016         C5-C6=1.3807         C5-H16=1.0776        C6-C5=1.3807         
C6-C7=1.3837         C6-H17=1.0810        C7-C6=1.3837         C7-C8=1.3837         C7-H18=1.0794        C8-C7=1.3837         
C8-C9=1.3807         C8-H19=1.0810        C9-C4=1.4016         C9-C8=1.3807         C9-H20=1.0776        H10-C1=1.0879        
H11-C1=1.0920        H12-C1=1.0974        H13-C3=1.0879        H14-C3=1.0974        H15-C3=1.0920        H16-C5=1.0776        
H17-C6=1.0810        H18-C7=1.0794        H19-C8=1.0810        H20-C9=1.0776        
 C  H  Rav=1.0865 sigma=0.0072  Rmin=1.0776  Rmax=1.0974    11
 C  C  Rav=1.3887 sigma=0.0092  Rmin=1.3807  Rmax=1.4016     6
 N  C  Rav=1.4219 sigma=0.0299  Rmin=1.3795  Rmax=1.4430     3
 
 selected bond angles (degree)
 --------------------
H10-C1-N2=109.35               H11-C1-N2=110.26               H11-C1-H10=107.71              H12-C1-N2=112.39               
H12-C1-H10=108.35              H12-C1-H11=108.64              C3-N2-C1=117.32                C4-N2-C1=119.39                
C4-N2-C3=119.39                H13-C3-N2=109.35               H14-C3-N2=112.39               H14-C3-H13=108.35              
H15-C3-N2=110.26               H15-C3-H13=107.71              H15-C3-H14=108.64              C5-C4-N2=121.37                
C9-C4-N2=121.37                C9-C4-C5=117.23                C6-C5-C4=121.11                H16-C5-C4=120.59               
H16-C5-C6=118.30               C7-C6-C5=120.96                H17-C6-C5=119.08               H17-C6-C7=119.96               
C8-C7-C6=118.62                H18-C7-C6=120.69               H18-C7-C8=120.69               C9-C8-C7=120.96                
H19-C8-C7=119.96               H19-C8-C9=119.08               C8-C9-C4=121.11                H20-C9-C4=120.59               
H20-C9-C8=118.30               
 
 selected dihedral angles (degree)
 ---------------------------------
C3-N2-C1-H10=338.66           C3-N2-C1-H11=220.41           C3-N2-C1-H12= 99.04           C4-N2-C1-H10=181.00           
C4-N2-C1-H11= 62.74           C4-N2-C1-H12=301.37           H13-C3-N2-C1= 21.32           H13-C3-N2-C4=178.98           
H14-C3-N2-C1=260.94           H14-C3-N2-C4= 58.61           H15-C3-N2-C1=139.57           H15-C3-N2-C4=297.24           
C5-C4-N2-C1=169.51            C5-C4-N2-C3= 12.30            C9-C4-N2-C1=347.71            C9-C4-N2-C3=190.51            
C6-C5-C4-N2=177.74            C6-C5-C4-C9=359.47            H16-C5-C4-N2=357.73           H16-C5-C4-C9=179.45           
C7-C6-C5-C4=  0.26            C7-C6-C5-H16=180.28           H17-C6-C5-C4=180.02           H17-C6-C5-H16=  0.03          
C8-C7-C6-C5=  0.04            C8-C7-C6-H17=180.28           H18-C7-C6-C5=179.86           H18-C7-C6-H17=  0.10          
C9-C8-C7-C6=359.96            C9-C8-C7-H18=180.14           H19-C8-C7-C6=179.72           H19-C8-C7-H18=359.90          
C8-C9-C4-N2=182.26            C8-C9-C4-C5=  0.53            H20-C9-C4-N2=  2.27           H20-C9-C4-C5=180.55           
C4-C9-C8-C7=359.74            C4-C9-C8-H19=179.98           H20-C9-C8-C7=179.72           H20-C9-C8-H19=359.97          
           -------------------------------------------------
          |                Final Singlepoint                |
           -------------------------------------------------

          ...................................................
          :                      SETUP                      :
          :.................................................:
          :  # basis functions                  47          :
          :  # atomic orbitals                  47          :
          :  # shells                           29          :
          :  # electrons                        48          :
          :  max. iterations                   250          :
          :  Hamiltonian                  GFN2-xTB          :
          :  restarted?                      false          :
          :  GBSA solvation                  false          :
          :  PC potential                    false          :
          :  electronic temp.          300.0000000     K    :
          :  accuracy                    1.0000000          :
          :  -> integral cutoff          0.2500000E+02      :
          :  -> integral neglect         0.1000000E-07      :
          :  -> SCF convergence          0.1000000E-05 Eh   :
          :  -> wf. convergence          0.1000000E-03 e    :
          :  Broyden damping             0.4000000          :
          :  net charge                          0          :
          :  unpaired electrons                  0          :
          ...................................................

 iter      E             dE          RMSdq      gap      omega  full diag
   1    -26.0836377 -0.260836E+02  0.665E-05    3.68       0.0  T
   2    -26.0836377 -0.287770E-11  0.373E-05    3.68     599.2  T
   3    -26.0836377  0.151701E-11  0.130E-05    3.68    1720.2  T

   *** convergence criteria satisfied after 3 iterations ***

         #    Occupation            Energy/Eh            Energy/eV
      -------------------------------------------------------------
         1        2.0000           -0.6488408             -17.6559
       ...           ...                  ...                  ...
        18        2.0000           -0.4594455             -12.5021
        19        2.0000           -0.4549333             -12.3794
        20        2.0000           -0.4181350             -11.3780
        21        2.0000           -0.4087753             -11.1233
        22        2.0000           -0.4046928             -11.0123
        23        2.0000           -0.3861790             -10.5085
        24        2.0000           -0.3389136              -9.2223 (HOMO)
        25                         -0.2036971              -5.5429 (LUMO)
        26                         -0.1924701              -5.2374
        27                         -0.0702362              -1.9112
        28                          0.0108149               0.2943
        29                          0.1034843               2.8160
       ...                                ...                  ...
        47                          0.6851703              18.6444
      -------------------------------------------------------------
                  HL-Gap            0.1352165 Eh            3.6794 eV
             Fermi-level           -0.2713053 Eh           -7.3826 eV

 SCC (total)                   0 d,  0 h,  0 min,  0.007 sec
 SCC setup                      ...        0 min,  0.000 sec (  1.511%)
 Dispersion                     ...        0 min,  0.000 sec (  0.764%)
 classical contributions        ...        0 min,  0.000 sec (  0.273%)
 integral evaluation            ...        0 min,  0.002 sec ( 22.912%)
 iterations                     ...        0 min,  0.001 sec ( 15.292%)
 molecular gradient             ...        0 min,  0.004 sec ( 57.952%)
 printout                       ...        0 min,  0.000 sec (  1.063%)

         :::::::::::::::::::::::::::::::::::::::::::::::::::::
         ::                     SUMMARY                     ::
         :::::::::::::::::::::::::::::::::::::::::::::::::::::
         :: total energy             -25.646091868096 Eh    ::
         :: gradient norm              0.000045000075 Eh/a0 ::
         :: HOMO-LUMO gap              3.679427065916 eV    ::
         ::.................................................::
         :: SCC energy               -26.083589228703 Eh    ::
         :: -> isotropic ES            0.005643529987 Eh    ::
         :: -> anisotropic ES          0.006943534255 Eh    ::
         :: -> anisotropic XC          0.016420097289 Eh    ::
         :: -> dispersion             -0.015866492483 Eh    ::
         :: repulsion energy           0.437497360607 Eh    ::
         :: add. restraining           0.000000000000 Eh    ::
         :: total charge              -0.000000000000 e     ::
         :::::::::::::::::::::::::::::::::::::::::::::::::::::

           ------------------------------------------------- 
          |                Numerical Hessian                |
           ------------------------------------------------- 
step length          :   0.00500
SCC accuracy         :   0.30000
Hessian scale factor :   1.00000
frozen atoms in %    :   0.00000    0
RMS gradient         :   0.00005
estimated CPU  time      0.02 min
estimated wall time      0.02 min

writing file <hessian>.

 projected vibrational frequencies (cm⁻¹)
eigval :       -0.00    -0.00    -0.00     0.00     0.00     0.00
eigval :       30.69   101.56   141.56   170.68   253.98   269.78
eigval :      381.28   397.15   449.01   478.92   534.08   588.53
eigval :      652.63   740.90   755.72   844.39   857.29   917.57
eigval :      920.72   958.06   999.82  1040.60  1093.51  1096.42
eigval :     1103.48  1137.33  1174.42  1185.61  1223.99  1272.28
eigval :     1307.04  1335.90  1354.08  1413.13  1435.76  1442.28
eigval :     1476.40  1483.06  1500.44  1503.48  1514.48  1574.96
eigval :     1610.64  2897.25  2900.49  2973.36  2974.27  3027.83
eigval :     3035.04  3067.32  3068.73  3090.36  3109.77  3112.07
           -------------------------------------------------
          |                Property Printout                |
           -------------------------------------------------

    * Orbital Energies and Occupations

         #    Occupation            Energy/Eh            Energy/eV
      -------------------------------------------------------------
         1        2.0000           -0.6488409             -17.6559
       ...           ...                  ...                  ...
        12        2.0000           -0.4973007             -13.5322
        13        2.0000           -0.4875553             -13.2671
        14        2.0000           -0.4865373             -13.2394
        15        2.0000           -0.4732351             -12.8774
        16        2.0000           -0.4666616             -12.6985
        17        2.0000           -0.4627073             -12.5909
        18        2.0000           -0.4594455             -12.5021
        19        2.0000           -0.4549333             -12.3794
        20        2.0000           -0.4181349             -11.3780
        21        2.0000           -0.4087753             -11.1233
        22        2.0000           -0.4046928             -11.0123
        23        2.0000           -0.3861791             -10.5085
        24        2.0000           -0.3389136              -9.2223 (HOMO)
        25                         -0.2036972              -5.5429 (LUMO)
        26                         -0.1924701              -5.2374
        27                         -0.0702362              -1.9112
        28                          0.0108149               0.2943
        29                          0.1034842               2.8159
        30                          0.1146561               3.1200
        31                          0.1180900               3.2134
        32                          0.1545753               4.2062
        33                          0.1554582               4.2302
        34                          0.1798372               4.8936
        35                          0.1896622               5.1610
       ...                                ...                  ...
        47                          0.6851704              18.6444
      -------------------------------------------------------------
                  HL-Gap            0.1352164 Eh            3.6794 eV
             Fermi-level           -0.2713054 Eh           -7.3826 eV

     #   Z          covCN         q      C6AA      α(0)
     1   6 C        3.697    -0.040    21.456     6.625
     2   7 N        2.733    -0.101    23.224     7.157
     3   6 C        3.697    -0.040    21.456     6.625
     4   6 C        2.914     0.061    26.625     8.461
     5   6 C        2.924    -0.064    29.581     8.919
     6   6 C        2.920    -0.032    28.796     8.800
     7   6 C        2.917    -0.048    29.204     8.862
     8   6 C        2.920    -0.032    28.796     8.800
     9   6 C        2.924    -0.064    29.581     8.919
    10   1 H        0.925     0.045     2.382     2.413
    11   1 H        0.924     0.047     2.354     2.399
    12   1 H        0.924     0.035     2.523     2.484
    13   1 H        0.925     0.045     2.382     2.413
    14   1 H        0.924     0.035     2.523     2.484
    15   1 H        0.924     0.047     2.354     2.399
    16   1 H        0.926     0.022     2.696     2.568
    17   1 H        0.926     0.020     2.726     2.582
    18   1 H        0.926     0.019     2.750     2.593
    19   1 H        0.926     0.020     2.726     2.582
    20   1 H        0.926     0.022     2.696     2.568

 Mol. C6AA /au·bohr⁶  :       4065.640463
 Mol. C8AA /au·bohr⁸  :      93792.944226
 Mol. α(0) /au        :        100.655645


Wiberg/Mayer (AO) data.
largest (>0.10) Wiberg bond orders for each atom

 ---------------------------------------------------------------------------
     #   Z sym  total        # sym  WBO       # sym  WBO       # sym  WBO
 ---------------------------------------------------------------------------
     1   6 C    3.981 --     2 N    1.011    10 H    0.980    11 H    0.976
                            12 H    0.975
     2   7 N    3.386 --     4 C    1.151     1 C    1.011     3 C    1.011
     3   6 C    3.981 --     2 N    1.011    13 H    0.980    15 H    0.976
                            14 H    0.975
     4   6 C    3.971 --     9 C    1.335     5 C    1.335     2 N    1.151
     5   6 C    3.987 --     6 C    1.465     4 C    1.335    16 H    0.967
                             8 C    0.102
     6   6 C    3.993 --     5 C    1.465     7 C    1.425    17 H    0.972
                             9 C    0.102
     7   6 C    3.991 --     8 C    1.425     6 C    1.425    18 H    0.972
     8   6 C    3.993 --     9 C    1.465     7 C    1.425    19 H    0.972
                             5 C    0.102
     9   6 C    3.987 --     8 C    1.465     4 C    1.335    20 H    0.967
                             6 C    0.102
    10   1 H    0.998 --     1 C    0.980
    11   1 H    0.998 --     1 C    0.976
    12   1 H    0.999 --     1 C    0.975
    13   1 H    0.998 --     3 C    0.980
    14   1 H    0.999 --     3 C    0.975
    15   1 H    0.998 --     3 C    0.976
    16   1 H    0.999 --     5 C    0.967
    17   1 H    0.999 --     6 C    0.972
    18   1 H    1.000 --     7 C    0.972
    19   1 H    0.999 --     8 C    0.972
    20   1 H    0.999 --     9 C    0.967
 ---------------------------------------------------------------------------

Topologies differ in total number of bonds
Writing topology from bond orders to xtbtopo.mol

molecular dipole:
                 x           y           z       tot (Debye)
 q only:       -0.863       0.000      -0.023
   full:       -0.909       0.000      -0.127       2.332
molecular quadrupole (traceless):
                xx          xy          yy          xz          yz          zz
 q only:        2.110       0.000       0.378       0.100      -0.000      -2.488
  q+dip:        3.716       0.000       1.941       0.345      -0.000      -5.657
   full:        2.771       0.000       1.069       0.530      -0.000      -3.840

           -------------------------------------------------
          |                Geometry Summary                 |
           -------------------------------------------------

      molecular mass/u    :      121.1799387
   center of mass at/Å    :       -0.0000532      -0.0000119       0.0004290
  moments of inertia/u·Å² :        0.1426156E+03   0.4081321E+03   0.5434071E+03
rotational constants/cm⁻¹ :        0.1182033E+00   0.4130436E-01   0.3102210E-01

 * 20 selected distances

     #   Z          #   Z                                           value/Å
     1   6 C        2   7 N                                       1.4430265
     2   7 N        3   6 C                                       1.4430303 (max)
     2   7 N        4   6 C                                       1.3795318
     4   6 C        5   6 C                                       1.4015729
     5   6 C        6   6 C                                       1.3806874
     6   6 C        7   6 C                                       1.3837469
     7   6 C        8   6 C                                       1.3837464
     4   6 C        9   6 C                                       1.4015721
     8   6 C        9   6 C                                       1.3806881
     1   6 C       10   1 H                                       1.0878521
     1   6 C       11   1 H                                       1.0919882
     1   6 C       12   1 H                                       1.0973580
     3   6 C       13   1 H                                       1.0878506
     3   6 C       14   1 H                                       1.0973552
     3   6 C       15   1 H                                       1.0919912
     5   6 C       16   1 H                                       1.0776419 (min)
     6   6 C       17   1 H                                       1.0809660
     7   6 C       18   1 H                                       1.0793501
     8   6 C       19   1 H                                       1.0809660
     9   6 C       20   1 H                                       1.0776419

 * 3 distinct bonds (by element types)

   Z      Z             #   av. dist./Å        max./Å        min./Å
   1 H    6 C          11     1.0864510     1.0973580     1.0776419
   6 C    6 C           6     1.3886690     1.4015729     1.3806874
   6 C    7 N           3     1.4218629     1.4430303     1.3795318

           -------------------------------------------------
          |               Frequency Printout                |
           -------------------------------------------------
 projected vibrational frequencies (cm⁻¹)
eigval :       -0.00    -0.00    -0.00     0.00     0.00     0.00
eigval :       30.69   101.56   141.56   170.68   253.98   269.78
eigval :      381.28   397.15   449.01   478.92   534.08   588.53
eigval :      652.63   740.90   755.72   844.39   857.29   917.57
eigval :      920.72   958.06   999.82  1040.60  1093.51  1096.42
eigval :     1103.48  1137.33  1174.42  1185.61  1223.99  1272.28
eigval :     1307.04  1335.90  1354.08  1413.13  1435.76  1442.28
eigval :     1476.40  1483.06  1500.44  1503.48  1514.48  1574.96
eigval :     1610.64  2897.25  2900.49  2973.36  2974.27  3027.83
eigval :     3035.04  3067.32  3068.73  3090.36  3109.77  3112.07
 reduced masses (amu)
   1: 11.14   2:  9.77   3: 10.06   4: 10.86   5: 10.53   6: 10.92   7:  7.87   8:  9.33
   9:  3.98  10:  3.60  11:  8.91  12:  7.85  13:  8.97  14:  9.35  15:  9.91  16:  9.44
  17: 10.00  18: 11.18  19:  9.94  20:  4.48  21: 10.60  22:  3.42  23:  3.67  24:  3.89
  25:  2.79  26: 10.92  27:  9.06  28:  4.51  29:  4.18  30:  7.02  31:  3.21  32:  4.75
  33:  5.38  34:  1.38  35:  1.78  36:  8.99  37:  5.51  38: 11.82  39: 10.11  40:  2.63
  41:  2.79  42:  8.89  43:  1.57  44:  2.47  45:  1.68  46:  8.52  47:  1.73  48: 11.40
  49: 11.48  50:  1.76  51:  1.78  52:  1.65  53:  1.67  54:  1.65  55:  1.66  56:  1.76
  57:  1.81  58:  1.88  59:  1.83  60:  1.84
 IR intensities (km·mol⁻¹)
   1:  0.04   2:  0.24   3:  0.22   4:  0.15   5:  0.38   6:  0.14   7:  0.03   8: 10.83
   9:  0.94  10:  0.04  11:  9.08  12:  0.37  13:  0.01  14:  1.04  15:  0.52  16:  0.81
  17:  0.81  18:  0.04  19:  0.24  20: 42.83  21:  9.07  22:  0.00  23:  0.50  24:  0.02
  25:  0.00  26:  3.16  27:  4.33  28: 11.92  29: 25.22  30:  0.08  31:  0.14  32:  1.07
  33: 19.65  34:  0.30  35: 10.56  36: 13.35  37:  7.03  38:  6.78  39:148.79  40:  0.01
  41:  3.02  42:  6.55  43:  0.84  44: 19.79  45:  0.49  46:133.93  47: 41.31  48:  3.19
  49:164.29  50: 23.83  51: 90.93  52: 11.60  53: 41.45  54:  3.02  55: 59.86  56:  7.56
  57: 53.17  58: 81.68  59: 86.40  60:  2.79
 Raman intensities (Ä⁴*amu⁻¹)
   1:  0.00   2:  0.00   3:  0.00   4:  0.00   5:  0.00   6:  0.00   7:  0.00   8:  0.00
   9:  0.00  10:  0.00  11:  0.00  12:  0.00  13:  0.00  14:  0.00  15:  0.00  16:  0.00
  17:  0.00  18:  0.00  19:  0.00  20:  0.00  21:  0.00  22:  0.00  23:  0.00  24:  0.00
  25:  0.00  26:  0.00  27:  0.00  28:  0.00  29:  0.00  30:  0.00  31:  0.00  32:  0.00
  33:  0.00  34:  0.00  35:  0.00  36:  0.00  37:  0.00  38:  0.00  39:  0.00  40:  0.00
  41:  0.00  42:  0.00  43:  0.00  44:  0.00  45:  0.00  46:  0.00  47:  0.00  48:  0.00
  49:  0.00  50:  0.00  51:  0.00  52:  0.00  53:  0.00  54:  0.00  55:  0.00  56:  0.00
  57:  0.00  58:  0.00  59:  0.00  60:  0.00
 output can be read by thermo (or use thermo option).
 writing <g98.out> molden fake output.
 recommended (thermochemical) frequency scaling factor: 1.0
           -------------------------------------------------
          |             Thermodynamic Functions             |
           -------------------------------------------------

Molecule has the following symmetry elements: (sigma) 
It seems to be the Cs point group
cs  symmetry found (for desy threshold:  0.10E+00) used in thermo

          ...................................................
          :                      SETUP                      :
          :.................................................:
          :  # frequencies                          54      :
          :  # imaginary freq.                       0      :
          :  linear?                             false      :
          :  only rotor calc.                    false      :
          :  symmetry                               cs      :
          :  rotational number                       1      :
          :  scaling factor                  1.0000000      :
          :  rotor cutoff                    0.0000000 cm⁻¹ :
          :  imag. cutoff                 -100.0000000 cm⁻¹ :
          :.................................................:

    mode    ω/cm⁻¹     T·S(HO)/kcal·mol⁻¹    T·S(FR)/kcal·mol⁻¹   T·S(vib)
   ------------------------------------------------------------------------
       1     30.69    -1.72460 (100.00%)    -1.20070 (  0.00%)    -1.72460
       2    101.56    -1.02094 (100.00%)    -0.84650 (  0.00%)    -1.02094
       3    141.56    -0.82966 (100.00%)    -0.74816 (  0.00%)    -0.82966
       4    170.68    -0.72389 (100.00%)    -0.69275 (  0.00%)    -0.72389
       5    253.98    -0.50768 (100.00%)    -0.57503 (  0.00%)    -0.50768
       6    269.78    -0.47633 (100.00%)    -0.55716 (  0.00%)    -0.47633
   ------------------------------------------------------------------------

   temp. (K)  partition function   enthalpy   heat capacity  entropy
                                   cal/mol     cal/K/mol   cal/K/mol   J/K/mol
 298.15  VIB   330.                 3910.933     27.775     24.640
         ROT  0.430E+06              888.752      2.981     28.757
         INT  0.142E+09             4799.685     30.756     53.397
         TR   0.129E+28             1481.254      4.968     40.272
         TOT                        6280.9394    35.7242    93.6693   391.9122

       T/K    H(0)-H(T)+PV         H(T)/Eh          T*S/Eh         G(T)/Eh
   ------------------------------------------------------------------------
    298.15    0.100093E-01    0.178548E+00    0.445053E-01    0.134043E+00
   ------------------------------------------------------------------------

         :::::::::::::::::::::::::::::::::::::::::::::::::::::
         ::                  THERMODYNAMIC                  ::
         :::::::::::::::::::::::::::::::::::::::::::::::::::::
         :: total free energy         -25.512048721712 Eh   ::
         ::.................................................::
         :: total energy              -25.646091868100 Eh   ::
         :: zero point energy           0.168539122904 Eh   ::
         :: G(RRHO) w/o ZPVE           -0.034495976516 Eh   ::
         :: G(RRHO) contrib.            0.134043146388 Eh   ::
         :::::::::::::::::::::::::::::::::::::::::::::::::::::

optimized geometry written to: xtbopt.coord


           -------------------------------------------------
          | TOTAL ENERGY              -25.646091868100 Eh   |
          | TOTAL ENTHALPY            -25.467543431118 Eh   |
          | TOTAL FREE ENERGY         -25.512048721712 Eh   |
          | GRADIENT NORM               0.000045034598 Eh/α |
          | HOMO-LUMO GAP               3.679426058447 eV   |
           -------------------------------------------------

------------------------------------------------------------------------
 * finished run on 2025/04/15 at 20:06:24.038     
------------------------------------------------------------------------
 total:
 * wall-time:     0 d,  0 h,  0 min,  1.159 sec
 *  cpu-time:     0 d,  0 h,  0 min,  1.125 sec
 * ratio c/w:     0.970 speedup
 SCF:
 * wall-time:     0 d,  0 h,  0 min,  0.046 sec
 *  cpu-time:     0 d,  0 h,  0 min,  0.026 sec
 * ratio c/w:     0.565 speedup
 ANC optimizer:
 * wall-time:     0 d,  0 h,  0 min,  0.129 sec
 *  cpu-time:     0 d,  0 h,  0 min,  0.126 sec
 * ratio c/w:     0.973 speedup
 analytical hessian:
 * wall-time:     0 d,  0 h,  0 min,  0.960 sec
 *  cpu-time:     0 d,  0 h,  0 min,  0.959 sec
 * ratio c/w:     0.999 speedup

