10
 energy: -13.519639508003 gnorm: 0.027797983006 xtb: 6.7.1 (edcfbbe)
C            1.48509025677058       -0.37311890442069        0.42373564469779
C            0.66895097117982        0.53850190748809       -0.47902577722243
C           -0.81830769643075        0.34338981458693       -0.36394972788744
O           -1.35081754857020       -0.45664005653388        0.36840232135175
H            1.28261498259970       -1.42284987615320        0.19737189753882
H            1.22477289280683       -0.21171275587624        1.47273331223606
H            2.55489638301732       -0.18847501016103        0.29694223216995
H            0.86744442462711        1.60252996067588       -0.27902496757887
H            0.92676765234882        0.40580389051724       -1.54090219333304
H           -1.43137175726046        1.00612455969007       -1.02042431421168
10
 energy: -13.520253941420 gnorm: 0.008203356351 xtb: 6.7.1 (edcfbbe)
C            1.47615645750485       -0.36860419035087        0.41906106881720
C            0.67028898460990        0.54496090456248       -0.48517754790669
C           -0.80915569574919        0.33366824529829       -0.35457391489854
O           -1.33944581157042       -0.45989937168351        0.37215165093757
H            1.26699071455172       -1.41075116599445        0.18458475192388
H            1.20890898265381       -0.19918370681701        1.46054592548049
H            2.54176872734131       -0.18662255890442        0.29479954417210
H            0.87366581562395        1.60062173402528       -0.26662978636002
H            0.93349816800239        0.39349132971070       -1.53939186816823
H           -1.41263578187952        0.99587230996669       -1.00951139623684
10
 energy: -13.520295554958 gnorm: 0.002013953137 xtb: 6.7.1 (edcfbbe)
C            1.47850326364674       -0.36831778195037        0.41883914218573
C            0.66851065061170        0.54627184752556       -0.48627489747489
C           -0.81040786450938        0.33310211426179       -0.35328526585941
O           -1.34253849674482       -0.45830768788742        0.37065644699726
H            1.26885569928447       -1.40866703357419        0.18401468389232
H            1.21096661420380       -0.19865370326681        1.45857637517944
H            2.54327653269986       -0.18807939146120        0.29611330365202
H            0.87104273601470        1.59873745673401       -0.26411021973999
H            0.93054101934257        0.39097276452924       -1.53761315445314
H           -1.40870959346086        0.99649494490257       -1.01105798661843
10
 energy: -13.520298410440 gnorm: 0.000640391886 xtb: 6.7.1 (edcfbbe)
C            1.47923005003916       -0.36873124524819        0.41940065123040
C            0.66834085013555        0.54621291633093       -0.48698624891680
C           -0.81094045840434        0.33170031845427       -0.35421610367149
O           -1.34415525304245       -0.45820408678125        0.37057259623322
H            1.27017743314078       -1.40903501027602        0.18407601270352
H            1.21118702907765       -0.19863115135608        1.45889624909748
H            2.54352653469204       -0.18682908365358        0.29596705412667
H            0.87005255077308        1.59795691453893       -0.26412870919144
H            0.93042811573093        0.39001984693113       -1.53743885728956
H           -1.40780629105361        0.99909411087304       -1.01028421656109
10
 energy: -13.520293803828 gnorm: 0.001842119590 xtb: 6.7.1 (edcfbbe)
C            1.48007259417753       -0.36952180247878        0.41979894498855
C            0.66816069287209        0.54718716896251       -0.48614933600963
C           -0.81184284659136        0.33440860794165       -0.35117798657927
O           -1.34595478290698       -0.45786272898918        0.37061430070695
H            1.27018773784258       -1.40959197310517        0.18374220965737
H            1.21305221769985       -0.19914526587460        1.45957876581077
H            2.54398467492762       -0.18671265383495        0.29399856318767
H            0.87071183365540        1.59807753653385       -0.26256980918028
H            0.92881490768549        0.39043392452778       -1.53634425981611
H           -1.40714646827343        0.99628071613007       -1.01563296500509
10
 energy: -13.520299325861 gnorm: 0.000143431528 xtb: 6.7.1 (edcfbbe)
C            1.47957206710734       -0.36899040617165        0.41952860837603
C            0.66828324969411        0.54627671901518       -0.48652169629704
C           -0.81135150842935        0.33276195115702       -0.35344635272634
O           -1.34471955188716       -0.45790367750073        0.37052084370467
H            1.27038182366425       -1.40930199795266        0.18400952401525
H            1.21181719581944       -0.19895526950765        1.45917906231641
H            2.54383175273910       -0.18664933310858        0.29535217684473
H            0.87036482601044        1.59798891824916       -0.26360252443270
H            0.93000836614556        0.39006832373127       -1.53711701140251
H           -1.40814765977495        0.99825830190181       -1.01204420263758
10
 energy: -13.520299341130 gnorm: 0.000078118281 xtb: 6.7.1 (edcfbbe)
C            1.47946093070677       -0.36900820482960        0.41953313610896
C            0.66832129002806        0.54638713196439       -0.48668304120584
C           -0.81125532825607        0.33259829805238       -0.35338973587938
O           -1.34463288888679       -0.45790839372740        0.37070617220643
H            1.27040976575702       -1.40929291546468        0.18391832589726
H            1.21162582743102       -0.19902288861484        1.45913867123640
H            2.54366032555719       -0.18657835189957        0.29546524778659
H            0.87033989425335        1.59802064776484       -0.26370917677460
H            0.93001516445457        0.39008911279351       -1.53719054487135
H           -1.40790441995634        0.99826909377415       -1.01193062674354
