      -----------------------------------------------------------      
     |                   =====================                   |     
     |                           x T B                           |     
     |                   =====================                   |     
     |                         S. Grimme                         |     
     |          Mulliken Center for Theoretical Chemistry        |     
     |                    University of Bonn                     |     
      -----------------------------------------------------------      

   * xtb version 6.7.1 (edcfbbe) compiled by 'albert@albert-system' on 2024-07-22

   xtb is free software: you can redistribute it and/or modify it under
   the terms of the GNU Lesser General Public License as published by
   the Free Software Foundation, either version 3 of the License, or
   (at your option) any later version.
   
   xtb is distributed in the hope that it will be useful,
   but WITHOUT ANY WARRANTY; without even the implied warranty of
   MERCHANTABILITY or FITNESS FOR A PARTICULAR PURPOSE.  See the
   GNU Lesser General Public License for more details.
   
   Cite this work as:
   * C. Bannwarth, E. Caldeweyher, S. Ehlert, A. Hansen, P. Pracht,
     J. Seibert, S. Spicher, S. Grimme, WIREs Comput. Mol. Sci., 2020, 11,
     e01493. DOI: 10.1002/wcms.1493
   
   for GFN2-xTB:
   * C. Bannwarth, S. Ehlert and S. Grimme., J. Chem. Theory Comput., 2019,
     15, 1652-1671. DOI: 10.1021/acs.jctc.8b01176
   for GFN1-xTB:
   * S. Grimme, C. Bannwarth, P. Shushkov, J. Chem. Theory Comput., 2017,
     13, 1989-2009. DOI: 10.1021/acs.jctc.7b00118
   for GFN0-xTB:
   * P. Pracht, E. Caldeweyher, S. Ehlert, S. Grimme, ChemRxiv, 2019, preprint.
     DOI: 10.26434/chemrxiv.8326202.v1
   for GFN-FF:
   * S. Spicher and S. Grimme, Angew. Chem. Int. Ed., 2020, 59, 15665-15673.
     DOI: 10.1002/anie.202004239
   
   for ALPB and GBSA implicit solvation:
   * S. Ehlert, M. Stahn, S. Spicher, S. Grimme, J. Chem. Theory Comput.,
     2021, 17, 4250-4261. DOI: 10.1021/acs.jctc.1c00471
   
   for ddCOSMO and CPCM-X implicit solvation:
   * M. Stahn, S. Ehlert, S. Grimme, J. Phys. Chem. A,
     2023, XX, XXXX-XXXX. DOI: 10.1021/acs.jpca.3c04382
   
   for DFT-D4:
   * E. Caldeweyher, C. Bannwarth and S. Grimme, J. Chem. Phys., 2017,
     147, 034112. DOI: 10.1063/1.4993215
   * E. Caldeweyher, S. Ehlert, A. Hansen, H. Neugebauer, S. Spicher,
     C. Bannwarth and S. Grimme, J. Chem. Phys., 2019, 150, 154122.
     DOI: 10.1063/1.5090222
   * E. Caldeweyher, J.-M. Mewes, S. Ehlert and S. Grimme, Phys. Chem. Chem. Phys.
     2020, 22, 8499-8512. DOI: 10.1039/D0CP00502A
   
   for sTDA-xTB:
   * S. Grimme and C. Bannwarth, J. Chem. Phys., 2016, 145, 054103.
     DOI: 10.1063/1.4959605
   
   in the mass-spec context:
   * V. Asgeirsson, C. Bauer and S. Grimme, Chem. Sci., 2017, 8, 4879.
     DOI: 10.1039/c7sc00601b
   * J. Koopman and S. Grimme, ACS Omega 2019, 4, 12, 15120-15133.
     DOI: 10.1021/acsomega.9b02011
   
   for metadynamics refer to:
   * S. Grimme, J. Chem. Theory Comput., 2019, 155, 2847-2862
     DOI: 10.1021/acs.jctc.9b00143
   
   for SPH calculations refer to:
   * S. Spicher and S. Grimme, J. Chem. Theory Comput., 2021, 17, 1701-1714
     DOI: 10.1021/acs.jctc.0c01306
   
   for ONIOM refer to:
   * C. Plett, A. Katbashev, S. Ehlert, S. Grimme, M. Bursch,
     Phys. Chem. Chem. Phys., 2023, 25, 17860-17868. DOI: 10.1039/D3CP02178E
   
   for DIPRO refer to:
   * J. Kohn, N. Gildemeister, S. Grimme, D. Fazzi, A. Hansen,
     J. Chem. Phys., 2023, just accepted.
   
   for PTB refer to:
   * S. Grimme, M. Mueller, A. Hansen, J. Chem. Phys., 2023, 158, 124111.
     DOI: 10.1063/5.0137838
   
   with help from (in alphabetical order)
   P. Atkinson, C. Bannwarth, F. Bohle, G. Brandenburg, E. Caldeweyher
   M. Checinski, S. Dohm, S. Ehlert, S. Ehrlich, I. Gerasimov, C. Hölzer
   A. Katbashev, J. Kohn, J. Koopman, C. Lavigne, S. Lehtola, F. März, M. Müller,
   F. Musil, H. Neugebauer, J. Pisarek, C. Plett, P. Pracht, F. Pultar,
   J. Seibert, P. Shushkov, S. Spicher, M. Stahn, M. Steiner, T. Strunk,
   J. Stückrath, T. Rose, and J. Unsleber
   
 * started run on 2025/04/15 at 20:26:55.105     
   ID    Z sym.   atoms
    1    6 C      1-6
    2    1 H      7-20

           -------------------------------------------------
          |                Calculation Setup                |
           -------------------------------------------------

          program call               : /software/projects/pawsey0265/mwang1/xtb/bin/xtb xtb_rrho.coord --gfn2 --ohess vtight --chrg 0 --enso --norestart -I rrho-xcontrol-inp --parallel 1
          hostname                   : nid002800
          coordinate file            : xtb_rrho.coord
          omp threads                :                     1


           -------------------------------------------------
          |                 G F N 2 - x T B                 |
           -------------------------------------------------

        Reference                      10.1021/acs.jctc.8b01176
      * Hamiltonian:
        H0-scaling (s, p, d)           1.850000    2.230000    2.230000
        zeta-weighting                 0.500000
      * Dispersion:
        s8                             2.700000
        a1                             0.520000
        a2                             5.000000
        s9                             5.000000
      * Repulsion:
        kExp                           1.500000    1.000000
        rExp                           1.000000
      * Coulomb:
        alpha                          2.000000
        third order                    shell-resolved
        anisotropic                    true
        a3                             3.000000
        a5                             4.000000
        cn-shift                       1.200000
        cn-exp                         4.000000
        max-rad                        5.000000


          ...................................................
          :                      SETUP                      :
          :.................................................:
          :  # basis functions                  38          :
          :  # atomic orbitals                  38          :
          :  # shells                           26          :
          :  # electrons                        38          :
          :  max. iterations                   250          :
          :  Hamiltonian                  GFN2-xTB          :
          :  restarted?                      false          :
          :  GBSA solvation                  false          :
          :  PC potential                    false          :
          :  electronic temp.          300.0000000     K    :
          :  accuracy                    1.0000000          :
          :  -> integral cutoff          0.2500000E+02      :
          :  -> integral neglect         0.1000000E-07      :
          :  -> SCF convergence          0.1000000E-05 Eh   :
          :  -> wf. convergence          0.1000000E-03 e    :
          :  Broyden damping             0.4000000          :
          :  net charge                          0          :
          :  unpaired electrons                  0          :
          ...................................................

 iter      E             dE          RMSdq      gap      omega  full diag
   1    -20.2335151 -0.202335E+02  0.239E+00   13.01       0.0  T
   2    -20.2846763 -0.511612E-01  0.125E+00   12.85       1.0  T
   3    -20.2854325 -0.756187E-03  0.663E-01   12.84       1.0  T
   4    -20.2855654 -0.132907E-03  0.137E-01   12.83       1.0  T
   5    -20.2856564 -0.910115E-04  0.598E-02   12.83       1.0  T
   6    -20.2856566 -0.147122E-06  0.227E-03   12.83       9.9  T
   7    -20.2856566 -0.129798E-07  0.870E-04   12.83      25.7  T
   8    -20.2856566 -0.109052E-08  0.155E-04   12.83     143.9  T

   *** convergence criteria satisfied after 8 iterations ***

         #    Occupation            Energy/Eh            Energy/eV
      -------------------------------------------------------------
         1        2.0000           -0.6231538             -16.9569
       ...           ...                  ...                  ...
        13        2.0000           -0.4551682             -12.3858
        14        2.0000           -0.4489660             -12.2170
        15        2.0000           -0.4466928             -12.1551
        16        2.0000           -0.4300905             -11.7034
        17        2.0000           -0.4208701             -11.4525
        18        2.0000           -0.4195693             -11.4171
        19        2.0000           -0.4112703             -11.1912 (HOMO)
        20                          0.0602801               1.6403 (LUMO)
        21                          0.0791615               2.1541
        22                          0.1013461               2.7578
        23                          0.1044731               2.8429
        24                          0.1260690               3.4305
       ...                                ...                  ...
        38                          0.2941267               8.0036
      -------------------------------------------------------------
                  HL-Gap            0.4715504 Eh           12.8315 eV
             Fermi-level           -0.1754951 Eh           -4.7755 eV

 SCC (total)                   0 d,  0 h,  0 min,  0.033 sec
 SCC setup                      ...        0 min,  0.000 sec (  0.630%)
 Dispersion                     ...        0 min,  0.000 sec (  0.344%)
 classical contributions        ...        0 min,  0.000 sec (  0.114%)
 integral evaluation            ...        0 min,  0.001 sec (  4.003%)
 iterations                     ...        0 min,  0.027 sec ( 84.304%)
 molecular gradient             ...        0 min,  0.003 sec ( 10.134%)
 printout                       ...        0 min,  0.000 sec (  0.412%)

         :::::::::::::::::::::::::::::::::::::::::::::::::::::
         ::                     SUMMARY                     ::
         :::::::::::::::::::::::::::::::::::::::::::::::::::::
         :: total energy             -19.993947439300 Eh    ::
         :: gradient norm              0.020953734471 Eh/a0 ::
         :: HOMO-LUMO gap             12.831540193427 eV    ::
         ::.................................................::
         :: SCC energy               -20.285602277810 Eh    ::
         :: -> isotropic ES            0.004348989908 Eh    ::
         :: -> anisotropic ES          0.007717875534 Eh    ::
         :: -> anisotropic XC          0.012862815962 Eh    ::
         :: -> dispersion             -0.012038254518 Eh    ::
         :: repulsion energy           0.291654838510 Eh    ::
         :: add. restraining           0.000000000000 Eh    ::
         :: total charge               0.000000000000 e     ::
         :::::::::::::::::::::::::::::::::::::::::::::::::::::

      ----------------------------------------------------------- 
     |                   =====================                   |
     |                        A N C O P T                        |
     |                   =====================                   |
     |               Approximate Normal Coordinate               |
     |                Rational Function Optimizer                |
      ----------------------------------------------------------- 
      ----------------------------------------------------------- 
     |                   =====================                   |
     |                        A N C O P T                        |
     |                   =====================                   |
     |               Approximate Normal Coordinate               |
     |                Rational Function Optimizer                |
      ----------------------------------------------------------- 

          ...................................................
          :                      SETUP                      :
          :.................................................:
          :   optimization level         verytight          :
          :   max. optcycles                   400          :
          :   ANC micro-cycles                  20          :
          :   degrees of freedom                54          :
          :.................................................:
          :   RF solver                   davidson          :
          :   write xtbopt.log                true          :
          :   linear?                        false          :
          :   energy convergence         0.1000000E-06 Eh   :
          :   grad. convergence          0.2000000E-03 Eh/α :
          :   maxmium RF displ.          1.0000000          :
          :   Hlow (freq-cutoff)         0.1000000E-01      :
          :   Hmax (freq-cutoff)         5.0000000          :
          :   S6 in model hess.         20.0000000          :
          ...................................................

generating ANC from exact Hessian ...
Using Lindh-Hessian (1995)
 Shifting diagonal of input Hessian by   8.295838001585563E-003
 Lowest  eigenvalues of input Hessian
    0.000000    0.000000    0.000000    0.000000    0.000000    0.000000
    0.010000    0.013235    0.015280    0.016198    0.016824    0.017008
    0.017661    0.021163    0.022048    0.024367    0.032104    0.057398
 Highest eigenvalues
    1.105329    1.147584    1.177224    1.211595    1.259063    1.259916
 

........................................................................
.............................. CYCLE    1 ..............................
........................................................................

 iter      E             dE          RMSdq      gap      omega  full diag
   1    -20.2856566 -0.202857E+02  0.274E-05   12.83       0.0  T
   2    -20.2856566 -0.624212E-11  0.958E-06   12.83    2335.2  T
   3    -20.2856566 -0.390799E-13  0.495E-06   12.83    4520.5  T
     SCC iter.                  ...        0 min,  0.001 sec
     gradient                   ...        0 min,  0.003 sec
 * total energy  :   -19.9939474 Eh     change       -0.1064038E-10 Eh
   gradient norm :     0.0209530 Eh/α   predicted     0.0000000E+00 (-100.00%)
   displ. norm   :     0.1214375 α      lambda       -0.1255422E-02
   maximum displ.:     0.0768496 α      in ANC's #11, #13, #16, ...

........................................................................
.............................. CYCLE    2 ..............................
........................................................................

 iter      E             dE          RMSdq      gap      omega  full diag
   1    -20.2967800 -0.202968E+02  0.123E-01   13.13       0.0  T
   2    -20.2967878 -0.771277E-05  0.695E-02   13.13       1.0  T
   3    -20.2967880 -0.294107E-06  0.951E-03   13.13       2.4  T
   4    -20.2967881 -0.364427E-07  0.184E-03   13.13      12.2  T
   5    -20.2967881 -0.296991E-08  0.915E-04   13.13      24.4  T
   6    -20.2967881 -0.181599E-08  0.114E-04   13.13     196.4  T
     SCC iter.                  ...        0 min,  0.001 sec
     gradient                   ...        0 min,  0.003 sec
 * total energy  :   -19.9946483 Eh     change       -0.7008162E-03 Eh
   gradient norm :     0.0064711 Eh/α   predicted    -0.6369692E-03 (  -9.11%)
   displ. norm   :     0.0275325 α      lambda       -0.1064178E-03
   maximum displ.:     0.0153566 α      in ANC's #11, #32, #36, ...

........................................................................
.............................. CYCLE    3 ..............................
........................................................................

 iter      E             dE          RMSdq      gap      omega  full diag
   1    -20.3005861 -0.203006E+02  0.281E-02   13.16       0.0  T
   2    -20.3005873 -0.126001E-05  0.158E-02   13.16       1.4  T
   3    -20.3005874 -0.182646E-07  0.419E-03   13.16       5.3  T
   4    -20.3005874 -0.306103E-07  0.769E-04   13.16      29.1  T
   5    -20.3005874 -0.343871E-08  0.361E-04   13.16      61.9  T
     SCC iter.                  ...        0 min,  0.001 sec
     gradient                   ...        0 min,  0.003 sec
 * total energy  :   -19.9947001 Eh     change       -0.5182860E-04 Eh
   gradient norm :     0.0014959 Eh/α   predicted    -0.5325983E-04 (   2.76%)
   displ. norm   :     0.0102631 α      lambda       -0.3907818E-05
   maximum displ.:     0.0063224 α      in ANC's #4, #11, #7, ...

........................................................................
.............................. CYCLE    4 ..............................
........................................................................

 iter      E             dE          RMSdq      gap      omega  full diag
   1    -20.3002738 -0.203003E+02  0.521E-03   13.18       0.0  T
   2    -20.3002738 -0.462980E-08  0.312E-03   13.18       7.2  T
   3    -20.3002738 -0.108306E-08  0.231E-04   13.18      96.9  T
   4    -20.3002738 -0.455707E-10  0.108E-04   13.18     206.4  T
     SCC iter.                  ...        0 min,  0.001 sec
     gradient                   ...        0 min,  0.003 sec
 * total energy  :   -19.9947032 Eh     change       -0.3078298E-05 Eh
   gradient norm :     0.0002978 Eh/α   predicted    -0.2003152E-05 ( -34.93%)
   displ. norm   :     0.0098598 α      lambda       -0.7111395E-06
   maximum displ.:     0.0072080 α      in ANC's #7, #4, #13, ...

........................................................................
.............................. CYCLE    5 ..............................
........................................................................

 iter      E             dE          RMSdq      gap      omega  full diag
   1    -20.3002050 -0.203002E+02  0.334E-03   13.18       0.0  T
   2    -20.3002050 -0.558785E-09  0.199E-03   13.18      11.2  T
   3    -20.3002050 -0.663647E-10  0.941E-05   13.18     237.7  T
   4    -20.3002050 -0.847713E-10  0.401E-05   13.18     557.3  T
     SCC iter.                  ...        0 min,  0.001 sec
     gradient                   ...        0 min,  0.003 sec
 * total energy  :   -19.9947039 Eh     change       -0.7298863E-06 Eh
   gradient norm :     0.0002547 Eh/α   predicted    -0.3747625E-06 ( -48.65%)
   displ. norm   :     0.0104680 α      lambda        0.7981889E-07
   maximum displ.:     0.0075895 α      in ANC's #7, #4, #13, ...

........................................................................
.............................. CYCLE    6 ..............................
........................................................................

 iter      E             dE          RMSdq      gap      omega  full diag
   1    -20.3001304 -0.203001E+02  0.346E-03   13.17       0.0  T
   2    -20.3001304 -0.590337E-09  0.206E-03   13.17      10.8  T
   3    -20.3001304 -0.878195E-10  0.938E-05   13.17     238.3  T
   4    -20.3001304 -0.756053E-10  0.420E-05   13.17     532.7  T
     SCC iter.                  ...        0 min,  0.001 sec
     gradient                   ...        0 min,  0.003 sec
 * total energy  :   -19.9947038 Eh     change        0.6004194E-07 Eh
   gradient norm :     0.0006250 Eh/α   predicted     0.3939926E-07 ( -34.38%)
   displ. norm   :     0.0065779 α      lambda       -0.7376129E-06
   maximum displ.:     0.0058566 α      in ANC's #4, #16, #7, ...

........................................................................
.............................. CYCLE    7 ..............................
........................................................................

 iter      E             dE          RMSdq      gap      omega  full diag
   1    -20.3002268 -0.203002E+02  0.372E-03   13.18       0.0  T
   2    -20.3002268 -0.696748E-09  0.220E-03   13.18      10.2  T
   3    -20.3002268 -0.190852E-10  0.101E-04   13.18     221.6  T
   4    -20.3002268 -0.143931E-09  0.348E-05   13.18     642.8  T
     SCC iter.                  ...        0 min,  0.001 sec
     gradient                   ...        0 min,  0.003 sec
 * total energy  :   -19.9947045 Eh     change       -0.7127159E-06 Eh
   gradient norm :     0.0002703 Eh/α   predicted    -0.3726271E-06 ( -47.72%)
   displ. norm   :     0.0063631 α      lambda       -0.1833637E-06
   maximum displ.:     0.0051993 α      in ANC's #4, #7, #20, ...

........................................................................
.............................. CYCLE    8 ..............................
........................................................................

 iter      E             dE          RMSdq      gap      omega  full diag
   1    -20.3002459 -0.203002E+02  0.221E-03   13.18       0.0  T
   2    -20.3002459 -0.421466E-09  0.132E-03   13.18      16.9  T
   3    -20.3002459 -0.242046E-10  0.758E-05   13.18     294.9  T
   4    -20.3002459 -0.647233E-10  0.279E-05   13.18     802.2  T
     SCC iter.                  ...        0 min,  0.001 sec
     gradient                   ...        0 min,  0.003 sec
 * total energy  :   -19.9947047 Eh     change       -0.1602586E-06 Eh
   gradient norm :     0.0000706 Eh/α   predicted    -0.1074138E-06 ( -32.97%)
   displ. norm   :     0.0027091 α      lambda       -0.3086764E-07
   maximum displ.:     0.0022364 α      in ANC's #4, #7, #11, ...

........................................................................
.............................. CYCLE    9 ..............................
........................................................................

 iter      E             dE          RMSdq      gap      omega  full diag
   1    -20.3002461 -0.203002E+02  0.918E-04   13.18       0.0  T
   2    -20.3002461 -0.789591E-10  0.550E-04   13.18      40.7  T
   3    -20.3002461  0.137597E-10  0.395E-05   13.18     566.2  T
     SCC iter.                  ...        0 min,  0.001 sec
     gradient                   ...        0 min,  0.003 sec
 * total energy  :   -19.9947047 Eh     change       -0.2259100E-07 Eh
   gradient norm :     0.0000220 Eh/α   predicted    -0.1622377E-07 ( -28.18%)
   displ. norm   :     0.0036124 α      lambda        0.3843982E-07
   maximum displ.:     0.0026746 α      in ANC's #4, #7, #11, ...

   *** GEOMETRY OPTIMIZATION CONVERGED AFTER 9 ITERATIONS ***

------------------------------------------------------------------------
 total energy gain   :        -0.0007573 Eh       -0.4752 kcal/mol
 total RMSD          :         0.0336268 a0        0.0178 Å
 total power (kW/mol):        -0.2209178 (step)  -31.2187 (real)
------------------------------------------------------------------------

 ANCopt (total)                0 d,  0 h,  0 min,  0.064 sec
 optimizer setup                ...        0 min,  0.000 sec (  0.692%)
 model hessian                  ...        0 min,  0.009 sec ( 14.383%)
 ANC generation                 ...        0 min,  0.000 sec (  0.674%)
 coordinate transformation      ...        0 min,  0.000 sec (  0.088%)
 single point calculation       ...        0 min,  0.049 sec ( 77.673%)
 optimization log               ...        0 min,  0.003 sec (  5.216%)
 hessian update                 ...        0 min,  0.000 sec (  0.085%)
 rational function              ...        0 min,  0.000 sec (  0.583%)

================
 final structure:
================
$coord
       -2.81815044182713       -0.32714579715009        2.34945535604436      C
       -1.20659025886380       -0.81461713266824        0.00032156259938      C
       -2.81699774520497       -0.32890200997538       -2.34996976508509      C
        1.20658890747440        0.81459817444196        0.00042305468721      C
        2.81806715304561        0.32694352650568        2.34957519209490      C
        2.81707524419949        0.32906308964053       -2.34985189150885      C
       -3.25564207268635        1.67546350570734        2.51444938877754      H
       -4.58904861244496       -1.36356644254071        2.21770738013254      H
       -1.86204272830046       -0.93461305872638        4.06080601717179      H
       -0.63892940098149       -2.80725213924782        0.00118188424719      H
       -4.58849575179059       -1.36423172330575       -2.21769817047864      H
       -3.25337878622126        1.67374667351943       -2.51738944217461      H
       -1.86055574990786       -0.93884571163940       -4.06025168922341      H
        0.63892930988799        2.80723338449483        0.00141781702494      H
        1.86197097845292        0.93442706415998        4.06092655598542      H
        3.25541485074093       -1.67570148894522        2.51451729911277      H
        4.58904251981163        1.36324000799026        2.21789285680816      H
        3.25355183963314       -1.67355774597421       -2.51735378110916      H
        4.58852099346134        1.36447140913921       -2.21749395028331      H
        1.86064189428358        0.93904100850720       -4.06012648546526      H
$end
 
 Bond Distances (Angstroems)
 ---------------------------
C1-C2=1.5294         C1-H7=1.0882         C1-H8=1.0880         C1-H9=1.0860         C2-C1=1.5294         C2-C3=1.5294         
C2-C4=1.5408         C2-H10=1.0964        C3-C2=1.5294         C3-H11=1.0880        C3-H12=1.0882        C3-H13=1.0860        
C4-C2=1.5408         C4-C5=1.5294         C4-C6=1.5294         C4-H14=1.0964        C5-C4=1.5294         C5-H15=1.0860        
C5-H16=1.0882        C5-H17=1.0880        C6-C4=1.5294         C6-H18=1.0882        C6-H19=1.0880        C6-H20=1.0860        
H7-C1=1.0882         H8-C1=1.0880         H9-C1=1.0860         H10-C2=1.0964        H11-C3=1.0880        H12-C3=1.0882        
H13-C3=1.0860        H14-C4=1.0964        H15-C5=1.0860        H16-C5=1.0882        H17-C5=1.0880        H18-C6=1.0882        
H19-C6=1.0880        H20-C6=1.0860        
 C  H  Rav=1.0887 sigma=0.0033  Rmin=1.0860  Rmax=1.0964    14
 C  C  Rav=1.5317 sigma=0.0045  Rmin=1.5294  Rmax=1.5408     5
 
 selected bond angles (degree)
 --------------------
H7-C1-C2=110.37                H8-C1-C2=110.07                H8-C1-H7=108.23                H9-C1-C2=111.60                
H9-C1-H7=108.69                H9-C1-H8=107.79                C3-C2-C1=108.78                C4-C2-C1=111.58                
C4-C2-C3=111.58                H10-C2-C1=108.34               H10-C2-C3=108.34               H10-C2-C4=108.12               
H11-C3-C2=110.07               H12-C3-C2=110.37               H12-C3-H11=108.23              H13-C3-C2=111.60               
H13-C3-H11=107.79              H13-C3-H12=108.69              C5-C4-C2=111.58                C6-C4-C2=111.58                
C6-C4-C5=108.78                H14-C4-C2=108.12               H14-C4-C5=108.34               H14-C4-C6=108.34               
H15-C5-C4=111.60               H16-C5-C4=110.37               H16-C5-H15=108.69              H17-C5-C4=110.07               
H17-C5-H15=107.79              H17-C5-H16=108.23              H18-C6-C4=110.37               H19-C6-C4=110.07               
H19-C6-H18=108.23              H20-C6-C4=111.60               H20-C6-H18=108.69              H20-C6-H19=107.79              
 
 selected dihedral angles (degree)
 ---------------------------------
C3-C2-C1-H7=291.76            C3-C2-C1-H8= 51.15            C3-C2-C1-H9=170.79            C4-C2-C1-H7= 55.28            
C4-C2-C1-H8=174.67            C4-C2-C1-H9=294.30            H10-C2-C1-H7=174.19           H10-C2-C1-H8=293.59           
H10-C2-C1-H9= 53.22           H11-C3-C2-C1=308.88           H11-C3-C2-C4=185.37           H11-C3-C2-H10= 66.45          
H12-C3-C2-C1= 68.28           H12-C3-C2-C4=304.76           H12-C3-C2-H10=185.85          H13-C3-C2-C1=189.25           
H13-C3-C2-C4= 65.74           H13-C3-C2-H10=306.82          C5-C4-C2-C1= 58.14            C5-C4-C2-C3=180.05            
C5-C4-C2-H10=299.10           C6-C4-C2-C1=180.05            C6-C4-C2-C3=301.97            C6-C4-C2-H10= 61.01           
H14-C4-C2-C1=299.10           H14-C4-C2-C3= 61.01           H14-C4-C2-H10=180.05          H15-C5-C4-C2=294.30           
H15-C5-C4-C6=170.78           H15-C5-C4-H14= 53.21          H16-C5-C4-C2= 55.27           H16-C5-C4-C6=291.75           
H16-C5-C4-H14=174.18          H17-C5-C4-C2=174.67           H17-C5-C4-C6= 51.15           H17-C5-C4-H14=293.58          
H18-C6-C4-C2=304.76           H18-C6-C4-C5= 68.28           H18-C6-C4-H14=185.85          H19-C6-C4-C2=185.36           
H19-C6-C4-C5=308.88           H19-C6-C4-H14= 66.45          H20-C6-C4-C2= 65.73           H20-C6-C4-C5=189.25           
H20-C6-C4-H14=306.82          
           -------------------------------------------------
          |                Final Singlepoint                |
           -------------------------------------------------

          ...................................................
          :                      SETUP                      :
          :.................................................:
          :  # basis functions                  38          :
          :  # atomic orbitals                  38          :
          :  # shells                           26          :
          :  # electrons                        38          :
          :  max. iterations                   250          :
          :  Hamiltonian                  GFN2-xTB          :
          :  restarted?                      false          :
          :  GBSA solvation                  false          :
          :  PC potential                    false          :
          :  electronic temp.          300.0000000     K    :
          :  accuracy                    1.0000000          :
          :  -> integral cutoff          0.2500000E+02      :
          :  -> integral neglect         0.1000000E-07      :
          :  -> SCF convergence          0.1000000E-05 Eh   :
          :  -> wf. convergence          0.1000000E-03 e    :
          :  Broyden damping             0.4000000          :
          :  net charge                          0          :
          :  unpaired electrons                  0          :
          ...................................................

 iter      E             dE          RMSdq      gap      omega  full diag
   1    -20.3002461 -0.203002E+02  0.847E-06   13.18       0.0  T
   2    -20.3002461 -0.142109E-13  0.497E-06   13.18    4495.5  T
   3    -20.3002461  0.355271E-14  0.349E-07   13.18   64094.1  T

   *** convergence criteria satisfied after 3 iterations ***

         #    Occupation            Energy/Eh            Energy/eV
      -------------------------------------------------------------
         1        2.0000           -0.6244363             -16.9918
       ...           ...                  ...                  ...
        13        2.0000           -0.4557413             -12.4014
        14        2.0000           -0.4487565             -12.2113
        15        2.0000           -0.4455978             -12.1253
        16        2.0000           -0.4307910             -11.7224
        17        2.0000           -0.4204659             -11.4415
        18        2.0000           -0.4180002             -11.3744
        19        2.0000           -0.4127729             -11.2321 (HOMO)
        20                          0.0714859               1.9452 (LUMO)
        21                          0.0823548               2.2410
        22                          0.1068413               2.9073
        23                          0.1177485               3.2041
        24                          0.1331505               3.6232
       ...                                ...                  ...
        38                          0.3057733               8.3205
      -------------------------------------------------------------
                  HL-Gap            0.4842588 Eh           13.1774 eV
             Fermi-level           -0.1706435 Eh           -4.6434 eV

 SCC (total)                   0 d,  0 h,  0 min,  0.005 sec
 SCC setup                      ...        0 min,  0.000 sec (  1.896%)
 Dispersion                     ...        0 min,  0.000 sec (  0.950%)
 classical contributions        ...        0 min,  0.000 sec (  0.355%)
 integral evaluation            ...        0 min,  0.001 sec ( 21.906%)
 iterations                     ...        0 min,  0.001 sec ( 14.286%)
 molecular gradient             ...        0 min,  0.003 sec ( 58.990%)
 printout                       ...        0 min,  0.000 sec (  1.306%)

         :::::::::::::::::::::::::::::::::::::::::::::::::::::
         ::                     SUMMARY                     ::
         :::::::::::::::::::::::::::::::::::::::::::::::::::::
         :: total energy             -19.994704727811 Eh    ::
         :: gradient norm              0.000022070827 Eh/a0 ::
         :: HOMO-LUMO gap             13.177352794967 eV    ::
         ::.................................................::
         :: SCC energy               -20.300192912854 Eh    ::
         :: -> isotropic ES            0.004594208990 Eh    ::
         :: -> anisotropic ES          0.007228719215 Eh    ::
         :: -> anisotropic XC          0.012564888459 Eh    ::
         :: -> dispersion             -0.012082502919 Eh    ::
         :: repulsion energy           0.305488185044 Eh    ::
         :: add. restraining           0.000000000000 Eh    ::
         :: total charge              -0.000000000000 e     ::
         :::::::::::::::::::::::::::::::::::::::::::::::::::::

           ------------------------------------------------- 
          |                Numerical Hessian                |
           ------------------------------------------------- 
step length          :   0.00500
SCC accuracy         :   0.30000
Hessian scale factor :   1.00000
frozen atoms in %    :   0.00000    0
RMS gradient         :   0.00002
estimated CPU  time      0.01 min
estimated wall time      0.01 min

writing file <hessian>.

 projected vibrational frequencies (cm⁻¹)
eigval :       -0.00    -0.00    -0.00    -0.00    -0.00     0.00
eigval :       49.68   178.24   190.82   205.92   229.12   309.23
eigval :      359.16   394.89   411.64   418.71   513.70   813.40
eigval :      930.56   945.30   948.08   983.17   986.69   986.89
eigval :     1014.53  1126.04  1168.75  1173.36  1181.28  1209.36
eigval :     1286.55  1311.45  1326.79  1359.64  1406.52  1411.25
eigval :     1423.02  1423.04  1492.27  1497.00  1502.87  1503.79
eigval :     1510.03  1510.58  1520.10  1533.90  2916.86  2923.53
eigval :     3022.39  3023.00  3025.68  3026.24  3026.36  3028.31
eigval :     3032.85  3034.39  3048.88  3049.48  3055.26  3055.36
           -------------------------------------------------
          |                Property Printout                |
           -------------------------------------------------

    * Orbital Energies and Occupations

         #    Occupation            Energy/Eh            Energy/eV
      -------------------------------------------------------------
         1        2.0000           -0.6244363             -16.9918
       ...           ...                  ...                  ...
         7        2.0000           -0.5053653             -13.7517
         8        2.0000           -0.5051772             -13.7466
         9        2.0000           -0.4887496             -13.2996
        10        2.0000           -0.4864649             -13.2374
        11        2.0000           -0.4641267             -12.6295
        12        2.0000           -0.4630195             -12.5994
        13        2.0000           -0.4557413             -12.4014
        14        2.0000           -0.4487565             -12.2113
        15        2.0000           -0.4455978             -12.1253
        16        2.0000           -0.4307910             -11.7224
        17        2.0000           -0.4204659             -11.4415
        18        2.0000           -0.4180002             -11.3744
        19        2.0000           -0.4127729             -11.2321 (HOMO)
        20                          0.0714859               1.9452 (LUMO)
        21                          0.0823548               2.2410
        22                          0.1068413               2.9073
        23                          0.1177485               3.2041
        24                          0.1331505               3.6232
        25                          0.1408755               3.8334
        26                          0.1823085               4.9609
        27                          0.1860695               5.0632
        28                          0.1914128               5.2086
        29                          0.2012755               5.4770
        30                          0.2290306               6.2322
       ...                                ...                  ...
        38                          0.3057733               8.3205
      -------------------------------------------------------------
                  HL-Gap            0.4842588 Eh           13.1774 eV
             Fermi-level           -0.1706435 Eh           -4.6434 eV

     #   Z          covCN         q      C6AA      α(0)
     1   6 C        3.756    -0.106    22.573     6.774
     2   6 C        3.851    -0.014    20.792     6.486
     3   6 C        3.756    -0.106    22.573     6.774
     4   6 C        3.851    -0.014    20.792     6.486
     5   6 C        3.756    -0.106    22.573     6.774
     6   6 C        3.756    -0.106    22.573     6.774
     7   1 H        0.925     0.033     2.551     2.498
     8   1 H        0.925     0.032     2.552     2.498
     9   1 H        0.925     0.034     2.526     2.486
    10   1 H        0.924     0.027     2.631     2.537
    11   1 H        0.925     0.032     2.552     2.498
    12   1 H        0.925     0.033     2.551     2.498
    13   1 H        0.925     0.034     2.526     2.486
    14   1 H        0.924     0.027     2.631     2.537
    15   1 H        0.925     0.034     2.526     2.486
    16   1 H        0.925     0.033     2.551     2.498
    17   1 H        0.925     0.032     2.552     2.498
    18   1 H        0.925     0.033     2.551     2.498
    19   1 H        0.925     0.032     2.552     2.498
    20   1 H        0.925     0.034     2.526     2.486

 Mol. C6AA /au·bohr⁶  :       2542.739344
 Mol. C8AA /au·bohr⁸  :      52320.045064
 Mol. α(0) /au        :         75.066693


Wiberg/Mayer (AO) data.
largest (>0.10) Wiberg bond orders for each atom

 ---------------------------------------------------------------------------
     #   Z sym  total        # sym  WBO       # sym  WBO       # sym  WBO
 ---------------------------------------------------------------------------
     1   6 C    3.997 --     2 C    1.009     7 H    0.987     8 H    0.986
                             9 H    0.985
     2   6 C    3.996 --     1 C    1.009     3 C    1.009     4 C    0.985
                            10 H    0.969
     3   6 C    3.997 --     2 C    1.009    12 H    0.987    11 H    0.986
                            13 H    0.985
     4   6 C    3.996 --     5 C    1.009     6 C    1.009     2 C    0.985
                            14 H    0.969
     5   6 C    3.997 --     4 C    1.009    16 H    0.987    17 H    0.986
                            15 H    0.985
     6   6 C    3.997 --     4 C    1.009    18 H    0.987    19 H    0.986
                            20 H    0.985
     7   1 H    0.999 --     1 C    0.987
     8   1 H    0.999 --     1 C    0.986
     9   1 H    0.999 --     1 C    0.985
    10   1 H    0.999 --     2 C    0.969
    11   1 H    0.999 --     3 C    0.986
    12   1 H    0.999 --     3 C    0.987
    13   1 H    0.999 --     3 C    0.985
    14   1 H    0.999 --     4 C    0.969
    15   1 H    0.999 --     5 C    0.985
    16   1 H    0.999 --     5 C    0.987
    17   1 H    0.999 --     5 C    0.986
    18   1 H    0.999 --     6 C    0.987
    19   1 H    0.999 --     6 C    0.986
    20   1 H    0.999 --     6 C    0.985
 ---------------------------------------------------------------------------

Topologies differ in total number of bonds
Writing topology from bond orders to xtbtopo.mol

molecular dipole:
                 x           y           z       tot (Debye)
 q only:        0.000      -0.000      -0.000
   full:        0.000      -0.000      -0.000       0.000
molecular quadrupole (traceless):
                xx          xy          yy          xz          yz          zz
 q only:       -0.026       0.031      -0.215       0.000      -0.000       0.240
  q+dip:       -0.265      -0.065       1.140       0.000       0.000      -0.874
   full:       -0.102      -0.004       0.457       0.000       0.000      -0.355

           -------------------------------------------------
          |                Geometry Summary                 |
           -------------------------------------------------

      molecular mass/u    :       86.1755859
   center of mass at/Å    :       -0.0000007      -0.0000053      -0.0000122
  moments of inertia/u·Å² :        0.1185428E+03   0.1730861E+03   0.2657281E+03
rotational constants/cm⁻¹ :        0.1422072E+00   0.9739451E-01   0.6343941E-01

 * 18 selected distances

     #   Z          #   Z                                           value/Å
     1   6 C        2   6 C                                       1.5294215
     2   6 C        3   6 C                                       1.5294231
     4   6 C        5   6 C                                       1.5294216
     4   6 C        6   6 C                                       1.5294233 (max)
     1   6 C        7   1 H                                       1.0882368
     1   6 C        8   1 H                                       1.0880489
     1   6 C        9   1 H                                       1.0860233
     2   6 C       10   1 H                                       1.0964106
     3   6 C       11   1 H                                       1.0880493
     3   6 C       12   1 H                                       1.0882360
     3   6 C       13   1 H                                       1.0860230 (min)
     4   6 C       14   1 H                                       1.0964105
     5   6 C       15   1 H                                       1.0860233
     5   6 C       16   1 H                                       1.0882368
     5   6 C       17   1 H                                       1.0880487
     6   6 C       18   1 H                                       1.0882359
     6   6 C       19   1 H                                       1.0880493
     6   6 C       20   1 H                                       1.0860230

 * 2 distinct bonds (by element types)

   Z      Z             #   av. dist./Å        max./Å        min./Å
   1 H    6 C          14     1.0887182     1.0964106     1.0860230
   6 C    6 C           4     1.5294224     1.5294233     1.5294215

           -------------------------------------------------
          |               Frequency Printout                |
           -------------------------------------------------
 projected vibrational frequencies (cm⁻¹)
eigval :       -0.00    -0.00    -0.00    -0.00    -0.00     0.00
eigval :       49.68   178.24   190.82   205.92   229.12   309.23
eigval :      359.16   394.89   411.64   418.71   513.70   813.40
eigval :      930.56   945.30   948.08   983.17   986.69   986.89
eigval :     1014.53  1126.04  1168.75  1173.36  1181.28  1209.36
eigval :     1286.55  1311.45  1326.79  1359.64  1406.52  1411.25
eigval :     1423.02  1423.04  1492.27  1497.00  1502.87  1503.79
eigval :     1510.03  1510.58  1520.10  1533.90  2916.86  2923.53
eigval :     3022.39  3023.00  3025.68  3026.24  3026.36  3028.31
eigval :     3032.85  3034.39  3048.88  3049.48  3055.26  3055.36
 reduced masses (amu)
   1:  9.79   2:  9.62   3:  8.64   4: 10.00   5:  9.18   6:  9.39   7:  7.73   8:  1.26
   9:  4.42  10:  1.30  11:  2.90  12:  5.81  13:  7.46  14:  7.01  15:  7.33  16:  8.84
  17:  7.91  18:  7.29  19:  7.73  20:  2.91  21:  2.62  22:  4.10  23:  3.47  24:  5.98
  25:  2.60  26:  8.77  27:  7.05  28:  7.29  29:  6.13  30:  6.79  31:  4.17  32:  3.67
  33:  4.82  34:  5.32  35:  3.41  36:  3.11  37:  3.00  38:  3.08  39:  1.62  40:  1.55
  41:  1.60  42:  1.65  43:  1.51  44:  1.56  45:  1.54  46:  1.55  47:  1.70  48:  1.80
  49:  1.95  50:  1.95  51:  1.62  52:  1.93  53:  1.70  54:  1.93  55:  1.58  56:  1.61
  57:  1.51  58:  1.59  59:  1.58  60:  1.62
 IR intensities (km·mol⁻¹)
   1:  0.00   2:  0.00   3:  0.00   4:  0.00   5:  0.00   6:  0.00   7:  0.02   8:  0.00
   9:  0.04  10:  0.05  11:  0.00  12:  0.11  13:  1.24  14:  0.00  15:  0.69  16:  0.00
  17:  0.00  18:  0.00  19:  2.69  20:  0.00  21:  4.12  22:  0.00  23:  1.03  24:  0.00
  25: 14.10  26:  7.12  27: 19.09  28:  0.00  29:  0.00  30:  0.00  31:  8.80  32:  6.33
  33:  0.00  34:  0.00  35:  0.00  36:  3.68  37:  0.00  38:  4.97  39:  0.68  40:  0.00
  41:  0.00  42:  0.00  43:  8.88  44:  4.20  45:  0.68  46:  0.00  47:  0.00  48: 95.11
  49:  0.00  50:  2.40  51:  0.06  52:  0.00  53:  0.00  54:186.89  55:  0.00  56:162.92
  57:  0.00  58: 22.97  59:115.93  60:  0.35
 Raman intensities (Ä⁴*amu⁻¹)
   1:  0.00   2:  0.00   3:  0.00   4:  0.00   5:  0.00   6:  0.00   7:  0.00   8:  0.00
   9:  0.00  10:  0.00  11:  0.00  12:  0.00  13:  0.00  14:  0.00  15:  0.00  16:  0.00
  17:  0.00  18:  0.00  19:  0.00  20:  0.00  21:  0.00  22:  0.00  23:  0.00  24:  0.00
  25:  0.00  26:  0.00  27:  0.00  28:  0.00  29:  0.00  30:  0.00  31:  0.00  32:  0.00
  33:  0.00  34:  0.00  35:  0.00  36:  0.00  37:  0.00  38:  0.00  39:  0.00  40:  0.00
  41:  0.00  42:  0.00  43:  0.00  44:  0.00  45:  0.00  46:  0.00  47:  0.00  48:  0.00
  49:  0.00  50:  0.00  51:  0.00  52:  0.00  53:  0.00  54:  0.00  55:  0.00  56:  0.00
  57:  0.00  58:  0.00  59:  0.00  60:  0.00
 output can be read by thermo (or use thermo option).
 writing <g98.out> molden fake output.
 recommended (thermochemical) frequency scaling factor: 1.0
           -------------------------------------------------
          |             Thermodynamic Functions             |
           -------------------------------------------------

Molecule has the following symmetry elements: (i) (C2) (sigma) 
It seems to be the C2h point group
c2h symmetry found (for desy threshold:  0.10E+00) used in thermo

          ...................................................
          :                      SETUP                      :
          :.................................................:
          :  # frequencies                          54      :
          :  # imaginary freq.                       0      :
          :  linear?                             false      :
          :  only rotor calc.                    false      :
          :  symmetry                              c2h      :
          :  rotational number                       2      :
          :  scaling factor                  1.0000000      :
          :  rotor cutoff                    0.0000000 cm⁻¹ :
          :  imag. cutoff                 -100.0000000 cm⁻¹ :
          :.................................................:

    mode    ω/cm⁻¹     T·S(HO)/kcal·mol⁻¹    T·S(FR)/kcal·mol⁻¹   T·S(vib)
   ------------------------------------------------------------------------
       1     49.68    -1.44008 (100.00%)    -1.05791 (  0.00%)    -1.44008
       2    178.24    -0.69970 (100.00%)    -0.67985 (  0.00%)    -0.69970
       3    190.82    -0.66184 (100.00%)    -0.65965 (  0.00%)    -0.66184
       4    205.92    -0.62001 (100.00%)    -0.63710 (  0.00%)    -0.62001
       5    229.12    -0.56226 (100.00%)    -0.60549 (  0.00%)    -0.56226
   ------------------------------------------------------------------------

   temp. (K)  partition function   enthalpy   heat capacity  entropy
                                   cal/mol     cal/K/mol   cal/K/mol   J/K/mol
 298.15  VIB   97.1                 3463.373     24.288     20.709
         ROT  0.892E+05              888.752      2.981     25.633
         INT  0.866E+07             4352.126     27.268     46.341
         TR   0.774E+27             1481.254      4.968     39.257
         TOT                        5833.3794    32.2366    85.5979   358.1415

       T/K    H(0)-H(T)+PV         H(T)/Eh          T*S/Eh         G(T)/Eh
   ------------------------------------------------------------------------
    298.15    0.929608E-02    0.196142E+00    0.406703E-01    0.155472E+00
   ------------------------------------------------------------------------

         :::::::::::::::::::::::::::::::::::::::::::::::::::::
         ::                  THERMODYNAMIC                  ::
         :::::::::::::::::::::::::::::::::::::::::::::::::::::
         :: total free energy         -19.839232912799 Eh   ::
         ::.................................................::
         :: total energy              -19.994704727810 Eh   ::
         :: zero point energy           0.186846047065 Eh   ::
         :: G(RRHO) w/o ZPVE           -0.031374232054 Eh   ::
         :: G(RRHO) contrib.            0.155471815011 Eh   ::
         :::::::::::::::::::::::::::::::::::::::::::::::::::::

optimized geometry written to: xtbopt.coord


           -------------------------------------------------
          | TOTAL ENERGY              -19.994704727810 Eh   |
          | TOTAL ENTHALPY            -19.798562598904 Eh   |
          | TOTAL FREE ENERGY         -19.839232912799 Eh   |
          | GRADIENT NORM               0.000022069813 Eh/α |
          | HOMO-LUMO GAP              13.177352795947 eV   |
           -------------------------------------------------

------------------------------------------------------------------------
 * finished run on 2025/04/15 at 20:26:56.134     
------------------------------------------------------------------------
 total:
 * wall-time:     0 d,  0 h,  0 min,  1.028 sec
 *  cpu-time:     0 d,  0 h,  0 min,  0.779 sec
 * ratio c/w:     0.758 speedup
 SCF:
 * wall-time:     0 d,  0 h,  0 min,  0.033 sec
 *  cpu-time:     0 d,  0 h,  0 min,  0.014 sec
 * ratio c/w:     0.424 speedup
 ANC optimizer:
 * wall-time:     0 d,  0 h,  0 min,  0.072 sec
 *  cpu-time:     0 d,  0 h,  0 min,  0.068 sec
 * ratio c/w:     0.936 speedup
 analytical hessian:
 * wall-time:     0 d,  0 h,  0 min,  0.687 sec
 *  cpu-time:     0 d,  0 h,  0 min,  0.685 sec
 * ratio c/w:     0.996 speedup

