12
 energy: -703.550510500317 gnorm: 0.077906576612 xtb: 6.7.1 (edcfbbe)
C           -2.00262742488742        0.68845470230507        0.42198681028699
O           -1.11157308689257       -0.41033372038183        0.43268471069173
S            0.36440509216148       -0.00712426630316       -0.10669260354728
O            0.94175426591732        0.94143348681717        0.79302634215141
O            0.26750355181854        0.36281633446077       -1.48378523135750
C            1.13995005070514       -1.61938059161759        0.07323418863245
H           -1.61494210901562        1.48236651475688        1.06419128037157
H           -2.95921233611131        0.32807533394538        0.79614126845279
H           -2.10817829673419        1.06619609297246       -0.59742977276474
H            0.37634702466677       -2.28467976551240        0.45013838679947
H            1.48816544075945       -1.93705118425836       -0.89983360399874
H            1.95631973506690       -1.52460282747559        0.77573724034375
12
 energy: -703.554611027923 gnorm: 0.034728334822 xtb: 6.7.1 (edcfbbe)
C           -2.01233326203869        0.69960893146865        0.42218427503108
O           -1.10303141355982       -0.40956113338377        0.43000837279279
S            0.38214484757193       -0.00122902370245       -0.11359823730843
O            0.97072255134006        0.95257829263330        0.80238889523553
O            0.28569261949332        0.36426960314706       -1.51081866871819
C            1.13704460630725       -1.62861362373121        0.07648689467795
H           -1.64838149719823        1.49992497089125        1.07522579380015
H           -2.96012691728667        0.31707935623440        0.79939565302847
H           -2.14464655639644        1.08128562975760       -0.59580321843989
H            0.38212080283063       -2.31529393368184        0.45554402923994
H            1.48900493042790       -1.94408497996968       -0.90421778151850
H            1.95970100672304       -1.52979385704559        0.78260287415773
12
 energy: -703.555827888026 gnorm: 0.007454963449 xtb: 6.7.1 (edcfbbe)
C           -2.03006990491062        0.71417373350776        0.42399438528692
O           -1.10584884846311       -0.40106122875314        0.42858047977784
S            0.39407142459432        0.00165925929545       -0.11819378525324
O            0.99799191873438        0.95604485420611        0.81193366748768
O            0.30358332074950        0.35858274226070       -1.53413974579928
C            1.14064127454734       -1.63627209058830        0.07740762435840
H           -1.67251931528086        1.51186613686099        1.08385896078414
H           -2.96811040651436        0.30739815546051        0.80482939660640
H           -2.17175590044943        1.09142322332400       -0.59448878460188
H            0.38681540022499       -2.32838697233283        0.45625398866841
H            1.49661973188296       -1.95185069653736       -0.90544610498588
H            1.96649290623480       -1.53740679183287        0.78480870034222
12
 energy: -703.555887562253 gnorm: 0.005553445394 xtb: 6.7.1 (edcfbbe)
C           -2.03446599016931        0.71659393796347        0.42486279694714
O           -1.10720865319034       -0.39916942174549        0.42822941360122
S            0.39697714342135        0.00229091298199       -0.11950084933498
O            1.00342198171844        0.95517812709585        0.81427766065660
O            0.30741379323292        0.35535758719048       -1.53894357204052
C            1.14238657910312       -1.63787848486500        0.07734265876528
H           -1.67616923290872        1.51281488125422        1.08464152153184
H           -2.96970228529296        0.30571076323058        0.80631422439081
H           -2.17596500514725        1.09254175599051       -0.59317281800210
H            0.38587478948251       -2.32639045691815        0.45518652240944
H            1.49847710949948       -1.95246551747633       -0.90503395147295
H            1.96687137082146       -1.53841374337696        0.78519510842221
12
 energy: -703.555905852268 gnorm: 0.004049874418 xtb: 6.7.1 (edcfbbe)
C           -2.03567108818166        0.71696073503288        0.42533595823444
O           -1.10763937120041       -0.39859445769831        0.42782942257540
S            0.39854293762632        0.00306185425028       -0.12051782004415
O            1.00472806625163        0.95421986111838        0.81528387939276
O            0.30848091776422        0.35305182657023       -1.54074999194113
C            1.14327014714238       -1.63813204186678        0.07720480229535
H           -1.67686133489509        1.51278360338585        1.08472725927464
H           -2.96970523059432        0.30497677302386        0.80722563206131
H           -2.17737000992794        1.09278060582514       -0.59232959856426
H            0.38445596303927       -2.32383968159062        0.45395303257199
H            1.49953379368259       -1.95235378503548       -0.90450732739006
H            1.96614682636537       -1.53874494230127        0.78594339598829
12
 energy: -703.555918820998 gnorm: 0.001919875096 xtb: 6.7.1 (edcfbbe)
C           -2.03589119681732        0.71698721341586        0.42575292319433
O           -1.10802057532886       -0.39821428643502        0.42721581262031
S            0.39998895835831        0.00412265557090       -0.12181956592042
O            1.00447356995752        0.95319295004750        0.81623061086755
O            0.30830952773379        0.35032459315808       -1.54223168647783
C            1.14412863786273       -1.63792353076090        0.07699678764079
H           -1.67661723511892        1.51275991668490        1.08487729937395
H           -2.96924181438234        0.30471741072939        0.80836969450617
H           -2.17856566411270        1.09304229787752       -0.59164097453304
H            0.38294411684609       -2.32158081263850        0.45204211229157
H            1.50138526663728       -1.95210980443307       -0.90396827896012
H            1.96501805864611       -1.53914823918217        0.78757380211424
12
 energy: -703.555923134933 gnorm: 0.000922431451 xtb: 6.7.1 (edcfbbe)
C           -2.03495647329516        0.71671121069274        0.42600029990551
O           -1.10828790226835       -0.39829558206162        0.42660675426887
S            0.40036421961348        0.00479609768738       -0.12286486461774
O            1.00269003112784        0.95259456242783        0.81653192354502
O            0.30681915008633        0.34810335311102       -1.54295200075318
C            1.14453038812094       -1.63722812474066        0.07683145895043
H           -1.67548253907274        1.51288033127190        1.08496790045774
H           -2.96871815428861        0.30553205985367        0.80944726195567
H           -2.17919243590399        1.09346239186534       -0.59120228914975
H            0.38234518949928       -2.32129259918797        0.44980510756101
H            1.50399206080367       -1.95160953310353       -0.90349882009434
H            1.96380816066940       -1.53948378901405        0.78972568396882
12
 energy: -703.555923134933 gnorm: 0.000922431451 xtb: 6.7.1 (edcfbbe)
C           -2.03495647329516        0.71671121069274        0.42600029990551
O           -1.10828790226835       -0.39829558206162        0.42660675426887
S            0.40036421961348        0.00479609768738       -0.12286486461774
O            1.00269003112784        0.95259456242783        0.81653192354502
O            0.30681915008633        0.34810335311102       -1.54295200075318
C            1.14453038812094       -1.63722812474066        0.07683145895043
H           -1.67548253907274        1.51288033127190        1.08496790045774
H           -2.96871815428861        0.30553205985367        0.80944726195567
H           -2.17919243590399        1.09346239186534       -0.59120228914975
H            0.38234518949928       -2.32129259918797        0.44980510756101
H            1.50399206080367       -1.95160953310353       -0.90349882009434
H            1.96380816066940       -1.53948378901405        0.78972568396882
