11
 energy: -14.076335699189 gnorm: 0.012316360790 xtb: 6.7.1 (edcfbbe)
C           -2.99921631283534        0.60918244220466        0.34623321558378
C           -1.76666383151698        0.12927871314120       -0.42511062245359
C           -0.72396539256261       -0.40810621284404        0.53292982337990
Br           0.89128044725528       -1.04023263889905       -0.42557199518837
H           -2.74149430079054        1.40743366622494        1.04953749730388
H           -3.75490377504189        0.99947458395459       -0.34076553058166
H           -3.45439069906305       -0.20751955707509        0.91557269474508
H           -1.33874619231368        0.95276717310570       -1.00598689966362
H           -2.04630648993089       -0.65365841316495       -1.13752044722539
H           -1.08287237889337       -1.27273418060493        1.09295358150416
H           -0.36692669592760        0.35489461097622        1.22598831372155
11
 energy: -14.076663553164 gnorm: 0.005722712270 xtb: 6.7.1 (edcfbbe)
C           -2.99369534194166        0.60700370220332        0.34265052856790
C           -1.76457848963611        0.12812554033351       -0.42080842676560
C           -0.72519015637525       -0.40816323039720        0.54096796402011
Br           0.86360649514836       -1.02719694924377       -0.43833938078881
H           -2.72913722518533        1.40095169149001        1.04029960603395
H           -3.74012355089926        0.99349490325403       -0.34892093481546
H           -3.44027545898267       -0.21116842883261        0.90680098420228
H           -1.34246245101307        0.95664360409741       -0.99566982657927
H           -2.05213079478775       -0.65482174102755       -1.12749027014603
H           -1.08838800858294       -1.27121743804306        1.09772032732573
H           -0.37183063936500        0.35712853318517        1.23104906007094
11
 energy: -14.076702956753 gnorm: 0.002209696022 xtb: 6.7.1 (edcfbbe)
C           -2.99527778183411        0.60757467028398        0.34399595429936
C           -1.76776943629664        0.12959595347282       -0.42064781019100
C           -0.72084327118275       -0.40945018890779        0.53328848080083
Br           0.86902160979737       -1.03085404009818       -0.42390961057053
H           -2.72856446008018        1.39943004227544        1.03975330888168
H           -3.73948184815737        0.99286125384964       -0.34699930737199
H           -3.43840477299248       -0.21054295161954        0.90665092137603
H           -1.34662406964443        0.95855301908914       -0.99385942323432
H           -2.05635118633026       -0.65316683578943       -1.12569580670804
H           -1.08779366408661       -1.26948738126100        1.09123788171650
H           -0.37211674081322        0.35626664572418        1.22444504212722
11
 energy: -14.076715481914 gnorm: 0.000756202328 xtb: 6.7.1 (edcfbbe)
C           -2.99432390530102        0.60711127892095        0.34448498562168
C           -1.76628881240414        0.12906070707821       -0.42162876632506
C           -0.72021296238821       -0.40985280564721        0.53480778580426
Br           0.86532459470519       -1.02885167655843       -0.42946113371541
H           -2.72890155667793        1.39953441672663        1.04057744636564
H           -3.73873091728246        0.99235518000598       -0.34659014230709
H           -3.43861514395259       -0.21046412329215        0.90759792674841
H           -1.34380914928972        0.95718443984026       -0.99523220150774
H           -2.05329982963452       -0.65402967552426       -1.12709716145001
H           -1.09048805705821       -1.26839730027970        1.09379500330023
H           -0.37485988233708        0.35712974574898        1.22700588859082
11
 energy: -14.076716154614 gnorm: 0.000360083527 xtb: 6.7.1 (edcfbbe)
C           -2.99443012376658        0.60716626501476        0.34432728565355
C           -1.76642569211625        0.12923126988649       -0.42244978906553
C           -0.72015562005912       -0.40992349365769        0.53515399243469
Br           0.86473789689998       -1.02877903433932       -0.42822591367129
H           -2.72857971116602        1.39985965476522        1.04073943584024
H           -3.73989383224002        0.99265092110608       -0.34630779938812
H           -3.43845503811328       -0.21091377996469        0.90789692658609
H           -1.34400397327026        0.95736839011824       -0.99635742622140
H           -2.05343369303856       -0.65370375867023       -1.12832564227996
H           -1.08973977523807       -1.26909650185138        1.09427358951048
H           -0.37382605951252        0.35692025461177        1.22753497172698
11
 energy: -14.076716473974 gnorm: 0.000110701173 xtb: 6.7.1 (edcfbbe)
C           -2.99442666187708        0.60716357061125        0.34430588423991
C           -1.76646624832150        0.12924547591754       -0.42214737912616
C           -0.71979479198545       -0.41006217281383        0.53479411211930
Br           0.86524029026474       -1.02901583247937       -0.42847879273742
H           -2.72856763537913        1.39982453051946        1.04057737787055
H           -3.73986465278765        0.99254419066577       -0.34628187671228
H           -3.43830479316389       -0.21086874964327        0.90784722527350
H           -1.34395355437924        0.95740880147417       -0.99586796277464
H           -2.05342670873348       -0.65376243799690       -1.12789425164905
H           -1.09023645677403       -1.26871567961016        1.09407774284895
H           -0.37440440848398        0.35701849037460        1.22732755177305
11
 energy: -14.076716497807 gnorm: 0.000048491885 xtb: 6.7.1 (edcfbbe)
C           -2.99432808733906        0.60711509139053        0.34435212712440
C           -1.76646298034694        0.12926407871787       -0.42217526636702
C           -0.71999459595211       -0.40998644467779        0.53484862145820
Br           0.86501173964855       -1.02894436017686       -0.42848533835486
H           -2.72866697279971        1.39984010250759        1.04055344117086
H           -3.73969305760883        0.99238684574299       -0.34627403616021
H           -3.43828905533804       -0.21079073342395        0.90792238967580
H           -1.34385648525039        0.95741049312512       -0.99583904801427
H           -2.05333789203605       -0.65377827214391       -1.12790835284850
H           -1.09023151248989       -1.26875297067559        1.09399746926877
H           -0.37435672210821        0.35701635663325        1.22726762417257
