
                                 *****************
                                 * O   R   C   A *
                                 *****************

                                            #,                                       
                                            ###                                      
                                            ####                                     
                                            #####                                    
                                            ######                                   
                                           ########,                                 
                                     ,,################,,,,,                         
                               ,,#################################,,                 
                          ,,##########################################,,             
                       ,#########################################, ''#####,          
                    ,#############################################,,   '####,        
                  ,##################################################,,,,####,       
                ,###########''''           ''''###############################       
              ,#####''   ,,,,##########,,,,          '''####'''          '####       
            ,##' ,,,,###########################,,,                        '##       
           ' ,,###''''                  '''############,,,                           
         ,,##''                                '''############,,,,        ,,,,,,###''
      ,#''                                            '''#######################'''  
     '                                                          ''''####''''         
             ,#######,   #######,   ,#######,      ##                                
            ,#'     '#,  ##    ##  ,#'     '#,    #''#        ,####,   ,####,        
            ##       ##  ##   ,#'  ##            #'  '#       #'       #'  '#        
            ##       ##  #######   ##           ,######,      #####,   #    #        
            '#,     ,#'  ##    ##  '#,     ,#' ,#      #,     #,   #   #,  ,#        
             '#######'   ##     ##  '#######'  #'      '#     '####' # '####'        



                #########################################################
                #                        -***-                          #
                #          Department of theory and spectroscopy        #
                #                                                       #
                #                      Frank Neese                      #
                #                                                       #
                #     Directorship, Architecture, Infrastructure        #
                #                    SHARK, DRIVERS                     #
                #        Core code/Algorithms in most modules           #
                #                                                       #
                #        Max Planck Institute fuer Kohlenforschung      #
                #                Kaiser Wilhelm Platz 1                 #
                #                 D-45470 Muelheim/Ruhr                 #
                #                      Germany                          #
                #                                                       #
                #                  All rights reserved                  #
                #                        -***-                          #
                #########################################################


                         Program Version 6.0.0  -   RELEASE  -


 With contributions from (in alphabetic order):
   Daniel Aravena         : Magnetic Suceptibility
   Michael Atanasov       : Ab Initio Ligand Field Theory (pilot matlab implementation)
   Alexander A. Auer      : GIAO ZORA, VPT2 properties, NMR spectrum
   Ute Becker             : All parallelization in ORCA, NUMFREQ, NUMCALC
   Giovanni Bistoni       : ED, misc. LED, open-shell LED, HFLD
   Martin Brehm           : Molecular dynamics
   Dmytro Bykov           : pre 5.0 version of the SCF Hessian
   Marcos Casanova-Páez   : Triplet and SCS-CIS(D). UHF-(DLPNO)-IP/EA/STEOM-CCSD. UHF-CVS-IP/STEOM-CCSD
   Vijay G. Chilkuri      : MRCI spin determinant printing, contributions to CSF-ICE
   Pauline Colinet        : FMM embedding
   Dipayan Datta          : RHF DLPNO-CCSD density
   Achintya Kumar Dutta   : EOM-CC, STEOM-CC
   Nicolas Foglia         : Exact transition moments, OPA infrastructure, MCD improvements
   Dmitry Ganyushin       : Spin-Orbit,Spin-Spin,Magnetic field MRCI
   Miquel Garcia          : C-PCM and meta-GGA Hessian, CCSD/C-PCM, Gaussian charge scheme
   Tiago L. C. Gouveia    : GS-ROHF, GS-ROCIS
   Yang Guo               : DLPNO-NEVPT2, F12-NEVPT2, CIM, IAO-localization
   Andreas Hansen         : Spin unrestricted coupled pair/coupled cluster methods
   Ingolf Harden          : AUTO-CI MPn and infrastructure 
   Benjamin Helmich-Paris : MC-RPA, TRAH-(SCF,CASSCF), AVAS, COSX integrals, SCF dyn. polar.
   Lee Huntington         : MR-EOM, pCC
   Robert Izsak           : Overlap fitted RIJCOSX, COSX-SCS-MP3, EOM
   Riya Kayal             : Wick's Theorem for AUTO-CI, AUTO-CI UHF-CCSDT
   Emily Kempfer          : AUTO-CI, RHF CISDT and CCSDT
   Christian Kollmar      : KDIIS, OOCD, Brueckner-CCSD(T), CCSD density, CASPT2, CASPT2-K, improved NEVPT2
   Axel Koslowski         : Symmetry handling
   Simone Kossmann        : Meta GGA functionals, TD-DFT gradient, OOMP2, (MP2 Hessian; deprecated post 5.0)
   Lucas Lang             : DCDCAS
   Marvin Lechner         : AUTO-CI (C++ implementation), FIC-MRCC
   Spencer Leger          : CASSCF response
   Dagmar Lenk            : GEPOL surface, SMD, ORCA-2-JSON
   Dimitrios Liakos       : Extrapolation schemes; Compound Job, initial MDCI parallelization
   Dimitrios Manganas     : Further ROCIS development; embedding schemes. LFT, Crystal Embedding
   Dimitrios Pantazis     : SARC Basis sets
   Anastasios Papadopoulos: AUTO-CI, single reference methods and gradients
   Taras Petrenko         : pre 6.0 DFT Hessian and TD-DFT gradient, (ASA, deprecated), ECA, 1-Electron XAS/XES, NRVS
   Peter Pinski           : DLPNO-MP2, DLPNO-MP2 Gradient
   Christoph Reimann      : Effective Core Potentials
   Marius Retegan         : Local ZFS, SOC
   Christoph Riplinger    : Optimizer, TS searches, QM/MM, DLPNO-CCSD(T), (RO)-DLPNO pert. Triples
   Michael Roemelt        : Original ROCIS implementation
   Masaaki Saitow         : Open-shell DLPNO-CCSD energy and density
   Barbara Sandhoefer     : DKH picture change effects
   Kantharuban Sivalingam : CASSCF convergence/infrastructure, NEVPT2 and variants, FIC-MRCI
   Bernardo de Souza      : ESD, SOC TD-DFT
   Georgi Stoychev        : AutoAux, RI-MP2 NMR, DLPNO-MP2 response, X2C
   Van Anh Tran           : RI-MP2 g-tensors
   Willem Van den Heuvel  : Paramagnetic NMR
   Zikuan Wang            : NOTCH, Electric field optimization 
   Frank Wennmohs         : Technical directorship and infrastructure
   Hang Xu                : AUTO-CI-Response properties 


 We gratefully acknowledge several colleagues who have allowed us to
 interface, adapt or use parts of their codes:
   Stefan Grimme, W. Hujo, H. Kruse, P. Pracht,  : VdW corrections, initial TS optimization,
                  C. Bannwarth, S. Ehlert,         DFT functionals, gCP, sTDA/sTD-DF
                  L. Wittmann, M. Mueller
   Ed Valeev, F. Pavosevic, A. Kumar             : LibInt (2-el integral package), F12 methods
   Garnet Chan, S. Sharma, J. Yang, R. Olivares  : DMRG
   Ulf Ekstrom                                   : XCFun DFT Library
   Mihaly Kallay                                 : mrcc  (arbitrary order and MRCC methods)
   Frank Weinhold                                : gennbo (NPA and NBO analysis)
   Simon Mueller                                 : openCOSMO-RS
   Christopher J. Cramer and Donald G. Truhlar   : smd solvation model
   Lars Goerigk                                  : TD-DFT with DH, B97 family of functionals
   V. Asgeirsson, H. Jonsson                     : NEB implementation
   FAccTs GmbH                                   : IRC, NEB, NEB-TS, DLPNO-Multilevel, CI-OPT
                                                   MM, QMMM, 2- and 3-layer-ONIOM, Crystal-QMMM,
                                                   LR-CPCM, SF, NACMEs, symmetry and pop. for TD-DFT,
                                                   nearIR, NL-DFT gradient (VV10), updates on ESD,
                                                   ML-optimized integration grids, MBIS, APM,
                                                   GOAT, DOCKER, SOLVATOR, interface openCOSMO-RS
   S Lehtola, MJT Oliveira, MAL Marques          : LibXC Library
   Liviu Ungur et al                             : ANISO software


 Your calculation uses the libint2 library for the computation of 2-el integrals
 For citations please refer to: http://libint.valeyev.net

 Your ORCA version has been built with support for libXC version: 6.2.2
 For citations please refer to: https://libxc.gitlab.io

 This ORCA versions uses:
   CBLAS   interface :  Fast vector & matrix operations
   LAPACKE interface :  Fast linear algebra routines
   SCALAPACK package :  Parallel linear algebra routines
   Shared memory     :  Shared parallel matrices
   BLAS/LAPACK       :  OpenBLAS 0.3.27  USE64BITINT DYNAMIC_ARCH NO_AFFINITY SkylakeX SINGLE_THREADED
        Core in use  :  SkylakeX
   Copyright (c) 2011-2014, The OpenBLAS Project




***************************************
The coordinates will be read from file: vacuum_censo.xyz
***************************************


Your calculation utilizes the geometrical counterpoise correction gCP
Please cite in your paper:
H.Kruse, S. Grimme J.Chem.Phys., 136, (2012), 154101 
   

Your calculation utilizes the atom-pairwise dispersion correction
based on EEQ partial charges (D4)


================================================================================

----- Orbital basis set information -----
Your calculation utilizes the basis: def2-TZVP
   F. Weigend and R. Ahlrichs, Phys. Chem. Chem. Phys. 7, 3297 (2005).

----- AuxJ basis set information -----
Your calculation utilizes the basis: def2-mTZVPP/J
   Stefan Grimme, Andreas Hansen, Sebastian Ehlert, and Jan-Michael Mewes 
   J. Chem. Phys. 154, 000000 (2021). DOI: 10.1063/5.0040021

================================================================================
                                        WARNINGS
                       Please study these warnings very carefully!
================================================================================

Using LibXC functional ID 497 : Re-regularized SCAN exchange by Furness et al
[ 1]  J. W. Furness, A. D. Kaplan, J. Ning, J. P. Perdew, and J. Sun.,  J. Phys. Chem. Lett. 11, 8208-8215 (2020)
[ 2]  J. W. Furness, A. D. Kaplan, J. Ning, J. P. Perdew, and J. Sun.,  J. Phys. Chem. Lett. 11, 9248-9248 (2020)
Using LibXC functional ID 498 : Re-regularized SCAN correlation by Furness et al
[ 1]  J. W. Furness, A. D. Kaplan, J. Ning, J. P. Perdew, and J. Sun.,  J. Phys. Chem. Lett. 11, 8208-8215 (2020)
[ 2]  J. W. Furness, A. D. Kaplan, J. Ning, J. P. Perdew, and J. Sun.,  J. Phys. Chem. Lett. 11, 9248-9248 (2020)
Using LibXC functional ID 497 : Re-regularized SCAN exchange by Furness et al
[ 1]  J. W. Furness, A. D. Kaplan, J. Ning, J. P. Perdew, and J. Sun.,  J. Phys. Chem. Lett. 11, 8208-8215 (2020)
[ 2]  J. W. Furness, A. D. Kaplan, J. Ning, J. P. Perdew, and J. Sun.,  J. Phys. Chem. Lett. 11, 9248-9248 (2020)
Using LibXC functional ID 498 : Re-regularized SCAN correlation by Furness et al
[ 1]  J. W. Furness, A. D. Kaplan, J. Ning, J. P. Perdew, and J. Sun.,  J. Phys. Chem. Lett. 11, 8208-8215 (2020)
[ 2]  J. W. Furness, A. D. Kaplan, J. Ning, J. P. Perdew, and J. Sun.,  J. Phys. Chem. Lett. 11, 9248-9248 (2020)

================================================================================
                                       INPUT FILE
================================================================================
NAME = vacuum_censo.inp
|  1> ! r2SCAN-3c DEF2-TZVP FREQ
|  2> * xyzfile 0 1 vacuum_censo.xyz
|  3> 
|  4>                          ****END OF INPUT****
================================================================================

                       ****************************
                       * Single Point Calculation *
                       ****************************

---------------------------------
CARTESIAN COORDINATES (ANGSTROEM)
---------------------------------
  C     -2.425240    1.206125    0.338450
  C     -1.434804    0.155114   -0.169328
  C     -2.121030   -1.212184   -0.246405
  C     -0.172990    0.115763    0.721527
  C      1.191041   -0.018818    0.007990
  C      1.226091   -1.235708   -0.924191
  C      1.492893    1.251579   -0.798928
  C      2.274587   -0.186379    1.082515
  H     -2.727618    0.981987    1.368522
  H     -1.979843    2.206211    0.330455
  H     -3.330492    1.231223   -0.277584
  H     -1.140416    0.444043   -1.186878
  H     -1.440936   -1.992622   -0.596773
  H     -2.484955   -1.507516    0.744661
  H     -2.981239   -1.183789   -0.923719
  H     -0.128039    1.033228    1.323251
  H     -0.273629   -0.709664    1.440098
  H      1.016638   -2.159932   -0.374541
  H      2.216361   -1.334841   -1.382138
  H      0.495301   -1.145968   -1.733919
  H      0.741860    1.429612   -1.575245
  H      2.466360    1.170600   -1.294367
  H      1.518845    2.130752   -0.145753
  H      2.268512    0.657735    1.781255
  H      3.270047   -0.241332    0.628096
  H      2.114915   -1.104175    1.659053

----------------------------
CARTESIAN COORDINATES (A.U.)
----------------------------
  NO LB      ZA    FRAG     MASS         X           Y           Z
   0 C     6.0000    0    12.011   -4.583039    2.279246    0.639579
   1 C     6.0000    0    12.011   -2.711386    0.293122   -0.319984
   2 C     6.0000    0    12.011   -4.008166   -2.290695   -0.465637
   3 C     6.0000    0    12.011   -0.326904    0.218760    1.363489
   4 C     6.0000    0    12.011    2.250741   -0.035560    0.015099
   5 C     6.0000    0    12.011    2.316976   -2.335150   -1.746468
   6 C     6.0000    0    12.011    2.821158    2.365142   -1.509755
   7 C     6.0000    0    12.011    4.298347   -0.352205    2.045657
   8 H     1.0000    0     1.008   -5.154451    1.855687    2.586132
   9 H     1.0000    0     1.008   -3.741361    4.169134    0.624469
  10 H     1.0000    0     1.008   -6.293718    2.326673   -0.524559
  11 H     1.0000    0     1.008   -2.155075    0.839121   -2.242874
  12 H     1.0000    0     1.008   -2.722975   -3.765510   -1.127737
  13 H     1.0000    0     1.008   -4.695885   -2.848792    1.407205
  14 H     1.0000    0     1.008   -5.633725   -2.237037   -1.745575
  15 H     1.0000    0     1.008   -0.241959    1.952518    2.500582
  16 H     1.0000    0     1.008   -0.517085   -1.341071    2.721390
  17 H     1.0000    0     1.008    1.921166   -4.081679   -0.707780
  18 H     1.0000    0     1.008    4.188316   -2.522485   -2.611863
  19 H     1.0000    0     1.008    0.935983   -2.165566   -3.276632
  20 H     1.0000    0     1.008    1.401912    2.701574   -2.976782
  21 H     1.0000    0     1.008    4.660746    2.212112   -2.445999
  22 H     1.0000    0     1.008    2.870201    4.026538   -0.275433
  23 H     1.0000    0     1.008    4.286866    1.242939    3.366084
  24 H     1.0000    0     1.008    6.179493   -0.456052    1.186930
  25 H     1.0000    0     1.008    3.996609   -2.086589    3.135157

--------------------------------
INTERNAL COORDINATES (ANGSTROEM)
--------------------------------
 C      0   0   0     0.000000000000     0.00000000     0.00000000
 C      1   0   0     1.530825931591     0.00000000     0.00000000
 C      2   1   0     1.531779594529   109.85758786     0.00000000
 C      2   1   3     1.545103649413   110.76935117   235.93535209
 C      4   2   1     1.545259815214   117.18459554   221.58938165
 C      5   4   2     1.533300957758   111.71733515   305.56855259
 C      5   4   2     1.534972144033   110.13585633    67.40750937
 C      5   4   2     1.535172287780   108.01944303   185.90419168
 H      1   2   3     1.096685221058   110.46441492    64.63725975
 H      1   2   3     1.094811890317   111.19389261   184.28658679
 H      1   2   3     1.095267167423   111.34081366   304.94046825
 H      2   1   3     1.097976020809   107.47011675   117.21875101
 H      3   2   1     1.092871965925   112.01078347   180.54962149
 H      3   2   1     1.096300085732   110.10181227   300.36067206
 H      3   2   1     1.095225601187   111.09020370    59.67609216
 H      4   2   1     1.098104831586   109.15289337   343.12895401
 H      4   2   1     1.099000377066   108.74320066    98.15414423
 H      6   5   4     1.095525116229   111.10923752   302.07503477
 H      6   5   4     1.095526932635   110.28038462   182.56454894
 H      6   5   4     1.094425161164   111.68269869    63.02113089
 H      7   5   4     1.094721121452   111.86835624   298.85712512
 H      7   5   4     1.095288507473   110.57146162   179.05166941
 H      7   5   4     1.095562000981   110.81842039    59.40728124
 H      8   5   4     1.095811641703   110.99714678   302.51881163
 H      8   5   4     1.095653109590   110.88219177   182.54007147
 H      8   5   4     1.095555900862   110.91070093    62.57852349

---------------------------
INTERNAL COORDINATES (A.U.)
---------------------------
 C      0   0   0     0.000000000000     0.00000000     0.00000000
 C      1   0   0     2.892841769412     0.00000000     0.00000000
 C      2   1   0     2.894643931190   109.85758786     0.00000000
 C      2   1   3     2.919822745912   110.76935117   235.93535209
 C      4   2   1     2.920117856508   117.18459554   221.58938165
 C      5   4   2     2.897518891042   111.71733515   305.56855259
 C      5   4   2     2.900676975420   110.13585633    67.40750937
 C      5   4   2     2.901055192289   108.01944303   185.90419168
 H      1   2   3     2.072434722918   110.46441492    64.63725975
 H      1   2   3     2.068894640859   111.19389261   184.28658679
 H      1   2   3     2.069754989905   111.34081366   304.94046825
 H      2   1   3     2.074873980941   107.47011675   117.21875101
 H      3   2   1     2.065228715039   112.01078347   180.54962149
 H      3   2   1     2.071706922628   110.10181227   300.36067206
 H      3   2   1     2.069676441103   111.09020370    59.67609216
 H      4   2   1     2.075117398033   109.15289337   343.12895401
 H      4   2   1     2.076809733732   108.74320066    98.15414423
 H      6   5   4     2.070242442505   111.10923752   302.07503477
 H      6   5   4     2.070245875014   110.28038462   182.56454894
 H      6   5   4     2.068163828673   111.68269869    63.02113089
 H      7   5   4     2.068723112564   111.86835624   298.85712512
 H      7   5   4     2.069795316755   110.57146162   179.05166941
 H      7   5   4     2.070312144585   110.81842039    59.40728124
 H      8   5   4     2.070783897180   110.99714678   302.51881163
 H      8   5   4     2.070484314904   110.88219177   182.54007147
 H      8   5   4     2.070300617031   110.91070093    62.57852349

---------------------
BASIS SET INFORMATION
---------------------
There are 2 groups of distinct atoms

 Group   1 Type C   : 11s6p2d1f contracted to 5s3p2d1f pattern {62111/411/11/1}
 Group   2 Type H   : 5s1p contracted to 3s1p pattern {311/1}

Atom   0C    basis set group =>   1
Atom   1C    basis set group =>   1
Atom   2C    basis set group =>   1
Atom   3C    basis set group =>   1
Atom   4C    basis set group =>   1
Atom   5C    basis set group =>   1
Atom   6C    basis set group =>   1
Atom   7C    basis set group =>   1
Atom   8H    basis set group =>   2
Atom   9H    basis set group =>   2
Atom  10H    basis set group =>   2
Atom  11H    basis set group =>   2
Atom  12H    basis set group =>   2
Atom  13H    basis set group =>   2
Atom  14H    basis set group =>   2
Atom  15H    basis set group =>   2
Atom  16H    basis set group =>   2
Atom  17H    basis set group =>   2
Atom  18H    basis set group =>   2
Atom  19H    basis set group =>   2
Atom  20H    basis set group =>   2
Atom  21H    basis set group =>   2
Atom  22H    basis set group =>   2
Atom  23H    basis set group =>   2
Atom  24H    basis set group =>   2
Atom  25H    basis set group =>   2
---------------------------------
AUXILIARY/J BASIS SET INFORMATION
---------------------------------
There are 2 groups of distinct atoms

 Group   1 Type C   : 8s3p3d contracted to 6s3p3d pattern {311111/111/111}
 Group   2 Type H   : 5s2p1d contracted to 3s1p1d pattern {311/2/1}

Atom   0C    basis set group =>   1
Atom   1C    basis set group =>   1
Atom   2C    basis set group =>   1
Atom   3C    basis set group =>   1
Atom   4C    basis set group =>   1
Atom   5C    basis set group =>   1
Atom   6C    basis set group =>   1
Atom   7C    basis set group =>   1
Atom   8H    basis set group =>   2
Atom   9H    basis set group =>   2
Atom  10H    basis set group =>   2
Atom  11H    basis set group =>   2
Atom  12H    basis set group =>   2
Atom  13H    basis set group =>   2
Atom  14H    basis set group =>   2
Atom  15H    basis set group =>   2
Atom  16H    basis set group =>   2
Atom  17H    basis set group =>   2
Atom  18H    basis set group =>   2
Atom  19H    basis set group =>   2
Atom  20H    basis set group =>   2
Atom  21H    basis set group =>   2
Atom  22H    basis set group =>   2
Atom  23H    basis set group =>   2
Atom  24H    basis set group =>   2
Atom  25H    basis set group =>   2
------------------------------------------------------------------------------
                             ORCA STARTUP CALCULATIONS
                           -- RI-GTO INTEGRALS CHOSEN --
------------------------------------------------------------------------------
------------------------------------------------------------------------------
                   ___                                                        
                  /   \      - P O W E R E D   B Y -                         
                 /     \                                                     
                 |  |  |   _    _      __       _____    __    __             
                 |  |  |  | |  | |    /  \     |  _  \  |  |  /  |          
                  \  \/   | |  | |   /    \    | | | |  |  | /  /          
                 / \  \   | |__| |  /  /\  \   | |_| |  |  |/  /          
                |  |  |   |  __  | /  /__\  \  |    /   |      \           
                |  |  |   | |  | | |   __   |  |    \   |  |\   \          
                \     /   | |  | | |  |  |  |  | |\  \  |  | \   \       
                 \___/    |_|  |_| |__|  |__|  |_| \__\ |__|  \__/        
                                                                              
                      - O R C A' S   B I G   F R I E N D -                    
                                      &                                       
                       - I N T E G R A L  F E E D E R -                       
                                                                              
 v1 FN, 2020, v2 2021, v3 2022-2024                                           
------------------------------------------------------------------------------


----------------------
SHARK INTEGRAL PACKAGE
----------------------

Number of atoms                             ...     26
Number of basis functions                   ...    356
Number of shells                            ...    160
Maximum angular momentum                    ...      3
Integral batch strategy                     ... SHARK/LIBINT Hybrid
RI-J (if used) integral strategy            ... SPLIT-RIJ (Revised 2003 algorithm where possible)
Printlevel                                  ...      1
Contraction scheme used                     ... SEGMENTED contraction
Prescreening option                         ... SCHWARTZ
   Thresh                                   ... 1.000e-10
   Tcut                                     ... 1.000e-11
   Tpresel                                  ... 1.000e-11 
Coulomb Range Separation                    ... NOT USED
Exchange Range Separation                   ... NOT USED
Multipole approximations                    ... NOT USED
Finite Nucleus Model                        ... NOT USED
CABS basis                                  ... NOT available
Auxiliary Coulomb fitting basis             ... AVAILABLE
   # of basis functions in Aux-J            ...    438
   # of shells in Aux-J                     ...    186
   Maximum angular momentum in Aux-J        ...      2
Auxiliary J/K fitting basis                 ... NOT available
Auxiliary Correlation fitting basis         ... NOT available
Auxiliary 'external' fitting basis          ... NOT available

Checking pre-screening integrals            ... done (  0.0 sec) Dimension = 160
Check shell pair data                       ... done (  0.0 sec)
Shell pair information
Shell pair cut-off parameter TPreSel        ...   1.0e-11
Total number of shell pairs                 ...     12880
Shell pairs after pre-screening             ...     11691
Total number of primitive shell pairs       ...     36276
Primitive shell pairs kept                  ...     24700
          la=0 lb=0:   3954 shell pairs
          la=1 lb=0:   3578 shell pairs
          la=1 lb=1:    830 shell pairs
          la=2 lb=0:   1405 shell pairs
          la=2 lb=1:    634 shell pairs
          la=2 lb=2:    131 shell pairs
          la=3 lb=0:    688 shell pairs
          la=3 lb=1:    313 shell pairs
          la=3 lb=2:    122 shell pairs
          la=3 lb=3:     36 shell pairs

Calculating one electron integrals          ... done (  0.1 sec)
Calculating RI/J V-Matrix + Cholesky decomp.... done (  0.1 sec)
Calculating Nuclear repulsion               ... done (  0.0 sec) ENN=    419.222904048351 Eh

Diagonalization of the overlap matrix:
Smallest eigenvalue                        ... 1.036e-04
Time for diagonalization                   ...    0.013 sec
Threshold for overlap eigenvalues          ... 1.000e-07
Number of eigenvalues below threshold      ... 0
Time for construction of square roots      ...    0.022 sec
Total time needed                          ...    0.044 sec

-------------------
DFT GRID GENERATION
-------------------

General Integration Accuracy     IntAcc      ... 4.388
Radial Grid Type                 RadialGrid  ... OptM3 with GC (2021)
Angular Grid (max. ang.)         AngularGrid ... 4 (Lebedev-302)
Angular grid pruning method      GridPruning ... 4 (adaptive)
Weight generation scheme         WeightScheme... mBecke (2022)
Basis function cutoff            BFCut       ... 1.0000e-10
Integration weight cutoff        WCut        ... 1.0000e-14
Partially contracted basis set               ... off
Rotationally invariant grid construction     ... off
Angular grids for H and He will be reduced by one unit

Total number of grid points                  ...   104955
Total number of batches                      ...     1652
Average number of points per batch           ...       63
Average number of grid points per atom       ...     4037
Initializing property integral containers    ... done (  0.0 sec)

SHARK setup successfully completed in   1.7 seconds

Maximum memory used throughout the entire STARTUP-calculation: 57.5 MB
-------------------------------------------------------------------------------
                                 ORCA GUESS
                   Start orbitals & Density for SCF / CASSCF
-------------------------------------------------------------------------------

------------
SCF SETTINGS
------------
Hamiltonian:
 Density Functional     Method          .... DFT(GTOs)
  Functional kind                       .... Exchange
  Functional name                       .... Re-regularized SCAN exchange by Furness et al
  Functional family                     .... MGGA
  Functional refs                              
    [ 0] J. W. Furness, A. D. Kaplan, J. Ning, J. P. Perdew, and J. Sun.,  J. Phys. Chem. Lett. 11, 8208-8215 (2020), doi: 10.1021/acs.jpclett.0c02405
    [ 1] J. W. Furness, A. D. Kaplan, J. Ning, J. P. Perdew, and J. Sun.,  J. Phys. Chem. Lett. 11, 9248-9248 (2020), doi: 10.1021/acs.jpclett.0c03077
  Functional external parameters        .... 6
    Parameter  0 _c1        =  6.670000e-01 : c1 parameter        
    Parameter  1 _c2        =  8.000000e-01 : c2 parameter        
    Parameter  2 _d         =  1.240000e+00 : d parameter         
    Parameter  3 _k1        =  6.500000e-02 : k1 parameter        
    Parameter  4 _eta       =  1.000000e-03 : eta parameter       
    Parameter  5 _dp2       =  3.610000e-01 : dp2 parameter       
  Functional kind                       .... Correlation
  Functional name                       .... Re-regularized SCAN correlation by Furness et al
  Functional family                     .... MGGA
  Functional refs                              
    [ 0] J. W. Furness, A. D. Kaplan, J. Ning, J. P. Perdew, and J. Sun.,  J. Phys. Chem. Lett. 11, 8208-8215 (2020), doi: 10.1021/acs.jpclett.0c02405
    [ 1] J. W. Furness, A. D. Kaplan, J. Ning, J. P. Perdew, and J. Sun.,  J. Phys. Chem. Lett. 11, 9248-9248 (2020), doi: 10.1021/acs.jpclett.0c03077
  Functional external parameters        .... 1
    Parameter  0 _eta       =  1.000000e-03 : Regularization parameter
 Gradients option       PostSCFGGA      .... off
 RI-approximation to the Coulomb term is turned on
   Number of AuxJ basis functions       .... 438


General Settings:
 Integral files         IntName         .... vacuum_censo
 Hartree-Fock type      HFTyp           .... RHF
 Total Charge           Charge          ....    0
 Multiplicity           Mult            ....    1
 Number of Electrons    NEL             ....   66
 Basis Dimension        Dim             ....  356
 Nuclear Repulsion      ENuc            ....    419.2229040484 Eh

Convergence Acceleration:
 AO-DIIS                CNVDIIS         .... on
   Start iteration      DIISMaxIt       ....    12
   Startup error        DIISStart       ....  0.200000
   # of expansion vecs  DIISMaxEq       ....     5
   Bias factor          DIISBfac        ....   1.050
   Max. coefficient     DIISMaxC        ....  10.000
 MO-DIIS                CNVKDIIS        .... off
 Trust-Rad. Augm. Hess. CNVTRAH         .... auto
   Auto Start mean grad. ratio tolernc. ....  1.125000
   Auto Start start iteration           ....    50
   Auto Start num. interpolation iter.  ....    10
   Max. Number of Micro iterations      ....    24
   Max. Number of Macro iterations      .... Maxiter - #DIIS iter
   Number of Davidson start vectors     ....     2
   Converg. threshold    (grad. norm)   ....   5.000e-05
   Grad. Scal. Fac. for Micro threshold ....   0.100
   Minimum threshold for Micro iter.    ....   1.000e-02
   NR start threshold (gradient norm)   ....   1.000e-04
   Initial trust radius                 ....   0.400
   Minimum AH scaling param. (alpha)    ....   1.000
   Maximum AH scaling param. (alpha)    .... 1000.000
   Quad. conv. algorithm                .... NR
   White noise on init. David. guess    .... on
   Maximum white noise                  ....   0.010
   Pseudo random numbers                .... off
   Inactive MOs                         .... canonical
   Orbital update algorithm             .... Taylor
   Preconditioner                       .... Diag
   Full preconditioner red. dimension   ....   250
   COSX micro iterations for RIJONX calc.... off
 SOSCF                  CNVSOSCF        .... on
   Start iteration      SOSCFMaxIt      ....   150
   Startup grad/error   SOSCFStart      ....  0.003300
   Hessian update       SOSCFHessUp     .... L-BFGS
 Level Shifting         CNVShift        .... on
   Level shift para.    LevelShift      ....    0.2500
   Turn off err/grad.   ShiftErr        ....    0.0010
 Zerner damping         CNVZerner       .... off
 Static damping         CNVDamp         .... on
   Fraction old density DampFac         ....    0.7000
   Max. Damping (<1)    DampMax         ....    0.9800
   Min. Damping (>=0)   DampMin         ....    0.0000
   Turn off err/grad.   DampErr         ....    0.1000

SCF Procedure:
 Maximum # iterations   MaxIter         ....   125
 SCF integral mode      SCFMode         .... Direct
   Integral package                     .... SHARK and LIBINT hybrid scheme
 Reset frequency        DirectResetFreq ....    20
 Integral Threshold     Thresh          ....  1.000e-10 Eh
 Primitive CutOff       TCut            ....  1.000e-11 Eh

Convergence Tolerance:
 Convergence Check Mode ConvCheckMode   .... Total+1el-Energy
 Convergence forced     ConvForced      .... 0
 Energy Change          TolE            ....  1.000e-06 Eh
 1-El. energy change                    ....  1.000e-03 Eh
 Orbital Gradient       TolG            ....  5.000e-05
 Orbital Rotation angle TolX            ....  5.000e-05
 DIIS Error             TolErr          ....  1.000e-06

------------------------------
INITIAL GUESS: MODEL POTENTIAL
------------------------------
Loading Hartree-Fock densities                     ... done
Calculating cut-offs                               ... done
Initializing the effective Hamiltonian             ... done
Setting up the integral package (SHARK)            ... done
Starting the Coulomb interaction                   ... done (   0.6 sec)
Making the grid                                    ... done (   0.3 sec)
Mapping shells                                     ... done
Starting the XC term evaluation                    ... done (   0.6 sec)
  promolecular density results
     # of electrons  =     65.996830454
     EX              =    -46.232219505
     EC              =     -2.146388046
     EX+EC           =    -48.378607551
Transforming the Hamiltonian                       ... done (   0.0 sec)
Diagonalizing the Hamiltonian                      ... done (   0.0 sec)
Back transforming the eigenvectors                 ... done (   0.0 sec)
Now organizing SCF variables                       ... done
                      ------------------
                      INITIAL GUESS DONE (   1.6 sec)
                      ------------------
             **** ENERGY FILE WAS UPDATED (vacuum_censo.en.tmp) ****
Finished Guess after   1.9 sec
Maximum memory used throughout the entire GUESS-calculation: 36.8 MB

-------------------------------------------------------------------------------------------
                                      ORCA LEAN-SCF
                              memory conserving SCF solver
-------------------------------------------------------------------------------------------

----------------------------------------D-I-I-S--------------------------------------------
Iteration    Energy (Eh)           Delta-E    RMSDP     MaxDP     DIISErr   Damp  Time(sec)
-------------------------------------------------------------------------------------------
               ***  Starting incremental Fock matrix formation  ***
    1    -315.2872972578396684     0.00e+00  1.26e-03  3.45e-02  1.88e-01  0.700   5.5
    2    -315.4470811363365783    -1.60e-01  9.44e-04  2.26e-02  9.46e-02  0.700   4.7
                               ***Turning on AO-DIIS***
    3    -315.5064656650109782    -5.94e-02  4.35e-04  1.57e-02  3.21e-02  0.700   4.7
    4    -315.5403224674475950    -3.39e-02  7.54e-04  4.06e-02  1.38e-02  0.000   4.4
    5    -315.6159530465633907    -7.56e-02  1.91e-04  4.93e-03  9.25e-03  0.000   4.6
                              *** Initializing SOSCF ***
---------------------------------------S-O-S-C-F--------------------------------------
Iteration    Energy (Eh)           Delta-E    RMSDP     MaxDP     MaxGrad    Time(sec)
--------------------------------------------------------------------------------------
    6    -315.6168397082129786    -8.87e-04  9.02e-05  2.44e-03  2.07e-03     4.3
               *** Restarting incremental Fock matrix formation ***
    7    -315.6169088681668882    -6.92e-05  6.40e-05  1.63e-03  3.49e-04     5.4
    8    -315.6169080560828206     8.12e-07  1.45e-05  4.76e-04  2.49e-04     3.9
                 **** Energy Check signals convergence ****

               *****************************************************
               *                     SUCCESS                       *
               *           SCF CONVERGED AFTER   8 CYCLES          *
               *****************************************************

             **** ENERGY FILE WAS UPDATED (vacuum_censo.en.tmp) ****

----------------
TOTAL SCF ENERGY
----------------

Total Energy       :       -315.61690805608282 Eh           -8588.37269 eV

Components:
Nuclear Repulsion  :        419.22290404835132 Eh           11407.63517 eV
Electronic Energy  :       -734.83981210443415 Eh          -19996.00786 eV
One Electron Energy:      -1254.46636138781150 Eh          -34135.76512 eV
Two Electron Energy:        519.62654928337736 Eh           14139.75726 eV

Virial components:
Potential Energy   :       -629.49005715900319 Eh          -17129.29529 eV
Kinetic Energy     :        313.87314910292037 Eh            8540.92260 eV
Virial Ratio       :          2.00555561684122

DFT components:
N(Alpha)           :       33.000174615071 electrons
N(Beta)            :       33.000174615071 electrons
N(Total)           :       66.000349230142 electrons
E(X)               :      -48.008875932201 Eh       
E(C)               :       -2.028343155950 Eh       
E(XC)              :      -50.037219088152 Eh       

---------------
SCF CONVERGENCE
---------------

  Last Energy change         ...   -8.1208e-07  Tolerance :   1.0000e-06
  Last MAX-Density change    ...    4.7602e-04  Tolerance :   1.0000e-05
  Last RMS-Density change    ...    1.4460e-05  Tolerance :   1.0000e-06
  Last DIIS Error            ...    2.0697e-03  Tolerance :   1.0000e-06
  Last Orbital Gradient      ...    2.4912e-04  Tolerance :   5.0000e-05
  Last Orbital Rotation      ...    1.7551e-04  Tolerance :   5.0000e-05


----------------
ORBITAL ENERGIES
----------------

  NO   OCC          E(Eh)            E(eV) 
   0   2.0000     -10.044277      -273.3187 
   1   2.0000     -10.033492      -273.0252 
   2   2.0000     -10.019961      -272.6570 
   3   2.0000     -10.015187      -272.5271 
   4   2.0000     -10.014717      -272.5143 
   5   2.0000     -10.014569      -272.5103 
   6   2.0000     -10.014152      -272.4989 
   7   2.0000     -10.013800      -272.4893 
   8   2.0000      -0.794878       -21.6297 
   9   2.0000      -0.750426       -20.4201 
  10   2.0000      -0.652616       -17.7586 
  11   2.0000      -0.648648       -17.6506 
  12   2.0000      -0.642618       -17.4865 
  13   2.0000      -0.639646       -17.4057 
  14   2.0000      -0.534144       -14.5348 
  15   2.0000      -0.497173       -13.5288 
  16   2.0000      -0.437223       -11.8974 
  17   2.0000      -0.421849       -11.4791 
  18   2.0000      -0.411125       -11.1873 
  19   2.0000      -0.394897       -10.7457 
  20   2.0000      -0.388143       -10.5619 
  21   2.0000      -0.382121       -10.3980 
  22   2.0000      -0.353986        -9.6325 
  23   2.0000      -0.350275        -9.5315 
  24   2.0000      -0.346651        -9.4329 
  25   2.0000      -0.330700        -8.9988 
  26   2.0000      -0.325004        -8.8438 
  27   2.0000      -0.318594        -8.6694 
  28   2.0000      -0.304346        -8.2817 
  29   2.0000      -0.297856        -8.1051 
  30   2.0000      -0.283988        -7.7277 
  31   2.0000      -0.277056        -7.5391 
  32   2.0000      -0.271456        -7.3867 
  33   0.0000       0.031377         0.8538 
  34   0.0000       0.060442         1.6447 
  35   0.0000       0.066117         1.7991 
  36   0.0000       0.078537         2.1371 
  37   0.0000       0.085136         2.3167 
  38   0.0000       0.089746         2.4421 
  39   0.0000       0.096891         2.6365 
  40   0.0000       0.107498         2.9252 
  41   0.0000       0.110150         2.9973 
  42   0.0000       0.119480         3.2512 
  43   0.0000       0.124185         3.3792 
*Only the first 10 virtual orbitals were printed.

                    ********************************
                    * MULLIKEN POPULATION ANALYSIS *
                    ********************************

-----------------------
MULLIKEN ATOMIC CHARGES
-----------------------
   0 C :   -0.342128
   1 C :    0.041062
   2 C :   -0.358885
   3 C :   -0.201103
   4 C :    0.136137
   5 C :   -0.372252
   6 C :   -0.354996
   7 C :   -0.343136
   8 H :    0.101505
   9 H :    0.105155
  10 H :    0.103881
  11 H :    0.045490
  12 H :    0.112684
  13 H :    0.099846
  14 H :    0.102079
  15 H :    0.085408
  16 H :    0.087148
  17 H :    0.108222
  18 H :    0.106912
  19 H :    0.111197
  20 H :    0.105266
  21 H :    0.104436
  22 H :    0.104032
  23 H :    0.104378
  24 H :    0.103925
  25 H :    0.103737
Sum of atomic charges:   -0.0000000

--------------------------------
MULLIKEN REDUCED ORBITAL CHARGES
--------------------------------
  0 C s       :     3.283117  s :     3.283117
      pz      :     1.028245  p :     3.007499
      px      :     0.990103
      py      :     0.989151
      dz2     :     0.010683  d :     0.047672
      dxz     :     0.011880
      dyz     :     0.003402
      dx2y2   :     0.016290
      dxy     :     0.005416
      f0      :     0.000574  f :     0.003841
      f+1     :     0.000630
      f-1     :     0.000347
      f+2     :     0.000232
      f-2     :     0.000466
      f+3     :     0.001035
      f-3     :     0.000556

  1 C s       :     3.136326  s :     3.136326
      pz      :     0.911231  p :     2.684271
      px      :     0.890014
      py      :     0.883025
      dz2     :     0.023096  d :     0.129339
      dxz     :     0.022174
      dyz     :     0.023631
      dx2y2   :     0.034040
      dxy     :     0.026397
      f0      :     0.000904  f :     0.009003
      f+1     :     0.001463
      f-1     :     0.000631
      f+2     :     0.000770
      f-2     :     0.001616
      f+3     :     0.001717
      f-3     :     0.001901

  2 C s       :     3.287454  s :     3.287454
      pz      :     1.045886  p :     3.019896
      px      :     1.028266
      py      :     0.945745
      dz2     :     0.002709  d :     0.047746
      dxz     :     0.009749
      dyz     :     0.013423
      dx2y2   :     0.011244
      dxy     :     0.010621
      f0      :     0.000566  f :     0.003789
      f+1     :     0.000583
      f-1     :     0.000169
      f+2     :     0.000210
      f-2     :     0.000535
      f+3     :     0.000844
      f-3     :     0.000882

  3 C s       :     3.224468  s :     3.224468
      pz      :     0.945489  p :     2.894746
      px      :     0.921062
      py      :     1.028195
      dz2     :     0.014102  d :     0.075719
      dxz     :     0.012877
      dyz     :     0.019080
      dx2y2   :     0.014397
      dxy     :     0.015262
      f0      :     0.000270  f :     0.006169
      f+1     :     0.001392
      f-1     :    -0.000054
      f+2     :     0.002336
      f-2     :     0.000906
      f+3     :     0.000311
      f-3     :     0.001008

  4 C s       :     3.031157  s :     3.031157
      pz      :     0.869582  p :     2.643509
      px      :     0.900102
      py      :     0.873825
      dz2     :     0.031173  d :     0.177493
      dxz     :     0.037556
      dyz     :     0.040399
      dx2y2   :     0.037777
      dxy     :     0.030587
      f0      :     0.000743  f :     0.011704
      f+1     :     0.001569
      f-1     :     0.001730
      f+2     :     0.002923
      f-2     :     0.002208
      f+3     :     0.001256
      f-3     :     0.001275

  5 C s       :     3.293957  s :     3.293957
      pz      :     1.001637  p :     3.027732
      px      :     1.062893
      py      :     0.963202
      dz2     :     0.008979  d :     0.046792
      dxz     :     0.013058
      dyz     :     0.006646
      dx2y2   :     0.010633
      dxy     :     0.007477
      f0      :     0.000084  f :     0.003771
      f+1     :     0.000105
      f-1     :     0.000681
      f+2     :     0.001858
      f-2     :     0.000575
      f+3     :     0.000382
      f-3     :     0.000085

  6 C s       :     3.289637  s :     3.289637
      pz      :     1.013135  p :     3.015043
      px      :     1.043827
      py      :     0.958081
      dz2     :     0.006701  d :     0.046559
      dxz     :     0.011510
      dyz     :     0.009701
      dx2y2   :     0.011447
      dxy     :     0.007199
      f0      :    -0.000026  f :     0.003757
      f+1     :     0.000070
      f-1     :     0.000700
      f+2     :     0.001901
      f-2     :     0.000534
      f+3     :     0.000362
      f-3     :     0.000216

  7 C s       :     3.290958  s :     3.290958
      pz      :     0.983589  p :     3.002539
      px      :     0.975613
      py      :     1.043336
      dz2     :     0.009213  d :     0.045821
      dxz     :     0.004762
      dyz     :     0.015905
      dx2y2   :     0.011421
      dxy     :     0.004519
      f0      :     0.000298  f :     0.003818
      f+1     :     0.000571
      f-1     :     0.000088
      f+2     :     0.002006
      f-2     :     0.000598
      f+3     :     0.000093
      f-3     :     0.000164

  8 H s       :     0.875677  s :     0.875677
      pz      :     0.011604  p :     0.022818
      px      :     0.005818
      py      :     0.005397

  9 H s       :     0.871922  s :     0.871922
      pz      :     0.005244  p :     0.022923
      px      :     0.006121
      py      :     0.011558

 10 H s       :     0.873138  s :     0.873138
      pz      :     0.007235  p :     0.022981
      px      :     0.010516
      py      :     0.005230

 11 H s       :     0.930108  s :     0.930108
      pz      :     0.012468  p :     0.024402
      px      :     0.006069
      py      :     0.005865

 12 H s       :     0.863819  s :     0.863819
      pz      :     0.006025  p :     0.023497
      px      :     0.008083
      py      :     0.009389

 13 H s       :     0.877245  s :     0.877245
      pz      :     0.010908  p :     0.022909
      px      :     0.006066
      py      :     0.005935

 14 H s       :     0.874913  s :     0.874913
      pz      :     0.007869  p :     0.023008
      px      :     0.009910
      py      :     0.005229

 15 H s       :     0.891045  s :     0.891045
      pz      :     0.007983  p :     0.023547
      px      :     0.005326
      py      :     0.010237

 16 H s       :     0.889529  s :     0.889529
      pz      :     0.008827  p :     0.023323
      px      :     0.005325
      py      :     0.009171

 17 H s       :     0.868794  s :     0.868794
      pz      :     0.006732  p :     0.022984
      px      :     0.005467
      py      :     0.010786

 18 H s       :     0.869999  s :     0.869999
      pz      :     0.006725  p :     0.023089
      px      :     0.010972
      py      :     0.005392

 19 H s       :     0.865457  s :     0.865457
      pz      :     0.009415  p :     0.023346
      px      :     0.008644
      py      :     0.005287

 20 H s       :     0.871099  s :     0.871099
      pz      :     0.009179  p :     0.023634
      px      :     0.008839
      py      :     0.005615

 21 H s       :     0.872462  s :     0.872462
      pz      :     0.006933  p :     0.023102
      px      :     0.010916
      py      :     0.005253

 22 H s       :     0.872962  s :     0.872962
      pz      :     0.007441  p :     0.023006
      px      :     0.005248
      py      :     0.010317

 23 H s       :     0.872664  s :     0.872664
      pz      :     0.008466  p :     0.022958
      px      :     0.005229
      py      :     0.009264

 24 H s       :     0.873021  s :     0.873021
      pz      :     0.006168  p :     0.023054
      px      :     0.011613
      py      :     0.005273

 25 H s       :     0.873284  s :     0.873284
      pz      :     0.007505  p :     0.022980
      px      :     0.005286
      py      :     0.010189



                     *******************************
                     * LOEWDIN POPULATION ANALYSIS *
                     *******************************

----------------------
LOEWDIN ATOMIC CHARGES
----------------------
   0 C :   -0.288776
   1 C :   -0.307037
   2 C :   -0.288923
   3 C :   -0.198610
   4 C :   -0.363872
   5 C :   -0.262117
   6 C :   -0.261332
   7 C :   -0.262622
   8 H :    0.120446
   9 H :    0.118070
  10 H :    0.117912
  11 H :    0.144544
  12 H :    0.117883
  13 H :    0.119789
  14 H :    0.118350
  15 H :    0.142037
  16 H :    0.141772
  17 H :    0.121742
  18 H :    0.122442
  19 H :    0.121789
  20 H :    0.118919
  21 H :    0.122109
  22 H :    0.122045
  23 H :    0.121578
  24 H :    0.120954
  25 H :    0.120907

-------------------------------
LOEWDIN REDUCED ORBITAL CHARGES
-------------------------------
  0 C s       :     2.839181  s :     2.839181
      pz      :     1.065813  p :     3.157311
      px      :     1.048776
      py      :     1.042722
      dz2     :     0.059532  d :     0.267671
      dxz     :     0.061468
      dyz     :     0.021882
      dx2y2   :     0.077788
      dxy     :     0.047001
      f0      :     0.002589  f :     0.024613
      f+1     :     0.002372
      f-1     :     0.003855
      f+2     :     0.003826
      f-2     :     0.003343
      f+3     :     0.005359
      f-3     :     0.003269

  1 C s       :     2.742694  s :     2.742694
      pz      :     0.991072  p :     2.982702
      px      :     0.987195
      py      :     1.004435
      dz2     :     0.104092  d :     0.527202
      dxz     :     0.098250
      dyz     :     0.083152
      dx2y2   :     0.115978
      dxy     :     0.125731
      f0      :     0.005221  f :     0.054438
      f+1     :     0.007378
      f-1     :     0.005579
      f+2     :     0.006236
      f-2     :     0.009792
      f+3     :     0.008703
      f-3     :     0.011529

  2 C s       :     2.837692  s :     2.837692
      pz      :     1.068559  p :     3.160591
      px      :     1.056006
      py      :     1.036026
      dz2     :     0.033107  d :     0.266080
      dxz     :     0.056138
      dyz     :     0.052741
      dx2y2   :     0.057215
      dxy     :     0.066878
      f0      :     0.003381  f :     0.024560
      f+1     :     0.001960
      f-1     :     0.002863
      f+2     :     0.003642
      f-2     :     0.002999
      f+3     :     0.004064
      f-3     :     0.005652

  3 C s       :     2.780693  s :     2.780693
      pz      :     1.002172  p :     2.994125
      px      :     0.973394
      py      :     1.018560
      dz2     :     0.050668  d :     0.386757
      dxz     :     0.085895
      dyz     :     0.099964
      dx2y2   :     0.093910
      dxy     :     0.056320
      f0      :     0.004590  f :     0.037035
      f+1     :     0.008771
      f-1     :     0.001486
      f+2     :     0.005825
      f-2     :     0.004540
      f+3     :     0.003901
      f-3     :     0.007923

  4 C s       :     2.704425  s :     2.704425
      pz      :     0.984549  p :     2.937891
      px      :     0.969137
      py      :     0.984205
      dz2     :     0.099726  d :     0.651766
      dxz     :     0.148911
      dyz     :     0.155235
      dx2y2   :     0.146616
      dxy     :     0.101279
      f0      :     0.008075  f :     0.069790
      f+1     :     0.010113
      f-1     :     0.011223
      f+2     :     0.009023
      f-2     :     0.012815
      f+3     :     0.009034
      f-3     :     0.009508

  5 C s       :     2.832251  s :     2.832251
      pz      :     1.045171  p :     3.139444
      px      :     1.062181
      py      :     1.032091
      dz2     :     0.037407  d :     0.265955
      dxz     :     0.073931
      dyz     :     0.057724
      dx2y2   :     0.069186
      dxy     :     0.027706
      f0      :     0.003710  f :     0.024467
      f+1     :     0.001876
      f-1     :     0.004876
      f+2     :     0.004068
      f-2     :     0.003419
      f+3     :     0.004152
      f-3     :     0.002367

  6 C s       :     2.832884  s :     2.832884
      pz      :     1.050759  p :     3.138601
      px      :     1.059296
      py      :     1.028546
      dz2     :     0.027393  d :     0.265440
      dxz     :     0.069606
      dyz     :     0.069048
      dx2y2   :     0.070987
      dxy     :     0.028405
      f0      :     0.003129  f :     0.024406
      f+1     :     0.001808
      f-1     :     0.005180
      f+2     :     0.004339
      f-2     :     0.002668
      f+3     :     0.004107
      f-3     :     0.003176

  7 C s       :     2.835236  s :     2.835236
      pz      :     1.037684  p :     3.136310
      px      :     1.035844
      py      :     1.062782
      dz2     :     0.037327  d :     0.266635
      dxz     :     0.050005
      dyz     :     0.088426
      dx2y2   :     0.073185
      dxy     :     0.017691
      f0      :     0.005060  f :     0.024441
      f+1     :     0.004175
      f-1     :     0.001593
      f+2     :     0.004490
      f-2     :     0.003568
      f+3     :     0.002515
      f-3     :     0.003040

  8 H s       :     0.817196  s :     0.817196
      pz      :     0.032660  p :     0.062358
      px      :     0.015160
      py      :     0.014538

  9 H s       :     0.819415  s :     0.819415
      pz      :     0.014038  p :     0.062515
      px      :     0.017150
      py      :     0.031327

 10 H s       :     0.819580  s :     0.819580
      pz      :     0.020714  p :     0.062508
      px      :     0.028336
      py      :     0.013457

 11 H s       :     0.796425  s :     0.796425
      pz      :     0.029604  p :     0.059031
      px      :     0.014542
      py      :     0.014884

 12 H s       :     0.818229  s :     0.818229
      pz      :     0.016448  p :     0.063888
      px      :     0.022897
      py      :     0.024543

 13 H s       :     0.817812  s :     0.817812
      pz      :     0.031397  p :     0.062399
      px      :     0.016102
      py      :     0.014900

 14 H s       :     0.819095  s :     0.819095
      pz      :     0.022045  p :     0.062555
      px      :     0.027092
      py      :     0.013418

 15 H s       :     0.797617  s :     0.797617
      pz      :     0.019629  p :     0.060346
      px      :     0.012596
      py      :     0.028121

 16 H s       :     0.797872  s :     0.797872
      pz      :     0.022109  p :     0.060356
      px      :     0.012904
      py      :     0.025343

 17 H s       :     0.815660  s :     0.815660
      pz      :     0.019233  p :     0.062597
      px      :     0.014731
      py      :     0.028633

 18 H s       :     0.814987  s :     0.814987
      pz      :     0.017402  p :     0.062571
      px      :     0.031493
      py      :     0.013677

 19 H s       :     0.814875  s :     0.814875
      pz      :     0.025499  p :     0.063336
      px      :     0.023977
      py      :     0.013860

 20 H s       :     0.817318  s :     0.817318
      pz      :     0.024643  p :     0.063763
      px      :     0.024944
      py      :     0.014176

 21 H s       :     0.815216  s :     0.815216
      pz      :     0.018212  p :     0.062674
      px      :     0.030891
      py      :     0.013572

 22 H s       :     0.815353  s :     0.815353
      pz      :     0.021444  p :     0.062602
      px      :     0.014019
      py      :     0.027140

 23 H s       :     0.815820  s :     0.815820
      pz      :     0.022304  p :     0.062602
      px      :     0.013572
      py      :     0.026726

 24 H s       :     0.816473  s :     0.816473
      pz      :     0.017252  p :     0.062573
      px      :     0.031266
      py      :     0.014055

 25 H s       :     0.816488  s :     0.816488
      pz      :     0.019560  p :     0.062605
      px      :     0.014000
      py      :     0.029045



                      *****************************
                      * MAYER POPULATION ANALYSIS *
                      *****************************

  NA   - Mulliken gross atomic population
  ZA   - Total nuclear charge
  QA   - Mulliken gross atomic charge
  VA   - Mayer's total valence
  BVA  - Mayer's bonded valence
  FA   - Mayer's free valence

  ATOM       NA         ZA         QA         VA         BVA        FA
  0 C      6.3421     6.0000    -0.3421     3.8931     3.8931     0.0000
  1 C      5.9589     6.0000     0.0411     3.8294     3.8294     0.0000
  2 C      6.3589     6.0000    -0.3589     3.9206     3.9206    -0.0000
  3 C      6.2011     6.0000    -0.2011     3.7998     3.7998     0.0000
  4 C      5.8639     6.0000     0.1361     3.9045     3.9045     0.0000
  5 C      6.3723     6.0000    -0.3723     3.8555     3.8555    -0.0000
  6 C      6.3550     6.0000    -0.3550     3.8747     3.8747     0.0000
  7 C      6.3431     6.0000    -0.3431     3.8432     3.8432     0.0000
  8 H      0.8985     1.0000     0.1015     0.9848     0.9848    -0.0000
  9 H      0.8948     1.0000     0.1052     0.9809     0.9809     0.0000
 10 H      0.8961     1.0000     0.1039     0.9819     0.9819     0.0000
 11 H      0.9545     1.0000     0.0455     0.9832     0.9832    -0.0000
 12 H      0.8873     1.0000     0.1127     0.9796     0.9796    -0.0000
 13 H      0.9002     1.0000     0.0998     0.9858     0.9858    -0.0000
 14 H      0.8979     1.0000     0.1021     0.9831     0.9831    -0.0000
 15 H      0.9146     1.0000     0.0854     0.9902     0.9902     0.0000
 16 H      0.9129     1.0000     0.0871     0.9893     0.9893     0.0000
 17 H      0.8918     1.0000     0.1082     0.9837     0.9837    -0.0000
 18 H      0.8931     1.0000     0.1069     0.9868     0.9868    -0.0000
 19 H      0.8888     1.0000     0.1112     0.9806     0.9806     0.0000
 20 H      0.8947     1.0000     0.1053     0.9854     0.9854    -0.0000
 21 H      0.8956     1.0000     0.1044     0.9869     0.9869    -0.0000
 22 H      0.8960     1.0000     0.1040     0.9857     0.9857     0.0000
 23 H      0.8956     1.0000     0.1044     0.9859     0.9859    -0.0000
 24 H      0.8961     1.0000     0.1039     0.9863     0.9863     0.0000
 25 H      0.8963     1.0000     0.1037     0.9862     0.9862     0.0000

  Mayer bond orders larger than 0.100000
B(  0-C ,  1-C ) :   0.9489 B(  0-C ,  8-H ) :   0.9745 B(  0-C ,  9-H ) :   0.9756 
B(  0-C , 10-H ) :   0.9798 B(  1-C ,  2-C ) :   0.9669 B(  1-C ,  3-C ) :   0.9211 
B(  1-C , 11-H ) :   0.9687 B(  2-C , 12-H ) :   0.9735 B(  2-C , 13-H ) :   0.9723 
B(  2-C , 14-H ) :   0.9783 B(  3-C ,  4-C ) :   0.9543 B(  3-C , 15-H ) :   0.9720 
B(  3-C , 16-H ) :   0.9587 B(  4-C ,  5-C ) :   0.9410 B(  4-C ,  6-C ) :   0.9698 
B(  4-C ,  7-C ) :   0.9478 B(  5-C , 17-H ) :   0.9753 B(  5-C , 18-H ) :   0.9718 
B(  5-C , 19-H ) :   0.9695 B(  6-C , 20-H ) :   0.9666 B(  6-C , 21-H ) :   0.9742 
B(  6-C , 22-H ) :   0.9735 B(  7-C , 23-H ) :   0.9720 B(  7-C , 24-H ) :   0.9759 
B(  7-C , 25-H ) :   0.9718 

-------
TIMINGS
-------

Total SCF time: 0 days 0 hours 0 min 37 sec 

Total time                  ....      37.886 sec
Sum of individual times     ....      37.411 sec  ( 98.7%)

SCF preparation             ....       0.215 sec  (  0.6%)
Fock matrix formation       ....      36.199 sec  ( 95.5%)
  Startup                   ....       0.067 sec  (  0.2% of F)
  Split-RI-J                ....       5.580 sec  ( 15.4% of F)
  XC integration            ....      30.027 sec  ( 82.9% of F)
    XC Preparation          ....       0.000 sec  (  0.0% of XC)
    Basis function eval.    ....       4.591 sec  ( 15.3% of XC)
    Density eval.           ....       8.911 sec  ( 29.7% of XC)
    XC-Functional eval.     ....       1.871 sec  (  6.2% of XC)
    XC-Potential eval.      ....      13.883 sec  ( 46.2% of XC)
Diagonalization             ....       0.000 sec  (  0.0%)
Density matrix formation    ....       0.221 sec  (  0.6%)
Total Energy calculation    ....       0.028 sec  (  0.1%)
Population analysis         ....       0.041 sec  (  0.1%)
Orbital Transformation      ....       0.095 sec  (  0.2%)
Orbital Orthonormalization  ....       0.000 sec  (  0.0%)
DIIS solution               ....       0.479 sec  (  1.3%)
SOSCF solution              ....       0.132 sec  (  0.3%)
Finished LeanSCF after  38.0 sec

Maximum memory used throughout the entire LEANSCF-calculation: 44.8 MB

------------------------------------------------------------------------------
                         ORCA PROPERTY INTEGRAL CALCULATIONS
------------------------------------------------------------------------------

GBWName                                   ... vacuum_censo.gbw
Number of atoms                           ...     26
Number of basis functions                 ...    356
Max core memory                           ...   1024 MB

Dipole integrals                          ... YES
Quadrupole integrals                      ...  NO
Linear momentum integrals                 ...  NO
Angular momentum integrals                ...  NO
Higher moments length integrals           ...  NO
Higher moments velocity integrals         ...  NO
Kinetic energy integrals                  ...  NO
GIAO right hand sides                     ...  NO
GIAO dipole derivative integrals          ...  NO
SOC integrals                             ...  NO
EPR diamagnetic integrals (GIAO)          ...  NO
EPR gauge integrals                       ...  NO
Field gradient integrals                  ...  NO (   0 nuclei)
Spin-dipole/Fermi contact integrals       ...  NO (   0 nuclei)
Contact density integrals                 ...  NO (   0 nuclei)
Nucleus-orbit integrals                   ...  NO (   0 nuclei)
Geometric perturbations                   ... YES (  26 nuclei)

Choice of electric origin   ... Center of mass
Position of electric origin ... ( -0.0002,  0.0134, -0.0013) 
Choice of magnetic origin   ... GIAO
Position of magnetic origin ... (  0.0000,  0.0000,  0.0000) 

Calculating integrals                     ... Electric Dipole (Length)     done (  0.1 sec)
Calculating integrals                     ... Geometrical perturbation right hand sides

-----------------------
GEOMETRIC PERTURBATIONS (26 nuclei)
-----------------------

MaxCore                            ...   1024 MB
Number of batches                  ...      1

BATCH   0: Atoms    0 -   25 ( 78 perturbations)
   => H(core) and overlap derivative integrals     ... done (     1.0 sec)
   => Making and storing internal U-coefficients   ... done (     0.8 sec)
   => RI-J derivative integrals                    ... done (    10.5 sec)
   => RI-J response operators                      ... done (     2.8 sec)
   => XC derivative integrals                      ... done (   595.6 sec)
   => XC response operators                        ... done (   191.8 sec)
   => Completing and storing right hand sides      ... done (     0.3 sec)
   => Total time for right hand sides = 807.2 sec

  geometrical perturbations done (807.2 sec)

Property integrals calculated in 807.3 sec

Maximum memory used throughout the entire PROPINT-calculation: 317.3 MB


-------------------------------------------------------------------------------
                          DFT DISPERSION CORRECTION                            
                                                                               
                                DFTD4 V3.4.0                                   
-------------------------------------------------------------------------------
The R2SCAN3C composite method is recognized
Using three-body term ABC
Active option DFTDOPT                   ...         5   

-------------------------   ----------------
Dispersion correction           -0.007965129
-------------------------   ----------------

------------------   -----------------
gCP correction             0.012641597
------------------   -----------------

-------------------------   --------------------
FINAL SINGLE POINT ENERGY      -315.612231588730
-------------------------   --------------------

------------------------------------------------------------------------------
                            ORCA SCF RESPONSE CALCULATION
------------------------------------------------------------------------------

GBWName                                 ... vacuum_censo.gbw
Number of atoms                         ...     26
Number of basis functions               ...    356
Max core memory                         ...   1024 MB

Electric field perturbation             ...  NO
Quadrupolar field perturbation          ...  NO
Magnetic field perturbation (no GIAO)   ...  NO
Magnetic field perturbation (with GIAO) ...  NO
Linear momentum (velocity) perturbation ...  NO
Spin-orbit coupling perturbation        ...  NO
Choice of electric origin               ... Center of mass
Position of electric origin             ...    -0.000239     0.013425    -0.001283
Choice of magnetic origin               ... GIAO
Position of magnetic origin             ...     0.000000     0.000000     0.000000
Nuclear geometric perturbations         ... YES (  78 perturbations)
Nucleus-orbit perturbations             ...  NO (   0 perturbations)
Spin-dipole/Fermi contact perturbations ...  NO (   0 perturbations)

Total number of real perturbations      ...     78
Total number of imaginary perturbations ...      0
Total number of triplet perturbations   ...      0
Total number of SOC perturbations       ...      0


                                **********************
                                * REAL PERTURBATIONS *
                                **********************



-------------------
SHARK CP-SCF DRIVER
-------------------

Dimension of the orbital basis          ...    356
Dimension of the CPSCF-problem          ...  10659
Number of operators                     ...      1
Max. number of iterations               ...    128
Convergence Tolerance                   ... 1.0e-03
Number of perturbations                 ...     78
Perturbation type                       ... REAL

----------------------------
POPLE LINEAR EQUATION SOLVER
----------------------------

  ITERATION   0:   ||err||_max =   1.4467e-01 (  60.3 sec   0/ 78 done)
  ITERATION   1:   ||err||_max =   1.7591e-02 (  67.2 sec   0/ 78 done)
  ITERATION   2:   ||err||_max =   4.8038e-03 (  68.2 sec  15/ 78 done)
  ITERATION   3:   ||err||_max =   1.5891e-03 (  57.8 sec  53/ 78 done)
  ITERATION   4:   ||err||_max =   4.2983e-04 (  23.3 sec  78/ 78 done)

CP-SCF equations solved in 279.8 sec
Response densities calculated in   0.3 sec

Maximum memory used throughout the entire SCFRESP-calculation: 208.4 MB

------------------------------------------------------------------------------
                              ORCA PROPERTY CALCULATIONS
------------------------------------------------------------------------------

GBWName                                 ... vacuum_censo.gbw
Number of atoms                         ...     26
Number of basis functions               ...    356
Max core memory                         ...   1024 MB

Electric properties:
Dipole moment                           ... YES
Quadrupole moment                       ...  NO
Static polarizability (Dipole/Dipole)   ...  NO
Static polarizability (Dipole/Quad.)    ...  NO
Static polarizability (Quad./Quad.)     ...  NO
Static polarizability (Velocity)        ...  NO

Atomic electric properties:
Dipole moment                           ...  NO
Quadrupole moment                       ...  NO
Static polarizability                   ...  NO

Choice of electric origin               ... Center of mass
Position of electric origin             ...    -0.000239     0.013425    -0.001283

General magnetic properties:
Magnetizability                         ...  NO

EPR properties:
g-Tensor (aka g-matrix)                 ...  NO
Zero-Field splitting spin-orbit         ...  NO
Zero-field splitting spin-spin          ...  NO
Hyperfine couplings                     ...  NO (   0 nuclei)
Quadrupole couplings                    ...  NO (   0 nuclei)
Contact density                         ...  NO (   0 nuclei)

NMR properties:
Chemical shifts                         ...  NO (   0 nuclei)
Spin-rotation constants                 ...  NO (   0 nuclei)
Spin-spin couplings                     ...  NO (   0 nuclei,    0 pairs)

Choice of magnetic origin               ... GIAO
Position of magnetic origin             ...     0.000000     0.000000     0.000000

Properties with geometric perturbations:
SCF Hessian                             ... YES
IR spectrum                             ... YES
VCD spectrum                            ...  NO
X-ray spectroscopy properties:
SCF XES/XAS/RIXS spectra                ...  NO


-------------
DIPOLE MOMENT
-------------

Method             : SCF
Type of density    : Electron Density
Multiplicity       :   1
Irrep              :   0
Energy             :  -315.6169080560828206 Eh
Relativity type    : 
Basis              : AO
                                X                 Y                 Z
Electronic contribution:      0.376769702       0.218943849       0.159318332
Nuclear contribution   :     -0.352804438      -0.208582255      -0.190735766
                        -----------------------------------------
Total Dipole Moment    :      0.023965265       0.010361594      -0.031417434
                        -----------------------------------------
Magnitude (a.u.)       :      0.040850358
Magnitude (Debye)      :      0.103833357



--------------------
Rotational spectrum 
--------------------
 
Rotational constants in cm-1:             0.097609             0.040715             0.036560 
Rotational constants in MHz :          2926.244914          1220.593174          1096.038350 

Dipole components along the rotational axes: 
x,y,z [a.u.] :     0.023638     0.003524    -0.033130 
x,y,z [Debye]:     0.060082     0.008958    -0.084210 

 

Dipole moment calculation done in   0.0 sec 

-----------
SCF HESSIAN
-----------

Occupied/Occupied contributions to the Hessian:
   => Occupied/Occupied contributions              ... done (  0.0 sec)
Perturbed density contributions to the Hessian:
   => Perturbed density contributions              ... done (  0.1 sec)
Explicit contributions to the Hessian:
   => Nuclear repulsion Hessian                    ... done (  0.0 sec)
   => HCore and overlap Hessian                    ... done ( 45.1 sec)
   => RI-J Hessian                                 ... done ( 19.7 sec)
   => XC-Hessian                                   ... done (182.0 sec)
   => Van der Waals-Hessian                        ... done (  4.7 sec)
   => GCP-Hessian                                  ... done (  0.1 sec)
   => Explicit contributions done
Dipole derivatives                                 ... done (  0.2 sec)
Mass weighting the Hessian           ... done
Calculating normal modes             ... done
Scaling frequencies                  ... done

-----------------------
VIBRATIONAL FREQUENCIES
-----------------------

Scaling factor for frequencies =  1.000000000  (already applied!)

     0:       0.00 cm**-1
     1:       0.00 cm**-1
     2:       0.00 cm**-1
     3:       0.00 cm**-1
     4:       0.00 cm**-1
     5:       0.00 cm**-1
     6:      63.02 cm**-1
     7:     103.26 cm**-1
     8:     195.01 cm**-1
     9:     230.30 cm**-1
    10:     244.73 cm**-1
    11:     276.26 cm**-1
    12:     279.19 cm**-1
    13:     298.83 cm**-1
    14:     308.89 cm**-1
    15:     325.98 cm**-1
    16:     360.77 cm**-1
    17:     391.92 cm**-1
    18:     414.71 cm**-1
    19:     419.97 cm**-1
    20:     460.19 cm**-1
    21:     508.52 cm**-1
    22:     746.82 cm**-1
    23:     839.26 cm**-1
    24:     871.75 cm**-1
    25:     907.63 cm**-1
    26:     926.62 cm**-1
    27:     933.85 cm**-1
    28:     939.19 cm**-1
    29:     953.57 cm**-1
    30:     964.81 cm**-1
    31:     990.94 cm**-1
    32:    1031.71 cm**-1
    33:    1037.05 cm**-1
    34:    1115.81 cm**-1
    35:    1133.97 cm**-1
    36:    1190.31 cm**-1
    37:    1219.90 cm**-1
    38:    1229.74 cm**-1
    39:    1264.98 cm**-1
    40:    1303.22 cm**-1
    41:    1318.56 cm**-1
    42:    1355.70 cm**-1
    43:    1370.04 cm**-1
    44:    1384.98 cm**-1
    45:    1387.41 cm**-1
    46:    1388.25 cm**-1
    47:    1409.73 cm**-1
    48:    1420.36 cm**-1
    49:    1468.57 cm**-1
    50:    1472.80 cm**-1
    51:    1477.37 cm**-1
    52:    1480.66 cm**-1
    53:    1482.19 cm**-1
    54:    1488.27 cm**-1
    55:    1498.61 cm**-1
    56:    1501.06 cm**-1
    57:    1502.94 cm**-1
    58:    1507.17 cm**-1
    59:    1514.30 cm**-1
    60:    2984.03 cm**-1
    61:    2994.75 cm**-1
    62:    2995.56 cm**-1
    63:    2998.63 cm**-1
    64:    3001.22 cm**-1
    65:    3005.25 cm**-1
    66:    3007.17 cm**-1
    67:    3029.89 cm**-1
    68:    3068.54 cm**-1
    69:    3072.44 cm**-1
    70:    3073.26 cm**-1
    71:    3075.47 cm**-1
    72:    3076.52 cm**-1
    73:    3079.08 cm**-1
    74:    3080.37 cm**-1
    75:    3081.23 cm**-1
    76:    3086.14 cm**-1
    77:    3098.61 cm**-1


------------
NORMAL MODES
------------

These modes are the Cartesian displacements weighted by the diagonal matrix
M(i,i)=1/sqrt(m[i]) where m[i] is the mass of the displaced atom
Thus, these vectors are normalized but *not* orthogonal

                  0          1          2          3          4          5    
      0       0.000000   0.000000   0.000000   0.000000   0.000000   0.000000
      1       0.000000   0.000000   0.000000   0.000000   0.000000   0.000000
      2       0.000000   0.000000   0.000000   0.000000   0.000000   0.000000
      3       0.000000   0.000000   0.000000   0.000000   0.000000   0.000000
      4       0.000000   0.000000   0.000000   0.000000   0.000000   0.000000
      5       0.000000   0.000000   0.000000   0.000000   0.000000   0.000000
      6       0.000000   0.000000   0.000000   0.000000   0.000000   0.000000
      7       0.000000   0.000000   0.000000   0.000000   0.000000   0.000000
      8       0.000000   0.000000   0.000000   0.000000   0.000000   0.000000
      9       0.000000   0.000000   0.000000   0.000000   0.000000   0.000000
     10       0.000000   0.000000   0.000000   0.000000   0.000000   0.000000
     11       0.000000   0.000000   0.000000   0.000000   0.000000   0.000000
     12       0.000000   0.000000   0.000000   0.000000   0.000000   0.000000
     13       0.000000   0.000000   0.000000   0.000000   0.000000   0.000000
     14       0.000000   0.000000   0.000000   0.000000   0.000000   0.000000
     15       0.000000   0.000000   0.000000   0.000000   0.000000   0.000000
     16       0.000000   0.000000   0.000000   0.000000   0.000000   0.000000
     17       0.000000   0.000000   0.000000   0.000000   0.000000   0.000000
     18       0.000000   0.000000   0.000000   0.000000   0.000000   0.000000
     19       0.000000   0.000000   0.000000   0.000000   0.000000   0.000000
     20       0.000000   0.000000   0.000000   0.000000   0.000000   0.000000
     21       0.000000   0.000000   0.000000   0.000000   0.000000   0.000000
     22       0.000000   0.000000   0.000000   0.000000   0.000000   0.000000
     23       0.000000   0.000000   0.000000   0.000000   0.000000   0.000000
     24       0.000000   0.000000   0.000000   0.000000   0.000000   0.000000
     25       0.000000   0.000000   0.000000   0.000000   0.000000   0.000000
     26       0.000000   0.000000   0.000000   0.000000   0.000000   0.000000
     27       0.000000   0.000000   0.000000   0.000000   0.000000   0.000000
     28       0.000000   0.000000   0.000000   0.000000   0.000000   0.000000
     29       0.000000   0.000000   0.000000   0.000000   0.000000   0.000000
     30       0.000000   0.000000   0.000000   0.000000   0.000000   0.000000
     31       0.000000   0.000000   0.000000   0.000000   0.000000   0.000000
     32       0.000000   0.000000   0.000000   0.000000   0.000000   0.000000
     33       0.000000   0.000000   0.000000   0.000000   0.000000   0.000000
     34       0.000000   0.000000   0.000000   0.000000   0.000000   0.000000
     35       0.000000   0.000000   0.000000   0.000000   0.000000   0.000000
     36       0.000000   0.000000   0.000000   0.000000   0.000000   0.000000
     37       0.000000   0.000000   0.000000   0.000000   0.000000   0.000000
     38       0.000000   0.000000   0.000000   0.000000   0.000000   0.000000
     39       0.000000   0.000000   0.000000   0.000000   0.000000   0.000000
     40       0.000000   0.000000   0.000000   0.000000   0.000000   0.000000
     41       0.000000   0.000000   0.000000   0.000000   0.000000   0.000000
     42       0.000000   0.000000   0.000000   0.000000   0.000000   0.000000
     43       0.000000   0.000000   0.000000   0.000000   0.000000   0.000000
     44       0.000000   0.000000   0.000000   0.000000   0.000000   0.000000
     45       0.000000   0.000000   0.000000   0.000000   0.000000   0.000000
     46       0.000000   0.000000   0.000000   0.000000   0.000000   0.000000
     47       0.000000   0.000000   0.000000   0.000000   0.000000   0.000000
     48       0.000000   0.000000   0.000000   0.000000   0.000000   0.000000
     49       0.000000   0.000000   0.000000   0.000000   0.000000   0.000000
     50       0.000000   0.000000   0.000000   0.000000   0.000000   0.000000
     51       0.000000   0.000000   0.000000   0.000000   0.000000   0.000000
     52       0.000000   0.000000   0.000000   0.000000   0.000000   0.000000
     53       0.000000   0.000000   0.000000   0.000000   0.000000   0.000000
     54       0.000000   0.000000   0.000000   0.000000   0.000000   0.000000
     55       0.000000   0.000000   0.000000   0.000000   0.000000   0.000000
     56       0.000000   0.000000   0.000000   0.000000   0.000000   0.000000
     57       0.000000   0.000000   0.000000   0.000000   0.000000   0.000000
     58       0.000000   0.000000   0.000000   0.000000   0.000000   0.000000
     59       0.000000   0.000000   0.000000   0.000000   0.000000   0.000000
     60       0.000000   0.000000   0.000000   0.000000   0.000000   0.000000
     61       0.000000   0.000000   0.000000   0.000000   0.000000   0.000000
     62       0.000000   0.000000   0.000000   0.000000   0.000000   0.000000
     63       0.000000   0.000000   0.000000   0.000000   0.000000   0.000000
     64       0.000000   0.000000   0.000000   0.000000   0.000000   0.000000
     65       0.000000   0.000000   0.000000   0.000000   0.000000   0.000000
     66       0.000000   0.000000   0.000000   0.000000   0.000000   0.000000
     67       0.000000   0.000000   0.000000   0.000000   0.000000   0.000000
     68       0.000000   0.000000   0.000000   0.000000   0.000000   0.000000
     69       0.000000   0.000000   0.000000   0.000000   0.000000   0.000000
     70       0.000000   0.000000   0.000000   0.000000   0.000000   0.000000
     71       0.000000   0.000000   0.000000   0.000000   0.000000   0.000000
     72       0.000000   0.000000   0.000000   0.000000   0.000000   0.000000
     73       0.000000   0.000000   0.000000   0.000000   0.000000   0.000000
     74       0.000000   0.000000   0.000000   0.000000   0.000000   0.000000
     75       0.000000   0.000000   0.000000   0.000000   0.000000   0.000000
     76       0.000000   0.000000   0.000000   0.000000   0.000000   0.000000
     77       0.000000   0.000000   0.000000   0.000000   0.000000   0.000000
[...]


-----------
IR SPECTRUM
-----------

 Mode   freq       eps      Int      T**2         TX        TY        TZ
       cm**-1   L/(mol*cm) km/mol    a.u.
----------------------------------------------------------------------------
  6:     63.02   0.000001    0.01  0.000007  (-0.000665  0.002542 -0.000479)
  7:    103.26   0.000001    0.00  0.000002  ( 0.001003  0.000762  0.000265)
  8:    195.01   0.000005    0.03  0.000008  (-0.002724 -0.000298  0.000884)
  9:    230.30   0.000001    0.01  0.000002  ( 0.000454  0.001184  0.000299)
 10:    244.73   0.000000    0.00  0.000001  (-0.000559  0.000461  0.000146)
 11:    276.26   0.000002    0.01  0.000002  (-0.000489  0.000765 -0.000977)
 12:    279.19   0.000011    0.06  0.000012  ( 0.003452  0.000065 -0.000731)
 13:    298.83   0.000003    0.01  0.000003  ( 0.001582 -0.000765  0.000027)
 14:    308.89   0.000006    0.03  0.000006  ( 0.001981 -0.001073 -0.001034)
 15:    325.98   0.000010    0.05  0.000010  ( 0.002516 -0.001170 -0.001388)
 16:    360.77   0.000011    0.05  0.000009  (-0.002663 -0.001512  0.000060)
 17:    391.92   0.000006    0.03  0.000005  (-0.001949 -0.000680  0.000765)
 18:    414.71   0.000012    0.06  0.000009  ( 0.001171  0.002698 -0.000715)
 19:    419.97   0.000021    0.11  0.000016  ( 0.003035  0.002510  0.000561)
 20:    460.19   0.000058    0.29  0.000039  ( 0.004613 -0.000137 -0.004238)
 21:    508.52   0.000004    0.02  0.000002  ( 0.000310 -0.000731  0.001346)
 22:    746.82   0.000054    0.27  0.000023  (-0.004206  0.000439 -0.002183)
 23:    839.26   0.000121    0.61  0.000045  ( 0.002103  0.002908 -0.005663)
 24:    871.75   0.000124    0.63  0.000044  ( 0.001196  0.006311  0.001745)
 25:    907.63   0.000024    0.12  0.000008  (-0.001390 -0.001697 -0.001868)
 26:    926.62   0.000193    0.98  0.000065  ( 0.007050 -0.003847 -0.000714)
 27:    933.85   0.000140    0.71  0.000047  (-0.005850  0.001374 -0.003267)
 28:    939.19   0.000047    0.24  0.000016  ( 0.000158  0.003568  0.001662)
 29:    953.57   0.000003    0.02  0.000001  ( 0.000801 -0.000488 -0.000339)
 30:    964.81   0.000009    0.05  0.000003  ( 0.000129 -0.001564 -0.000662)
 31:    990.94   0.000545    2.76  0.000172  ( 0.012979 -0.000509 -0.001733)
 32:   1031.71   0.000027    0.14  0.000008  ( 0.002575  0.000199  0.001270)
 33:   1037.05   0.000008    0.04  0.000002  (-0.000998  0.000185 -0.001190)
 34:   1115.81   0.000090    0.46  0.000025  ( 0.003094 -0.003841 -0.000968)
 35:   1133.97   0.000109    0.55  0.000030  (-0.003070 -0.004147  0.001871)
 36:   1190.31   0.001302    6.58  0.000341  (-0.018120  0.001740 -0.003162)
 37:   1219.90   0.000667    3.37  0.000171  ( 0.000037  0.012987  0.001401)
 38:   1229.74   0.000755    3.82  0.000192  (-0.011482 -0.001607 -0.007569)
 39:   1264.98   0.001465    7.40  0.000361  (-0.017344  0.001074  0.007704)
 40:   1303.22   0.000426    2.15  0.000102  (-0.000654 -0.010011  0.001162)
 41:   1318.56   0.000189    0.96  0.000045  ( 0.001317  0.005596  0.003422)
 42:   1355.70   0.000120    0.60  0.000028  ( 0.000294 -0.003763 -0.003643)
 43:   1370.04   0.001001    5.06  0.000228  ( 0.013044 -0.005538  0.005222)
 44:   1384.98   0.000396    2.00  0.000089  (-0.002539 -0.004644 -0.007826)
 45:   1387.41   0.001417    7.16  0.000319  (-0.001706  0.000204 -0.017767)
 46:   1388.25   0.003590   18.14  0.000807  ( 0.003167  0.028177  0.001767)
 47:   1409.73   0.000545    2.75  0.000121  ( 0.007624  0.004730 -0.006333)
 48:   1420.36   0.001605    8.11  0.000353  ( 0.016389  0.002152 -0.008915)
 49:   1468.57   0.000143    0.72  0.000030  (-0.001216 -0.001506  0.005165)
 50:   1472.80   0.000065    0.33  0.000014  (-0.001772 -0.003168 -0.000783)
 51:   1477.37   0.000010    0.05  0.000002  (-0.000628 -0.001284 -0.000230)
 52:   1480.66   0.000206    1.04  0.000043  ( 0.001692 -0.002956  0.005642)
 53:   1482.19   0.000029    0.15  0.000006  (-0.001173 -0.002046  0.000718)
 54:   1488.27   0.000812    4.10  0.000170  (-0.002449 -0.012706 -0.001653)
 55:   1498.61   0.000283    1.43  0.000059  ( 0.003115  0.001853 -0.006767)
 56:   1501.06   0.002054   10.38  0.000427  ( 0.001984 -0.015860  0.013095)
 57:   1502.94   0.002681   13.55  0.000557  (-0.009091 -0.002551 -0.021624)
 58:   1507.17   0.000676    3.42  0.000140  ( 0.001081 -0.003707 -0.011183)
 59:   1514.30   0.003754   18.97  0.000774  (-0.022592  0.002710  0.015996)
 60:   2984.03   0.003970   20.06  0.000415  (-0.000242  0.000106 -0.020375)
 61:   2994.75   0.008569   43.30  0.000893  (-0.020868  0.007645 -0.019976)
 62:   2995.56   0.004710   23.80  0.000491  (-0.009702  0.013674  0.014475)
 63:   2998.63   0.009906   50.06  0.001031  (-0.000884  0.031378  0.006750)
 64:   3001.22   0.003566   18.02  0.000371  (-0.014495 -0.010651 -0.006876)
 65:   3005.25   0.000489    2.47  0.000051  ( 0.003813 -0.005136 -0.003142)
 66:   3007.17   0.009963   50.35  0.001034  (-0.023654 -0.010664  0.018989)
 67:   3029.89   0.005237   26.47  0.000539  ( 0.004355  0.022795 -0.000913)
 68:   3068.54   0.001013    5.12  0.000103  (-0.000645 -0.008911  0.004820)
 69:   3072.44   0.000233    1.18  0.000024  (-0.003847 -0.002950 -0.000358)
 70:   3073.26   0.000699    3.53  0.000071  ( 0.006602 -0.003439 -0.003952)
 71:   3075.47   0.004695   23.73  0.000476  (-0.011941 -0.007584 -0.016623)
 72:   3076.52   0.011209   56.65  0.001137  (-0.001229  0.026013 -0.021420)
 73:   3079.08   0.021301  107.65  0.002159  (-0.035244 -0.000139  0.030277)
 74:   3080.37   0.006475   32.72  0.000656  ( 0.008284  0.020298  0.013242)
 75:   3081.23   0.009394   47.48  0.000951  ( 0.023636  0.013903  0.014125)
 76:   3086.14   0.011673   58.99  0.001180  ( 0.023370 -0.012329  0.021958)
 77:   3098.61   0.005394   27.26  0.000543  (-0.017920  0.013354  0.006618)

* The epsilon (eps) is given for a Dirac delta lineshape.
** The dipole moment derivative (T) already includes vibrational overlap.

The first frequency considered to be a vibration is 6
The total number of vibrations considered is 72


--------------------------
THERMOCHEMISTRY AT 298.15K
--------------------------

Temperature         ...   298.15 K
Pressure            ...     1.00 atm
Total Mass          ...   114.23 AMU
Quasi RRHO          ...     True
Cut-Off Frequency   ...     1.00 cm^-1

Throughout the following assumptions are being made:
  (1) The electronic state is orbitally nondegenerate
  (2) There are no thermally accessible electronically excited states
  (3) Hindered rotations indicated by low frequency modes are not
      treated as such but are treated as vibrations and this may
      cause some error
  (4) All equations used are the standard statistical mechanics
      equations for an ideal gas
  (5) All vibrations are strictly harmonic

freq.      63.02  E(vib)   ...       0.51 
freq.     103.26  E(vib)   ...       0.46 
freq.     195.01  E(vib)   ...       0.36 
freq.     230.30  E(vib)   ...       0.32 
freq.     244.73  E(vib)   ...       0.31 
freq.     276.26  E(vib)   ...       0.28 
freq.     279.19  E(vib)   ...       0.28 
freq.     298.83  E(vib)   ...       0.26 
freq.     308.89  E(vib)   ...       0.26 
freq.     325.98  E(vib)   ...       0.24 
freq.     360.77  E(vib)   ...       0.22 
freq.     391.92  E(vib)   ...       0.20 
freq.     414.71  E(vib)   ...       0.19 
freq.     419.97  E(vib)   ...       0.18 
freq.     460.19  E(vib)   ...       0.16 
freq.     508.52  E(vib)   ...       0.14 
freq.     746.82  E(vib)   ...       0.06 
freq.     839.26  E(vib)   ...       0.04 
freq.     871.75  E(vib)   ...       0.04 
freq.     907.63  E(vib)   ...       0.03 
freq.     926.62  E(vib)   ...       0.03 
freq.     933.85  E(vib)   ...       0.03 
freq.     939.19  E(vib)   ...       0.03 
freq.     953.57  E(vib)   ...       0.03 
freq.     964.81  E(vib)   ...       0.03 
freq.     990.94  E(vib)   ...       0.02 
freq.    1031.71  E(vib)   ...       0.02 
freq.    1037.05  E(vib)   ...       0.02 
freq.    1115.81  E(vib)   ...       0.01 
freq.    1133.97  E(vib)   ...       0.01 
freq.    1190.31  E(vib)   ...       0.01 
freq.    1219.90  E(vib)   ...       0.01 
freq.    1229.74  E(vib)   ...       0.01 
freq.    1264.98  E(vib)   ...       0.01 
freq.    1303.22  E(vib)   ...       0.01 
freq.    1318.56  E(vib)   ...       0.01 
freq.    1355.70  E(vib)   ...       0.01 
freq.    1370.04  E(vib)   ...       0.01 
freq.    1384.98  E(vib)   ...       0.00 
freq.    1387.41  E(vib)   ...       0.00 
freq.    1388.25  E(vib)   ...       0.00 
freq.    1409.73  E(vib)   ...       0.00 
freq.    1420.36  E(vib)   ...       0.00 
freq.    1468.57  E(vib)   ...       0.00 
freq.    1472.80  E(vib)   ...       0.00 
freq.    1477.37  E(vib)   ...       0.00 
freq.    1480.66  E(vib)   ...       0.00 
freq.    1482.19  E(vib)   ...       0.00 
freq.    1488.27  E(vib)   ...       0.00 
freq.    1498.61  E(vib)   ...       0.00 
freq.    1501.06  E(vib)   ...       0.00 
freq.    1502.94  E(vib)   ...       0.00 
freq.    1507.17  E(vib)   ...       0.00 
freq.    1514.30  E(vib)   ...       0.00 
freq.    2984.03  E(vib)   ...       0.00 
freq.    2994.75  E(vib)   ...       0.00 
freq.    2995.56  E(vib)   ...       0.00 
freq.    2998.63  E(vib)   ...       0.00 
freq.    3001.22  E(vib)   ...       0.00 
freq.    3005.25  E(vib)   ...       0.00 
freq.    3007.17  E(vib)   ...       0.00 
freq.    3029.89  E(vib)   ...       0.00 
freq.    3068.54  E(vib)   ...       0.00 
freq.    3072.44  E(vib)   ...       0.00 
freq.    3073.26  E(vib)   ...       0.00 
freq.    3075.47  E(vib)   ...       0.00 
freq.    3076.52  E(vib)   ...       0.00 
freq.    3079.08  E(vib)   ...       0.00 
freq.    3080.37  E(vib)   ...       0.00 
freq.    3081.23  E(vib)   ...       0.00 
freq.    3086.14  E(vib)   ...       0.00 
freq.    3098.61  E(vib)   ...       0.00 

------------
INNER ENERGY
------------

The inner energy is: U= E(el) + E(ZPE) + E(vib) + E(rot) + E(trans)
    E(el)   - is the total energy from the electronic structure calculation
              = E(kin-el) + E(nuc-el) + E(el-el) + E(nuc-nuc)
    E(ZPE)  - the the zero temperature vibrational energy from the frequency calculation
    E(vib)  - the the finite temperature correction to E(ZPE) due to population
              of excited vibrational states
    E(rot)  - is the rotational thermal energy
    E(trans)- is the translational thermal energy

Summary of contributions to the inner energy U:
Electronic energy                ...   -315.61223159 Eh
Zero point energy                ...      0.24312561 Eh     152.56 kcal/mol
Thermal vibrational correction   ...      0.00780248 Eh       4.90 kcal/mol
Thermal rotational correction    ...      0.00141627 Eh       0.89 kcal/mol
Thermal translational correction ...      0.00141627 Eh       0.89 kcal/mol
-----------------------------------------------------------------------
Total thermal energy                   -315.35847096 Eh


Summary of corrections to the electronic energy:
(perhaps to be used in another calculation)
Total thermal correction                  0.01063502 Eh       6.67 kcal/mol
Non-thermal (ZPE) correction              0.24312561 Eh     152.56 kcal/mol
-----------------------------------------------------------------------
Total correction                          0.25376063 Eh     159.24 kcal/mol


--------
ENTHALPY
--------

The enthalpy is H = U + kB*T
                kB is Boltzmann's constant
Total thermal energy              ...   -315.35847096 Eh 
Thermal Enthalpy correction       ...      0.00094421 Eh       0.59 kcal/mol
-----------------------------------------------------------------------
Total Enthalpy                    ...   -315.35752675 Eh


Note: Only C1 symmetry has been detected, increase convergence thresholds 
      if your molecule has a higher symmetry. Symmetry factor of 1.0 is   
      used for the rotational entropy correction. 
 

Note: Rotational entropy computed according to Herzberg 
Infrared and Raman Spectra, Chapter V,1, Van Nostrand Reinhold, 1945 
Point Group:  C1, Symmetry Number:   1  
Rotational constants in cm-1:     0.097609     0.040715     0.036560 

Vibrational entropy computed according to the QRRHO of S. Grimme
Chem.Eur.J. 2012 18 9955 using a reference frequency of 100.0 cm-1


-------
ENTROPY
-------

The entropy contributions are T*S = T*(S(el)+S(vib)+S(rot)+S(trans))
     S(el)   - electronic entropy
     S(vib)  - vibrational entropy
     S(rot)  - rotational entropy
     S(trans)- translational entropy
The entropies will be listed as multiplied by the temperature to get
units of energy

Electronic entropy                ...      0.00000000 Eh      0.00 kcal/mol
Vibrational entropy               ...      0.01287063 Eh      8.08 kcal/mol
Rotational entropy                ...      0.01368256 Eh      8.59 kcal/mol
Translational entropy             ...      0.01905969 Eh     11.96 kcal/mol
-----------------------------------------------------------------------
Final entropy term                ...      0.04561288 Eh     28.62 kcal/mol

In case the symmetry of your molecule has not been determined correctly
or in case you have a reason to use a different symmetry number we print 
out the resulting rotational entropy values for sn=1,12:

 non-linear molecules -----------------------------------
|  sn= 1 | S(rot)=       0.01368256 Eh      8.59 kcal/mol|
|  sn= 2 | S(rot)=       0.01302810 Eh      8.18 kcal/mol|
|  sn= 3 | S(rot)=       0.01264527 Eh      7.94 kcal/mol|
|  sn= 4 | S(rot)=       0.01237365 Eh      7.76 kcal/mol|
|  sn= 5 | S(rot)=       0.01216296 Eh      7.63 kcal/mol|
|  sn= 6 | S(rot)=       0.01199081 Eh      7.52 kcal/mol|
|  sn= 7 | S(rot)=       0.01184527 Eh      7.43 kcal/mol|
|  sn= 8 | S(rot)=       0.01171919 Eh      7.35 kcal/mol|
|  sn= 9 | S(rot)=       0.01160798 Eh      7.28 kcal/mol|
|  sn=10 | S(rot)=       0.01150850 Eh      7.22 kcal/mol|
|  sn=11 | S(rot)=       0.01141851 Eh      7.17 kcal/mol|
|  sn=12 | S(rot)=       0.01133636 Eh      7.11 kcal/mol|
 linear molecules ---------------------------------------
|  Dinfh | S(rot)=       0.00844992 Eh      5.30 kcal/mol|
|  Cinfv | S(rot)=       0.00910437 Eh      5.71 kcal/mol|
 --------------------------------------------------------


-------------------
GIBBS FREE ENERGY
-------------------

The Gibbs free energy is G = H - T*S

Total enthalpy                    ...   -315.35752675 Eh 
Total entropy correction          ...     -0.04561288 Eh    -28.62 kcal/mol
-----------------------------------------------------------------------
Final Gibbs free energy         ...   -315.40313963 Eh

For completeness - the Gibbs free energy minus the electronic energy
G-E(el)                           ...      0.20909196 Eh    131.21 kcal/mol


Maximum memory used throughout the entire PROP-calculation: 77.6 MB

--------------------------------
SUGGESTED CITATIONS FOR THIS RUN
--------------------------------

Below you find a list of papers that are relevant to this ORCA run
We neither can nor want to force you to cite these papers, but we appreciate if you do
You receive ORCA, which is the product of decades of hard work by many enthusiastic individuals, for free
The only thing we kindly ask in return is that you cite our papers,
We deeply appreciate it, if you show your appreciation for ORCA by not just citing the generic ORCA reference.

Please note that relegating all ORCA citations to the supporting information does *not* help us.
SI sections are not indexed - citations you put there will not count into any citation statistics
But we need these citations in order to attract the funding resources that allow us to do what we are doing

Therefore, if you are a happy ORCA user, please consider citing a few of the papers listed below in the main body of your paper

In addition to the list printed below, the program has created the file vacuum_censo.bibtex that contains the list in bibtex format
You can import this file easily into all common literature databanks and citation aid programs


List of essential papers. We consider these as the minimum necessary citations

  1. Neese,F.
     Software update: the ORCA program system, version 5.0
     WIRES Comput. Molec. Sci., 2022 12(1)e1606
     doi.org/10.1002/wcms.1606
  2. Grimme,S.; Hansen,A.; Ehlert,S.; Mewes,J.
     r2SCAN-3c: A 'Swiss army knife' composite electronic-structure method
     J. Chem. Phys., 2021 154 064103
     doi.org/10.1063/5.0040021

List of papers to cite with high priority. The work reported in these papers was absolutely
necessary for this run to complete.
Our perspective: the developers of density functionals and basis sets usually get cited in chemistry papers
Good! But without the algorithms to do something with them, the functionals or basis sets would not do anything.
Hence, in our opinion, the algorithm design and method developments papers are equally worthy of getting cited

  1. Neese,F.
     An improvement of the resolution of the identity approximation for the formation of the Coulomb matrix
     J. Comp. Chem., 2003 24(14)1740-1747
     doi.org/10.1002/jcc.10318
  2. Bykov,D.; Petrenko,T.; Izsak,R.; Kossmann,S.; Becker,U.; Valeev,E.; Neese,F.
     Efficient implementation of the analytic second derivatives of Hartree-Fock and hybrid DFT energies: a detailed analysis of different approximations
     Molec. Phys., 2015 113 1961-1977
     doi.org/10.1080/00268976.2015.1025114
  3. Neese,F.
     The SHARK Integral Generation and Digestion System
     J. Comp. Chem., 2022  1-16
     doi.org/10.1002/jcc.26942
  4. Lehtola,S.; Steigemann,C.; Oliveira,M.; Marques,M.
     Recent developments in Libxc - A comprehensive library of functionals for density functional theory
     Software X, 2018 7 
     doi.org/10.1016/j.softx.2017.11.002
  5. Caldeweyher,E.; Bannwarth,C.; Grimme,S.
     Extension of the D3 dispersion coefficient model
     J. Chem. Phys., 2017 147 034112-XXXX
     doi.org/10.1063/1.4993215
  6. Caldeweyher,E.; Ehlert,S.; Hansen,A.; Neugebauer,H.; Spicher,S.; Bannwarth,C.; Grimme,S.
     A generally applicable atomic-charge dependent London dispersion correction
     J. Chem. Phys., 2019 150 154122-XXXX
     doi.org/10.1063/1.5090222
  7. Caldeweyher,E.; Mewes,J.; Ehlert,S.; Grimme,S.
     Extension and evaluation of the D4 London-dispersion model for periodic systems
     Phys. Chem. Chem. Phys., 2020 22(16)8499-8512
     doi.org/10.1039/D0CP00502A

List of suggested additional citations. These are papers that are important in the 'surrounding' of 
of this run, or papers that preceded the highly important papers. If you like your results we are grateful for a citation.

  1. Neese,F.
     The ORCA program system
     WIRES Comput. Molec. Sci., 2012 2(1)73-78
     doi.org/10.1002/wcms.81
  2. Neese,F.
     Software update: the ORCA program system, version 4.0
     WIRES Comput. Molec. Sci., 2018 8(1)1-6
     doi.org/10.1002/wcms.1327
  3. Neese,F.; Wennmohs,F.; Becker,U.; Riplinger,C.
     The ORCA quantum chemistry program package
     J. Chem. Phys., 2020 152 Art. No. L224108
     doi.org/10.1063/5.0004608

List of optional additional citations

  1. Neese,F.
     Approximate second-order SCF convergence for spin unrestricted wavefunctions
     Chem. Phys. Lett., 2000 325(1-3)93-98
     doi.org/10.1016/s0009-2614(00)00662-x

Timings for individual modules:

Sum of individual times          ...     1382.670 sec (=  23.044 min)
Startup calculation              ...        1.716 sec (=   0.029 min)   0.1 %
SCF iterations                   ...       39.872 sec (=   0.665 min)   2.9 %
Property integrals               ...      807.369 sec (=  13.456 min)  58.4 %
SCF Response                     ...      281.554 sec (=   4.693 min)  20.4 %
Property calculations            ...      252.158 sec (=   4.203 min)  18.2 %
                             ****ORCA TERMINATED NORMALLY****
TOTAL RUN TIME: 0 days 0 hours 23 minutes 3 seconds 410 msec
