
                                 *****************
                                 * O   R   C   A *
                                 *****************

                                            #,                                       
                                            ###                                      
                                            ####                                     
                                            #####                                    
                                            ######                                   
                                           ########,                                 
                                     ,,################,,,,,                         
                               ,,#################################,,                 
                          ,,##########################################,,             
                       ,#########################################, ''#####,          
                    ,#############################################,,   '####,        
                  ,##################################################,,,,####,       
                ,###########''''           ''''###############################       
              ,#####''   ,,,,##########,,,,          '''####'''          '####       
            ,##' ,,,,###########################,,,                        '##       
           ' ,,###''''                  '''############,,,                           
         ,,##''                                '''############,,,,        ,,,,,,###''
      ,#''                                            '''#######################'''  
     '                                                          ''''####''''         
             ,#######,   #######,   ,#######,      ##                                
            ,#'     '#,  ##    ##  ,#'     '#,    #''#        ,####,   ,####,        
            ##       ##  ##   ,#'  ##            #'  '#       #'       #'  '#        
            ##       ##  #######   ##           ,######,      #####,   #    #        
            '#,     ,#'  ##    ##  '#,     ,#' ,#      #,     #,   #   #,  ,#        
             '#######'   ##     ##  '#######'  #'      '#     '####' # '####'        



                #########################################################
                #                        -***-                          #
                #          Department of theory and spectroscopy        #
                #                                                       #
                #                      Frank Neese                      #
                #                                                       #
                #     Directorship, Architecture, Infrastructure        #
                #                    SHARK, DRIVERS                     #
                #        Core code/Algorithms in most modules           #
                #                                                       #
                #        Max Planck Institute fuer Kohlenforschung      #
                #                Kaiser Wilhelm Platz 1                 #
                #                 D-45470 Muelheim/Ruhr                 #
                #                      Germany                          #
                #                                                       #
                #                  All rights reserved                  #
                #                        -***-                          #
                #########################################################


                         Program Version 6.0.1  -  RELEASE   -


 With contributions from (in alphabetic order):
[Max-Planck-Institut fuer Kohlenforschung]                               
  Daniel Aravena         : Magnetic Suceptibility                        
  Michael Atanasov       : Ab Initio Ligand Field Theory (pilot matlab implementation)
  Alexander A. Auer      : GIAO ZORA, VPT2 properties, NMR spectrum      
  Ute Becker             : All parallelization in ORCA, NUMFREQ, NUMCALC 
  Giovanni Bistoni       : ED, misc. LED, open-shell LED, HFLD           
  Martin Brehm           : Molecular dynamics                            
  Dmytro Bykov           : pre 5.0 version of the SCF Hessian            
  Marcos Casanova-Páez   : Triplet and SCS-CIS(D). UHF-(DLPNO)-IP/EA/STEOM-CCSD. UHF-CVS-IP/STEOM-CCSD   
  Vijay G. Chilkuri      : MRCI spin determinant printing, contributions to CSF-ICE 
  Pauline Colinet        : FMM embedding                                 
  Dipayan Datta          : RHF DLPNO-CCSD density                        
  Achintya Kumar Dutta   : EOM-CC, STEOM-CC                              
  Nicolas Foglia         : Exact transition moments, OPA infrastructure, MCD improvements    
  Dmitry Ganyushin       : Spin-Orbit,Spin-Spin,Magnetic field MRCI      
  Miquel Garcia-Rates    : C-PCM and meta-GGA Hessian, CCSD/C-PCM, Gaussian charge scheme 
  Tiago L. C. Gouveia    : GS-ROHF, GS-ROCIS                             
  Yang Guo               : DLPNO-NEVPT2, F12-NEVPT2, CIM, IAO-localization        
  Andreas Hansen         : Spin unrestricted coupled pair/coupled cluster methods 
  Ingolf Harden          : AUTO-CI MPn and infrastructure                
  Benjamin Helmich-Paris : MC-RPA, TRAH-(SCF,CASSCF), AVAS, COSX integrals, SCF dyn. polar. 
  Lee Huntington         : MR-EOM, pCC                                   
  Robert Izsak           : Overlap fitted RIJCOSX, COSX-SCS-MP3, EOM     
  Riya Kayal             : Wick's Theorem for AUTO-CI, AUTO-CI UHF-CCSDT 
  Emily Kempfer          : AUTO-CI, RHF CISDT and CCSDT                  
  Christian Kollmar      : KDIIS, OOCD, Brueckner-CCSD(T), CCSD density, CASPT2, CASPT2-K, improved NEVPT2 
  Axel Koslowski         : Symmetry handling                             
  Simone Kossmann        : meta-GGA functionals, TD-DFT gradient, OOMP2, (MP2 Hessian; deprecated post 5.0) 
  Lucas Lang             : DCDCAS                                        
  Marvin Lechner         : AUTO-CI (C++ implementation), FIC-MRCC        
  Spencer Leger          : CASSCF response                               
  Dagmar Lenk            : GEPOL surface, SMD, ORCA-2-JSON               
  Dimitrios Liakos       : Extrapolation schemes; Compound Job, initial MDCI parallelization 
  Dimitrios Manganas     : Further ROCIS development; embedding schemes. LFT, Crystal Embedding 
  Dimitrios Pantazis     : SARC Basis sets                               
  Anastasios Papadopoulos: AUTO-CI, single reference methods and gradients 
  Taras Petrenko         : pre 6.0 DFT Hessian and TD-DFT gradient, (ASA, deprecated), ECA, 1-Electron XAS/XES, NRVS 
  Peter Pinski           : DLPNO-MP2, DLPNO-MP2 Gradient                 
  Christoph Reimann      : Effective Core Potentials                     
  Marius Retegan         : Local ZFS, SOC                                
  Christoph Riplinger    : Optimizer, TS searches, QM/MM, DLPNO-CCSD(T), (RO)-DLPNO pert. Triples 
  Michael Roemelt        : Original ROCIS implementation                 
  Masaaki Saitow         : Open-shell DLPNO-CCSD energy and density      
  Barbara Sandhoefer     : DKH picture change effects                    
  Kantharuban Sivalingam : CASSCF convergence/infrastructure, NEVPT2 and variants, FIC-MRCI 
  Bernardo de Souza      : ESD, SOC TD-DFT                               
  Georgi L. Stoychev     : AutoAux, RI-MP2 NMR, DLPNO-MP2 response, X2C  
  Van Anh Tran           : RI-MP2 g-tensors                              
  Willem Van den Heuvel  : Paramagnetic NMR                              
  Zikuan Wang            : NOTCH, Electric field optimization            
  Frank Wennmohs         : Technical directorship and infrastructure     
  Hang Xu                : AUTO-CI-Response properties                   
                                                                         
[FACCTs GmbH]                                                            
  Markus Bursch, Miquel Garcia-Rates, Christoph Riplinger, Bernardo de Souza, Georgi L. Stoychev 
                                                                 
  APM, Basis sets (HGBS, AHGBS, def-TZVP (Ac-Lr), def2-XVPD (La-Lu)), CI-OPT, improved COSX, DLPNO-Multilevel,           
  DOCKER, DRACO, updates on ESD, GOAT, IRC, LR-CPCM, MBIS, meta-GGA TD-DFT gradient, ML-optimized integration grids, 
  MM, NACMEs, nearIR, NEB, NEB-TS, NL-DFT gradient (VV10), 2- and 3-layer-ONIOM, interface openCOSMO-RS, QMMM,   
  Crystal-QMMM, SF, symmetry and pop. for TD-DFT, r2SCAN hybrids, SOLVATOR                                   
                                                                         
[Other institutions]                                                     
  V. Asgeirsson          : NEB                                           
  Christoph Bannwarth    : sTDA-DFT, sTD-DFT, PBEh-3c, B97-3c, D3        
  Sebastian Ehlert       : rSCAN, r2SCAN, r2SCAN-3c, D4, dhf basis sets  
  Marvin Friede          : D4 for Fr, Ra, Ac-Lr                          
  Lars Goerigk           : TD-DFT with DH, B97 family of functionals     
  Stefan Grimme          : VdW corrections, initial TS optimization, DFT functionals, gCP, sTDA/sTD-DF 
  Waldemar Hujo          : DFT-NL                                        
  H. Jonsson             : NEB                                           
  Holger Kruse           : gCP                                           
  Marcel Mueller         : wB97X-3c, vDZP basis set                      
  Hagen Neugebauer       : wr2SCAN                                       
  Tobias Risthaus        : range-separated hybrid DFT                    
  Lukas Wittmann         : regularized MP2, r2SCAN double-hybrids, wr2SCAN        
                                                                         
We gratefully acknowledge several colleagues who have allowed us to      
interface, adapt or use parts of their codes:                            
  Ed Valeev, F. Pavosevic, A. Kumar             : LibInt (2-el integral package), F12 methods 
  Garnet Chan, S. Sharma, J. Yang, R. Olivares  : DMRG                   
  Ulf Ekstrom                                   : XCFun DFT Library      
  Mihaly Kallay                                 : mrcc  (arbitrary order and MRCC methods)
  Frank Weinhold                                : gennbo (NPA and NBO analysis)           
  Simon Mueller                                 : openCOSMO-RS                            
  Christopher J. Cramer and Donald G. Truhlar   : smd solvation model                     
  S Lehtola, MJT Oliveira, MAL Marques          : LibXC Library                           
  Liviu Ungur et al                             : ANISO software                          


 Your calculation uses the libint2 library for the computation of 2-el integrals
 For citations please refer to: http://libint.valeyev.net

 Your ORCA version has been built with support for libXC version: 6.2.2
 For citations please refer to: https://libxc.gitlab.io

 This ORCA versions uses:
   CBLAS   interface :  Fast vector & matrix operations
   LAPACKE interface :  Fast linear algebra routines
   SCALAPACK package :  Parallel linear algebra routines
   Shared memory     :  Shared parallel matrices
   BLAS/LAPACK       :  OpenBLAS 0.3.27  USE64BITINT DYNAMIC_ARCH NO_AFFINITY Zen SINGLE_THREADED
        Core in use  :  Zen
   Copyright (c) 2011-2014, The OpenBLAS Project


Your calculation utilizes the geometrical counterpoise correction gCP
Please cite in your paper:
H.Kruse, S. Grimme J.Chem.Phys., 136, (2012), 154101 
   

Your calculation utilizes the atom-pairwise dispersion correction
based on EEQ partial charges (D4)


================================================================================

----- Orbital basis set information -----
Your calculation utilizes the basis: def2-mTZVPP
   Stefan Grimme, Andreas Hansen, Sebastian Ehlert, and Jan-Michael Mewes 
   J. Chem. Phys. 154, 064103 (2021). DOI: 10.1063/5.0040021

----- AuxJ basis set information -----
Your calculation utilizes the auxiliary basis: def2/J
   F. Weigend, Phys. Chem. Chem. Phys. 8, 1057 (2006).

================================================================================
                                        WARNINGS
                       Please study these warnings very carefully!
================================================================================



WARNING: SCAN, rSCAN, or r2SCAN functional requested.
  ===> : libXC variant has now been activated.



================================================================================
                                       INPUT FILE
================================================================================
NAME = sp.inp
|  1> ! r2scan-3c def2/J RI DEFGRID2 scfconv6 printgap
|  2> %output
|  3>     printlevel normal
|  4> end
|  5> * xyz 0 1
|  6> C -2.5180002976 0.1984512992 6.75844e-05
|  7> C -1.1594064734 -0.3975369947 -4.3406e-05
|  8> C -0.0195370658 0.2948262069 -0.0001223954
|  9> C 1.2864561027 -0.3494462741 -2.82328e-05
| 10> O 2.3461211557 0.2253760678 7.55098e-05
| 11> H -2.475304736 1.2841975712 -0.0003880337
| 12> H -3.0705638486 -0.1374532837 0.8775118496
| 13> H -3.0711396946 -0.1381902746 -0.8766980352
| 14> H -1.1207992484 -1.4808702907 1.51043e-05
| 15> H -0.0185230479 1.376254163 -0.0001870395
| 16> H 1.2394512777 -1.4581813053 5.43948e-05
| 17> *
| 18> 
| 19>                          ****END OF INPUT****
================================================================================

                       ****************************
                       * Single Point Calculation *
                       ****************************

---------------------------------
CARTESIAN COORDINATES (ANGSTROEM)
---------------------------------
  C     -2.518000    0.198451    0.000068
  C     -1.159406   -0.397537   -0.000043
  C     -0.019537    0.294826   -0.000122
  C      1.286456   -0.349446   -0.000028
  O      2.346121    0.225376    0.000076
  H     -2.475305    1.284198   -0.000388
  H     -3.070564   -0.137453    0.877512
  H     -3.071140   -0.138190   -0.876698
  H     -1.120799   -1.480870    0.000015
  H     -0.018523    1.376254   -0.000187
  H      1.239451   -1.458181    0.000054

----------------------------
CARTESIAN COORDINATES (A.U.)
----------------------------
  NO LB      ZA    FRAG     MASS         X           Y           Z
   0 C     6.0000    0    12.011   -4.758331    0.375019    0.000128
   1 C     6.0000    0    12.011   -2.190961   -0.751236   -0.000082
   2 C     6.0000    0    12.011   -0.036920    0.557141   -0.000231
   3 C     6.0000    0    12.011    2.431050   -0.660358   -0.000053
   4 O     8.0000    0    15.999    4.433526    0.425899    0.000143
   5 H     1.0000    0     1.008   -4.677648    2.426782   -0.000733
   6 H     1.0000    0     1.008   -5.802525   -0.259749    1.658257
   7 H     1.0000    0     1.008   -5.803613   -0.261142   -1.656719
   8 H     1.0000    0     1.008   -2.118004   -2.798439    0.000029
   9 H     1.0000    0     1.008   -0.035003    2.600743   -0.000353
  10 H     1.0000    0     1.008    2.342223   -2.755563    0.000103

--------------------------------
INTERNAL COORDINATES (ANGSTROEM)
--------------------------------
 C      0   0   0     0.000000000000     0.00000000     0.00000000
 C      1   0   0     1.483569761737     0.00000000     0.00000000
 C      2   1   0     1.333667528116   125.03915221     0.00000000
 C      3   2   1     1.456264122613   122.46722191   179.99059401
 O      4   3   2     1.205533392345   125.26404587   180.00979843
 H      1   2   3     1.086585516989   111.43418715     0.02635380
 H      1   2   3     1.089984772939   109.90733250   238.88471265
 H      1   2   3     1.089958115451   109.91343258   121.17439055
 H      2   1   3     1.084021010621   115.72712369   179.99564057
 H      3   2   1     1.081428433437   121.32845937     0.00000000
 H      4   3   2     1.109730971817   113.83044185     0.00000000

---------------------------
INTERNAL COORDINATES (A.U.)
---------------------------
 C      0   0   0     0.000000000000     0.00000000     0.00000000
 C      1   0   0     2.803540550249     0.00000000     0.00000000
 C      2   1   0     2.520266381843   125.03915221     0.00000000
 C      3   2   1     2.751940370393   122.46722191   179.99059401
 O      4   3   2     2.278127956830   125.26404587   180.00979843
 H      1   2   3     2.053349048194   111.43418715     0.02635380
 H      1   2   3     2.059772710999   109.90733250   238.88471265
 H      1   2   3     2.059722335647   109.91343258   121.17439055
 H      2   1   3     2.048502833490   115.72712369   179.99564057
 H      3   2   1     2.043603572631   121.32845937     0.00000000
 H      4   3   2     2.097087619065   113.83044185     0.00000000

---------------------
BASIS SET INFORMATION
---------------------
There are 3 groups of distinct atoms

 Group   1 Type C   : 11s6p1d contracted to 5s3p1d pattern {62111/411/1}
 Group   2 Type O   : 11s6p2d contracted to 5s3p2d pattern {62111/411/11}
 Group   3 Type H   : 4s1p contracted to 2s1p pattern {31/1}

Atom   0C    basis set group =>   1
Atom   1C    basis set group =>   1
Atom   2C    basis set group =>   1
Atom   3C    basis set group =>   1
Atom   4O    basis set group =>   2
Atom   5H    basis set group =>   3
Atom   6H    basis set group =>   3
Atom   7H    basis set group =>   3
Atom   8H    basis set group =>   3
Atom   9H    basis set group =>   3
Atom  10H    basis set group =>   3
---------------------------------
AUXILIARY/J BASIS SET INFORMATION
---------------------------------
There are 3 groups of distinct atoms

 Group   1 Type C   : 12s5p4d2f1g contracted to 6s4p3d1f1g pattern {711111/2111/211/2/1}
 Group   2 Type O   : 12s5p4d2f1g contracted to 6s4p3d1f1g pattern {711111/2111/211/2/1}
 Group   3 Type H   : 5s2p1d contracted to 3s1p1d pattern {311/2/1}

Atom   0C    basis set group =>   1
Atom   1C    basis set group =>   1
Atom   2C    basis set group =>   1
Atom   3C    basis set group =>   1
Atom   4O    basis set group =>   2
Atom   5H    basis set group =>   3
Atom   6H    basis set group =>   3
Atom   7H    basis set group =>   3
Atom   8H    basis set group =>   3
Atom   9H    basis set group =>   3
Atom  10H    basis set group =>   3

Checking for AutoStart:
The File: sp.gbw exists
Trying to determine its content:
     ... Fine, the file contains calculation information
     ... Fine, the calculation information was read
     ... Fine, the file contains a basis set
     ... Fine, the basis set was read
     ... Fine, the file contains a geometry
     ... Fine, the geometry was read
     ... Fine, the file contains a set of orbitals
     ... Fine, the orbitals can be read
     => possible old guess file was deleted
     => GBW file was renamed to GES file
     => GES file is set as startup file
     => Guess is set to MORead
     ... now leaving AutoStart

------------------------------------------------------------------------------
                             ORCA STARTUP CALCULATIONS
                           -- RI-GTO INTEGRALS CHOSEN --
------------------------------------------------------------------------------
------------------------------------------------------------------------------
                   ___                                                        
                  /   \      - P O W E R E D   B Y -                         
                 /     \                                                     
                 |  |  |   _    _      __       _____    __    __             
                 |  |  |  | |  | |    /  \     |  _  \  |  |  /  |          
                  \  \/   | |  | |   /    \    | | | |  |  | /  /          
                 / \  \   | |__| |  /  /\  \   | |_| |  |  |/  /          
                |  |  |   |  __  | /  /__\  \  |    /   |      \           
                |  |  |   | |  | | |   __   |  |    \   |  |\   \          
                \     /   | |  | | |  |  |  |  | |\  \  |  | \   \       
                 \___/    |_|  |_| |__|  |__|  |_| \__\ |__|  \__/        
                                                                              
                      - O R C A' S   B I G   F R I E N D -                    
                                      &                                       
                       - I N T E G R A L  F E E D E R -                       
                                                                              
 v1 FN, 2020, v2 2021, v3 2022-2024                                           
------------------------------------------------------------------------------


----------------------
SHARK INTEGRAL PACKAGE
----------------------

Number of atoms                             ...     11
Number of basis functions                   ...    130
Number of shells                            ...     64
Maximum angular momentum                    ...      2
Integral batch strategy                     ... SHARK/LIBINT Hybrid
RI-J (if used) integral strategy            ... SPLIT-RIJ (Revised 2003 algorithm where possible)
Printlevel                                  ...      1
Contraction scheme used                     ... SEGMENTED contraction
Prescreening option                         ... SCHWARTZ
   Thresh                                   ... 1.000e-10
   Tcut                                     ... 1.000e-11
   Tpresel                                  ... 1.000e-11 
Coulomb Range Separation                    ... NOT USED
Exchange Range Separation                   ... NOT USED
Multipole approximations                    ... NOT USED
Finite Nucleus Model                        ... NOT USED
CABS basis                                  ... NOT available
Auxiliary Coulomb fitting basis             ... AVAILABLE
   # of basis functions in Aux-J            ...    311
   # of shells in Aux-J                     ...    105
   Maximum angular momentum in Aux-J        ...      4
Auxiliary J/K fitting basis                 ... NOT available
Auxiliary Correlation fitting basis         ... NOT available
Auxiliary 'external' fitting basis          ... NOT available

Checking pre-screening integrals            ... done (  0.0 sec) Dimension = 64
Check shell pair data                       ... done (  0.0 sec)
Shell pair information
Shell pair cut-off parameter TPreSel        ...   1.0e-11
Total number of shell pairs                 ...      2080
Shell pairs after pre-screening             ...      1926
Total number of primitive shell pairs       ...      7509
Primitive shell pairs kept                  ...      5297
          la=0 lb=0:    640 shell pairs
          la=1 lb=0:    724 shell pairs
          la=1 lb=1:    218 shell pairs
          la=2 lb=0:    205 shell pairs
          la=2 lb=1:    119 shell pairs
          la=2 lb=2:     20 shell pairs

Calculating one electron integrals          ... done (  0.0 sec)
Calculating RI/J V-Matrix + Cholesky decomp.... done (  0.0 sec)
Calculating Nuclear repulsion               ... done (  0.0 sec) ENN=    153.933437392573 Eh

Diagonalization of the overlap matrix:
Smallest eigenvalue                        ... 2.287e-04
Time for diagonalization                   ...    0.002 sec
Threshold for overlap eigenvalues          ... 1.000e-07
Number of eigenvalues below threshold      ... 0
Time for construction of square roots      ...    0.004 sec
Total time needed                          ...    0.007 sec

-------------------
DFT GRID GENERATION
-------------------

General Integration Accuracy     IntAcc      ... 4.388
Radial Grid Type                 RadialGrid  ... OptM3 with GC (2021)
Angular Grid (max. ang.)         AngularGrid ... 4 (Lebedev-302)
Angular grid pruning method      GridPruning ... 4 (adaptive)
Weight generation scheme         WeightScheme... mBecke (2022)
Basis function cutoff            BFCut       ... 1.0000e-10
Integration weight cutoff        WCut        ... 1.0000e-14
Partially contracted basis set               ... off
Rotationally invariant grid construction     ... off
Angular grids for H and He will be reduced by one unit
Diffuse basis detected: some atoms will have their outermost
                        angular grid increased by 1.

Total number of grid points                  ...    50050
Total number of batches                      ...      785
Average number of points per batch           ...       63
Average number of grid points per atom       ...     4550
Initializing property integral containers    ... done (  0.0 sec)

SHARK setup successfully completed in   0.5 seconds

Maximum memory used throughout the entire STARTUP-calculation: 22.5 MB
-------------------------------------------------------------------------------
                                 ORCA GUESS
                   Start orbitals & Density for SCF / CASSCF
-------------------------------------------------------------------------------

------------
SCF SETTINGS
------------
Hamiltonian:
 Density Functional     Method          .... DFT(GTOs)
  Functional kind                       .... Exchange
  Functional name                       .... Re-regularized SCAN exchange by Furness et al
  Functional family                     .... MGGA
  Functional refs                              
    [ 0] J. W. Furness, A. D. Kaplan, J. Ning, J. P. Perdew, and J. Sun.,  J. Phys. Chem. Lett. 11, 8208-8215 (2020), doi: 10.1021/acs.jpclett.0c02405
    [ 1] J. W. Furness, A. D. Kaplan, J. Ning, J. P. Perdew, and J. Sun.,  J. Phys. Chem. Lett. 11, 9248-9248 (2020), doi: 10.1021/acs.jpclett.0c03077
  Functional external parameters        .... 6
    Parameter  0 _c1        =  6.670000e-01 : c1 parameter        
    Parameter  1 _c2        =  8.000000e-01 : c2 parameter        
    Parameter  2 _d         =  1.240000e+00 : d parameter         
    Parameter  3 _k1        =  6.500000e-02 : k1 parameter        
    Parameter  4 _eta       =  1.000000e-03 : eta parameter       
    Parameter  5 _dp2       =  3.610000e-01 : dp2 parameter       
  Functional kind                       .... Correlation
  Functional name                       .... Re-regularized SCAN correlation by Furness et al
  Functional family                     .... MGGA
  Functional refs                              
    [ 0] J. W. Furness, A. D. Kaplan, J. Ning, J. P. Perdew, and J. Sun.,  J. Phys. Chem. Lett. 11, 8208-8215 (2020), doi: 10.1021/acs.jpclett.0c02405
    [ 1] J. W. Furness, A. D. Kaplan, J. Ning, J. P. Perdew, and J. Sun.,  J. Phys. Chem. Lett. 11, 9248-9248 (2020), doi: 10.1021/acs.jpclett.0c03077
  Functional external parameters        .... 1
    Parameter  0 _eta       =  1.000000e-03 : Regularization parameter
 Gradients option       PostSCFGGA      .... off
 RI-approximation to the Coulomb term is turned on
   Number of AuxJ basis functions       .... 311


General Settings:
 Integral files         IntName         .... sp
 Hartree-Fock type      HFTyp           .... RHF
 Total Charge           Charge          ....    0
 Multiplicity           Mult            ....    1
 Number of Electrons    NEL             ....   38
 Basis Dimension        Dim             ....  130
 Nuclear Repulsion      ENuc            ....    153.9334373926 Eh

Convergence Acceleration:
 AO-DIIS                CNVDIIS         .... on
   Start iteration      DIISMaxIt       ....    12
   Startup error        DIISStart       ....  0.200000
   # of expansion vecs  DIISMaxEq       ....     5
   Bias factor          DIISBfac        ....   1.050
   Max. coefficient     DIISMaxC        ....  10.000
 MO-DIIS                CNVKDIIS        .... off
 Trust-Rad. Augm. Hess. CNVTRAH         .... auto
   Auto Start mean grad. ratio tolernc. ....  1.125000
   Auto Start start iteration           ....     1
   Auto Start num. interpolation iter.  ....    10
   Max. Number of Micro iterations      ....    24
   Max. Number of Macro iterations      .... Maxiter - #DIIS iter
   Number of Davidson start vectors     ....     2
   Converg. threshold    (grad. norm)   ....   3.330e-04
   Grad. Scal. Fac. for Micro threshold ....   0.100
   Minimum threshold for Micro iter.    ....   1.000e-02
   NR start threshold (gradient norm)   ....   1.000e-04
   Initial trust radius                 ....   0.400
   Minimum AH scaling param. (alpha)    ....   1.000
   Maximum AH scaling param. (alpha)    .... 1000.000
   Quad. conv. algorithm                .... NR
   White noise on init. David. guess    .... on
   Maximum white noise                  ....   0.010
   Pseudo random numbers                .... off
   Inactive MOs                         .... canonical
   Orbital update algorithm             .... Taylor
   Preconditioner                       .... Diag
   Full preconditioner red. dimension   ....   250
   COSX micro iterations for RIJONX calc.... off
 SOSCF                  CNVSOSCF        .... on
   Start iteration      SOSCFMaxIt      ....   150
   Startup grad/error   SOSCFStart      ....  0.003300
   Hessian update       SOSCFHessUp     .... L-BFGS
 Level Shifting         CNVShift        .... on
   Level shift para.    LevelShift      ....    0.2500
   Turn off err/grad.   ShiftErr        ....    0.0010
 Zerner damping         CNVZerner       .... off
 Static damping         CNVDamp         .... on
   Fraction old density DampFac         ....    0.7000
   Max. Damping (<1)    DampMax         ....    0.9800
   Min. Damping (>=0)   DampMin         ....    0.0000
   Turn off err/grad.   DampErr         ....    0.1000

SCF Procedure:
 Maximum # iterations   MaxIter         ....   125
 SCF integral mode      SCFMode         .... Direct
   Integral package                     .... SHARK and LIBINT hybrid scheme
 Reset frequency        DirectResetFreq ....    20
 Integral Threshold     Thresh          ....  1.000e-10 Eh
 Primitive CutOff       TCut            ....  1.000e-11 Eh

Convergence Tolerance:
 Convergence Check Mode ConvCheckMode   .... Total+1el-Energy
 Convergence forced     ConvForced      .... 0
 Energy Change          TolE            ....  1.000e-06 Eh
 1-El. energy change                    ....  1.000e-03 Eh
 Orbital Gradient       TolG            ....  3.330e-04
 Orbital Rotation angle TolX            ....  3.330e-04
 DIIS Error             TolErr          ....  1.000e-06

---------------------
INITIAL GUESS: MOREAD
---------------------
Guess MOs are being read from file: sp.ges
Input Geometry matches current geometry (good)
Atom 0: N(Shells)= 9 and 6 - projection required
Input basis set needs projection
NBasis(read)= 82
NBasis(calc)= 130
Basis set overlap was calculated
Using GuessMode=FMatrix for the initial guess
C*T matrix was formed
Effective Fockian was calculated
Effective Fockian was diagonalized
Initial density was built
                      ------------------
                      INITIAL GUESS DONE (   0.0 sec)
                      ------------------
             **** ENERGY FILE WAS UPDATED (sp.en.tmp) ****
Finished Guess after   0.1 sec
Maximum memory used throughout the entire GUESS-calculation: 9.3 MB

-------------------------------------------------------------------------------------------
                                      ORCA LEAN-SCF
                              memory conserving SCF solver
-------------------------------------------------------------------------------------------

----------------------------------------D-I-I-S--------------------------------------------
Iteration    Energy (Eh)           Delta-E    RMSDP     MaxDP     DIISErr   Damp  Time(sec)
-------------------------------------------------------------------------------------------
               ***  Starting incremental Fock matrix formation  ***
    1    -231.0653779902070539     0.00e+00  3.98e-03  8.37e-02  6.25e-01  0.700   0.7
    2    -231.0982951854986425    -3.29e-02  3.62e-03  6.90e-02  4.39e-01  0.700   0.6
    3    -231.1215867631260892    -2.33e-02  2.83e-03  6.45e-02  3.08e-01  0.700   0.6
    4    -231.1379514029627842    -1.64e-02  2.10e-03  5.23e-02  2.16e-01  0.700   0.7
                               ***Turning on AO-DIIS***
    5    -231.1494347533647726    -1.15e-02  1.58e-03  4.29e-02  1.51e-01  0.700   0.6
    6    -231.1574860679638448    -8.05e-03  1.14e-03  3.16e-02  1.05e-01  0.700   0.6
    7    -231.1631314393479499    -5.65e-03  8.12e-04  2.29e-02  7.39e-02  0.700   0.6
    8    -231.1670871791237403    -3.96e-03  1.93e-03  5.58e-02  5.18e-02  0.000   0.6
                              *** Initializing SOSCF ***
---------------------------------------S-O-S-C-F--------------------------------------
Iteration    Energy (Eh)           Delta-E    RMSDP     MaxDP     MaxGrad    Time(sec)
--------------------------------------------------------------------------------------
    9    -231.1763311798934808    -9.24e-03  1.34e-05  3.22e-04  2.86e-04     0.6
               *** Restarting incremental Fock matrix formation ***
   10    -231.1763311517979389     2.81e-08  4.59e-05  2.22e-03  1.25e-04     0.6
   11    -231.1763303062119519     8.46e-07  2.92e-05  1.38e-03  3.73e-04     0.5
                 **** Energy Check signals convergence ****

               *****************************************************
               *                     SUCCESS                       *
               *           SCF CONVERGED AFTER  11 CYCLES          *
               *****************************************************

             **** ENERGY FILE WAS UPDATED (sp.en.tmp) ****

----------------
TOTAL SCF ENERGY
----------------

Total Energy       :       -231.17633030621195 Eh           -6290.62776 eV

Components:
Nuclear Repulsion  :        153.93343739257293 Eh            4188.74178 eV
Electronic Energy  :       -385.10976769878494 Eh          -10479.36954 eV
One Electron Energy:       -616.84841826286049 Eh          -16785.29881 eV
Two Electron Energy:        231.73865056407558 Eh            6305.92927 eV

Virial components:
Potential Energy   :       -461.46857282183328 Eh          -12557.19826 eV
Kinetic Energy     :        230.29224251562130 Eh            6266.57051 eV
Virial Ratio       :          2.00383898207310

DFT components:
N(Alpha)           :       18.999978137376 electrons
N(Beta)            :       18.999978137376 electrons
N(Total)           :       37.999956274752 electrons
E(X)               :      -31.201077768386 Eh       
E(C)               :       -1.200947273107 Eh       
E(XC)              :      -32.402025041492 Eh       

---------------
SCF CONVERGENCE
---------------

  Last Energy change         ...   -8.4559e-07  Tolerance :   1.0000e-06
  Last MAX-Density change    ...    1.3758e-03  Tolerance :   1.0000e-05
  Last RMS-Density change    ...    2.9191e-05  Tolerance :   1.0000e-06
  Last DIIS Error            ...    2.8644e-04  Tolerance :   1.0000e-06
  Last Orbital Gradient      ...    3.7333e-04  Tolerance :   3.3300e-04
  Last Orbital Rotation      ...    3.5559e-04  Tolerance :   3.3300e-04


----------------
ORBITAL ENERGIES
----------------

  NO   OCC          E(Eh)            E(eV) 
   0   2.0000     -18.942712      -515.4574 
   1   2.0000     -10.112772      -275.1825 
   2   2.0000     -10.073456      -274.1127 
   3   2.0000     -10.050531      -273.4889 
   4   2.0000     -10.045858      -273.3617 
   5   2.0000      -1.008367       -27.4391 
   6   2.0000      -0.794514       -21.6198 
   7   2.0000      -0.701790       -19.0967 
   8   2.0000      -0.580967       -15.8089 
   9   2.0000      -0.542813       -14.7707 
  10   2.0000      -0.461386       -12.5549 
  11   2.0000      -0.424740       -11.5578 
  12   2.0000      -0.411761       -11.2046 
  13   2.0000      -0.388018       -10.5585 
  14   2.0000      -0.372886       -10.1467 
  15   2.0000      -0.369802       -10.0628 
  16   2.0000      -0.349473        -9.5097 
  17   2.0000      -0.263233        -7.1629 
  18   2.0000      -0.220459        -5.9990 
  19   0.0000      -0.089168        -2.4264 
  20   0.0000       0.022074         0.6007 
  21   0.0000       0.085142         2.3168 
  22   0.0000       0.105881         2.8812 
  23   0.0000       0.116221         3.1625 
  24   0.0000       0.126133         3.4323 
  25   0.0000       0.156064         4.2467 
  26   0.0000       0.159787         4.3480 
  27   0.0000       0.161140         4.3848 
  28   0.0000       0.185096         5.0367 
  29   0.0000       0.186806         5.0833 
*Only the first 10 virtual orbitals were printed.

                    ********************************
                    * MULLIKEN POPULATION ANALYSIS *
                    ********************************

-----------------------
MULLIKEN ATOMIC CHARGES
-----------------------
   0 C :   -0.482360
   1 C :   -0.057132
   2 C :   -0.099704
   3 C :    0.065176
   4 O :   -0.336592
   5 H :    0.159648
   6 H :    0.161571
   7 H :    0.161554
   8 H :    0.160272
   9 H :    0.173111
  10 H :    0.094455
Sum of atomic charges:   -0.0000000

--------------------------------
MULLIKEN REDUCED ORBITAL CHARGES
--------------------------------
  0 C s       :     3.341463  s :     3.341463
      pz      :     1.076024  p :     3.113570
      px      :     0.963813
      py      :     1.073733
      dz2     :     0.004853  d :     0.027327
      dxz     :     0.007219
      dyz     :     0.002267
      dx2y2   :     0.007804
      dxy     :     0.005183

  1 C s       :     3.142683  s :     3.142683
      pz      :     0.904502  p :     2.876257
      px      :     0.950589
      py      :     1.021165
      dz2     :     0.002959  d :     0.038192
      dxz     :     0.008428
      dyz     :     0.001487
      dx2y2   :     0.014978
      dxy     :     0.010341

  2 C s       :     3.110434  s :     3.110434
      pz      :     0.995963  p :     2.954719
      px      :     0.942273
      py      :     1.016484
      dz2     :     0.003310  d :     0.034550
      dxz     :     0.004506
      dyz     :     0.002319
      dx2y2   :     0.013474
      dxy     :     0.010942

  3 C s       :     3.297828  s :     3.297828
      pz      :     0.751563  p :     2.550790
      px      :     0.840372
      py      :     0.958855
      dz2     :     0.004192  d :     0.086205
      dxz     :     0.015737
      dyz     :     0.003385
      dx2y2   :     0.037852
      dxy     :     0.025039

  4 O s       :     3.838635  s :     3.838635
      pz      :     1.334262  p :     4.477275
      px      :     1.428395
      py      :     1.714617
      dz2     :     0.001321  d :     0.020682
      dxz     :     0.010037
      dyz     :     0.003358
      dx2y2   :     0.002718
      dxy     :     0.003248

  5 H s       :     0.822254  s :     0.822254
      pz      :     0.003548  p :     0.018098
      px      :     0.003317
      py      :     0.011233

  6 H s       :     0.820039  s :     0.820039
      pz      :     0.008525  p :     0.018390
      px      :     0.005680
      py      :     0.004185

  7 H s       :     0.820056  s :     0.820056
      pz      :     0.008518  p :     0.018391
      px      :     0.005684
      py      :     0.004188

  8 H s       :     0.820533  s :     0.820533
      pz      :     0.003636  p :     0.019195
      px      :     0.003299
      py      :     0.012260

  9 H s       :     0.807526  s :     0.807526
      pz      :     0.003869  p :     0.019362
      px      :     0.002966
      py      :     0.012527

 10 H s       :     0.887920  s :     0.887920
      pz      :     0.002225  p :     0.017624
      px      :     0.002414
      py      :     0.012986


------------------------
MULLIKEN OVERLAP CHARGES
------------------------
B(  0-C ,  1-C ) :   0.3964 B(  0-C ,  2-C ) :  -0.0787 B(  0-C ,  5-H ) :   0.8784 
B(  0-C ,  6-H ) :   0.8149 B(  0-C ,  7-H ) :   0.8149 B(  1-C ,  2-C ) :   0.3449 
B(  1-C ,  3-C ) :   0.2185 B(  1-C ,  5-H ) :  -0.1539 B(  1-C ,  6-H ) :  -0.0678 
B(  1-C ,  7-H ) :  -0.0678 B(  1-C ,  8-H ) :   0.7755 B(  1-C ,  9-H ) :  -0.1061 
B(  1-C , 10-H ) :   0.1424 B(  2-C ,  4-O ) :  -0.1914 B(  2-C ,  8-H ) :  -0.0671 
B(  2-C ,  9-H ) :   0.8279 B(  2-C , 10-H ) :  -0.4894 B(  3-C ,  4-O ) :   1.0171 
B(  3-C , 10-H ) :   1.0563 B(  4-O , 10-H ) :  -0.1557 


                     *******************************
                     * LOEWDIN POPULATION ANALYSIS *
                     *******************************

----------------------
LOEWDIN ATOMIC CHARGES
----------------------
   0 C :   -0.398560
   1 C :   -0.135416
   2 C :   -0.191604
   3 C :    0.187105
   4 O :   -0.451850
   5 H :    0.161572
   6 H :    0.168690
   7 H :    0.168672
   8 H :    0.165698
   9 H :    0.177467
  10 H :    0.148226

-------------------------------
LOEWDIN REDUCED ORBITAL CHARGES
-------------------------------
  0 C s       :     2.961265  s :     2.961265
      pz      :     1.147313  p :     3.373530
      px      :     1.079080
      py      :     1.147136
      dz2     :     0.011973  d :     0.063766
      dxz     :     0.017051
      dyz     :     0.004917
      dx2y2   :     0.018483
      dxy     :     0.011341

  1 C s       :     2.935942  s :     2.935942
      pz      :     0.884679  p :     3.118348
      px      :     1.101644
      py      :     1.132025
      dz2     :     0.005020  d :     0.081125
      dxz     :     0.014206
      dyz     :     0.002496
      dx2y2   :     0.035056
      dxy     :     0.024346

  2 C s       :     2.934230  s :     2.934230
      pz      :     0.987771  p :     3.180815
      px      :     1.066336
      py      :     1.126708
      dz2     :     0.006400  d :     0.076559
      dxz     :     0.007874
      dyz     :     0.003676
      dx2y2   :     0.031607
      dxy     :     0.027001

  3 C s       :     2.865710  s :     2.865710
      pz      :     0.724213  p :     2.756411
      px      :     1.001515
      py      :     1.030682
      dz2     :     0.011247  d :     0.190775
      dxz     :     0.027574
      dyz     :     0.005095
      dx2y2   :     0.087161
      dxy     :     0.059698

  4 O s       :     3.568427  s :     3.568427
      pz      :     1.325850  p :     4.661372
      px      :     1.581307
      py      :     1.754215
      dz2     :     0.026753  d :     0.222051
      dxz     :     0.034637
      dyz     :     0.007603
      dx2y2   :     0.080730
      dxy     :     0.072329

  5 H s       :     0.795208  s :     0.795208
      pz      :     0.007707  p :     0.043220
      px      :     0.007184
      py      :     0.028329

  6 H s       :     0.787675  s :     0.787675
      pz      :     0.021050  p :     0.043635
      px      :     0.012968
      py      :     0.009617

  7 H s       :     0.787690  s :     0.787690
      pz      :     0.021032  p :     0.043637
      px      :     0.012979
      py      :     0.009625

  8 H s       :     0.789107  s :     0.789107
      pz      :     0.007958  p :     0.045196
      px      :     0.007523
      py      :     0.029714

  9 H s       :     0.777846  s :     0.777846
      pz      :     0.008485  p :     0.044687
      px      :     0.006174
      py      :     0.030028

 10 H s       :     0.812619  s :     0.812619
      pz      :     0.004503  p :     0.039155
      px      :     0.005118
      py      :     0.029534


---------------------------------
LOEWDIN BOND ORDERS (THRESH 0.050000)
---------------------------------
B(  0-C ,  1-C ) :   1.1800 B(  0-C ,  2-C ) :   0.1034 B(  0-C ,  5-H ) :   0.9217 
B(  0-C ,  6-H ) :   0.9063 B(  0-C ,  7-H ) :   0.9063 B(  1-C ,  2-C ) :   1.8682 
B(  1-C ,  3-C ) :   0.1431 B(  1-C ,  4-O ) :   0.1202 B(  1-C ,  8-H ) :   0.8707 
B(  1-C ,  9-H ) :   0.0542 B(  2-C ,  3-C ) :   1.1172 B(  2-C ,  4-O ) :   0.2351 
B(  2-C ,  8-H ) :   0.0566 B(  2-C ,  9-H ) :   0.8642 B(  2-C , 10-H ) :   0.0556 
B(  3-C ,  4-O ) :   2.3984 B(  3-C , 10-H ) :   0.7903 B(  4-O , 10-H ) :   0.1475 


------------------------------------------
LOEWDIN REDUCED ORBITAL POPULATIONS PER MO
-------------------------------------------
THRESHOLD FOR PRINTING IS 0.1%%
                      0         1         2         3         4         5   
                 -18.94271 -10.11277 -10.07346 -10.05053 -10.04586  -1.00837
                   2.00000   2.00000   2.00000   2.00000   2.00000   2.00000
                  --------  --------  --------  --------  --------  --------
 0 C  s               0.0       0.0       0.0      99.7       0.0       0.0
 1 C  s               0.0       0.0      99.6       0.0       0.0       0.1
 1 C  px              0.0       0.0       0.0       0.1       0.1       0.2
 2 C  s               0.0       0.0       0.0       0.0      99.6       1.2
 2 C  px              0.0       0.1       0.1       0.0       0.0       2.0
 2 C  py              0.0       0.0       0.0       0.0       0.0       0.1
 3 C  s               0.0      99.2       0.0       0.0       0.0      17.8
 3 C  px              0.1       0.0       0.0       0.0       0.1      10.2
 3 C  py              0.0       0.0       0.0       0.0       0.0       3.5
 3 C  dz2             0.0       0.0       0.0       0.0       0.0       0.5
 3 C  dx2y2           0.0       0.0       0.0       0.0       0.0       0.4
 3 C  dxy             0.0       0.0       0.0       0.0       0.0       0.9
 4 O  s              99.9       0.0       0.0       0.0       0.0      54.7
 4 O  px              0.0       0.2       0.0       0.0       0.0       5.0
 4 O  py              0.0       0.1       0.0       0.0       0.0       1.5
 4 O  dz2             0.0       0.1       0.0       0.0       0.0       0.1
 4 O  dx2y2           0.0       0.1       0.0       0.0       0.0       0.2
 4 O  dxy             0.0       0.2       0.0       0.0       0.0       0.3
10 H  s               0.0       0.0       0.0       0.0       0.0       1.0

                      6         7         8         9        10        11   
                  -0.79451  -0.70179  -0.58097  -0.54281  -0.46139  -0.42474
                   2.00000   2.00000   2.00000   2.00000   2.00000   2.00000
                  --------  --------  --------  --------  --------  --------
 0 C  s              14.4      25.6       7.0       0.2       0.0       0.4
 0 C  px              3.0       0.3       7.2       0.1       1.4      14.8
 0 C  py              0.4       0.1       1.3       3.4      11.1       3.2
 0 C  dxy             0.0       0.0       0.1       0.0       0.0       0.2
 1 C  s              30.2       0.3      12.4       2.5       0.2       0.6
 1 C  px              0.2      19.0       1.1       0.6       2.6      15.4
 1 C  py              1.5       0.0       1.1      15.4      16.5       0.9
 1 C  dz2             0.2       0.0       0.0       0.0       0.0       0.0
 1 C  dx2y2           0.1       0.0       0.1       0.0       0.0       0.0
 1 C  dxy             0.0       0.3       0.1       0.1       0.0       0.1
 2 C  s              21.1      13.3       0.2       6.9       0.1       0.4
 2 C  px              3.1       2.2      18.1       0.5      13.3       0.1
 2 C  py              1.7       0.5       0.2      16.6       0.2      13.0
 2 C  dz2             0.2       0.1       0.0       0.0       0.0       0.0
 2 C  dxy             0.1       0.0       0.7       0.0       0.0       0.0
 3 C  s               2.2       4.9      10.7       4.6       0.3       1.2
 3 C  px              5.9       8.0       5.5       0.0       3.7       5.0
 3 C  py              0.1       0.0       0.8      13.4      19.1       0.2
 3 C  dx2y2           0.0       0.0       0.1       0.0       0.0       0.1
 3 C  dxy             0.1       0.2       0.2       0.0       0.0       0.0
 4 O  s               0.9       2.1       5.0       1.1       0.0       8.2
 4 O  px              0.3       1.0       4.3       0.3       1.6      18.7
 4 O  py              0.0       0.1       0.7       3.4       8.1       7.6
 4 O  dz2             0.1       0.2       0.4       0.1       0.0       0.1
 4 O  dx2y2           0.2       0.4       0.4       0.2       1.0       0.0
 4 O  dxy             0.0       0.1       0.5       1.1       0.7       0.1
 5 H  s               2.0       4.9       3.4       1.2       3.8       1.7
 5 H  px              0.0       0.0       0.0       0.0       0.0       0.1
 5 H  py              0.2       0.4       0.2       0.1       0.1       0.0
 6 H  s               1.9       5.7       3.5       0.0       0.8       1.6
 6 H  pz              0.1       0.3       0.2       0.0       0.0       0.1
 6 H  px              0.1       0.1       0.0       0.0       0.0       0.0
 7 H  s               1.9       5.7       3.5       0.0       0.8       1.6
 7 H  pz              0.1       0.3       0.2       0.0       0.0       0.1
 7 H  px              0.1       0.1       0.0       0.0       0.0       0.0
 8 H  s               3.9       0.0       4.9       7.6       6.2       0.0
 8 H  px              0.0       0.0       0.0       0.0       0.0       0.2
 8 H  py              0.4       0.0       0.4       0.4       0.2       0.0
 9 H  s               2.5       2.0       0.2      10.4       0.2       3.6
 9 H  px              0.0       0.0       0.1       0.0       0.1       0.0
 9 H  py              0.2       0.2       0.0       0.6       0.0       0.1
10 H  s               0.4       1.1       4.6       8.7       7.2       0.1
10 H  py              0.0       0.1       0.3       0.5       0.3       0.0

                     12        13        14        15        16        17   
                  -0.41176  -0.38802  -0.37289  -0.36980  -0.34947  -0.26323
                   2.00000   2.00000   2.00000   2.00000   2.00000   2.00000
                  --------  --------  --------  --------  --------  --------
 0 C  s               0.0       0.0       0.2       0.0       0.4       0.0
 0 C  pz             50.8       0.0       0.0       3.1       0.0       3.4
 0 C  px              0.0       0.6      23.9       0.0       2.0       0.0
 0 C  py              0.0      17.4       5.0       0.0      15.5       0.0
 0 C  dz2             0.0       0.1       0.3       0.0       0.0       0.0
 0 C  dxz             0.2       0.0       0.0       0.1       0.0       0.6
 0 C  dyz             0.2       0.0       0.0       0.0       0.0       0.0
 0 C  dx2y2           0.0       0.1       0.0       0.0       0.5       0.0
 0 C  dxy             0.0       0.0       0.2       0.0       0.0       0.0
 1 C  s               0.0       0.3       0.0       0.0       0.6       0.0
 1 C  pz             12.4       0.0       0.0       0.6       0.0      31.3
 1 C  px              0.0       2.0      12.7       0.0       0.6       0.0
 1 C  py              0.0       0.0       0.1       0.0      20.8       0.0
 1 C  dxz             0.1       0.0       0.0       0.1       0.0       0.5
 1 C  dx2y2           0.0       0.0       0.0       0.0       1.4       0.0
 1 C  dxy             0.0       0.1       0.6       0.0       0.0       0.0
 2 C  s               0.0       1.1       0.7       0.0       0.4       0.0
 2 C  pz              3.3       0.0       0.0       8.6       0.0      37.5
 2 C  px              0.0       0.2       7.7       0.0       0.3       0.0
 2 C  py              0.0      10.1       0.1       0.0      12.1       0.0
 2 C  dxz             0.0       0.0       0.0       0.1       0.0       0.3
 2 C  dyz             0.0       0.0       0.0       0.0       0.0       0.1
 2 C  dx2y2           0.0       0.4       0.1       0.0       1.0       0.0
 2 C  dxy             0.0       0.1       0.4       0.0       0.0       0.0
 3 C  s               0.0       1.1       0.7       0.0       0.4       0.0
 3 C  pz              1.3       0.0       0.0      34.7       0.0       0.2
 3 C  px              0.0       0.8       8.5       0.0       1.6       0.0
 3 C  py              0.0      10.9       0.2       0.0       1.1       0.0
 3 C  dxz             0.0       0.0       0.0       0.3       0.0       1.1
 3 C  dyz             0.0       0.0       0.0       0.2       0.0       0.0
 3 C  dx2y2           0.0       0.1       0.1       0.0       0.0       0.0
 3 C  dxy             0.0       0.1       0.0       0.0       0.0       0.0
 4 O  s               0.0       3.4       3.1       0.0       0.0       0.0
 4 O  pz              0.8       0.0       0.0      47.4       0.0      18.0
 4 O  px              0.0      23.4       8.7       0.0       0.4       0.0
 4 O  py              0.0       0.1      10.5       0.0       1.7       0.0
 4 O  dz2             0.0       0.1       0.1       0.0       0.0       0.0
 4 O  dxz             0.1       0.0       0.0       1.6       0.0       0.1
 4 O  dyz             0.0       0.0       0.0       0.4       0.0       0.0
 4 O  dx2y2           0.0       0.4       0.1       0.0       0.1       0.0
 4 O  dxy             0.0       0.1       0.1       0.0       0.1       0.0
 5 H  s               0.0       8.7       3.6       0.0      10.2       0.0
 5 H  pz              0.3       0.0       0.0       0.0       0.0       0.0
 5 H  px              0.0       0.0       0.2       0.0       0.0       0.0
 5 H  py              0.0       0.2       0.1       0.0       0.1       0.0
 6 H  s              14.7       1.3       5.1       1.2       0.4       3.1
 6 H  pz              0.1       0.1       0.2       0.0       0.0       0.0
 6 H  px              0.3       0.0       0.0       0.0       0.0       0.0
 7 H  s              14.7       1.3       5.1       1.2       0.4       3.1
 7 H  pz              0.1       0.1       0.2       0.0       0.0       0.0
 7 H  px              0.3       0.0       0.0       0.0       0.0       0.0
 8 H  s               0.0       0.1       0.0       0.0      16.5       0.0
 8 H  pz              0.1       0.0       0.0       0.0       0.0       0.3
 8 H  py              0.0       0.0       0.0       0.0       0.1       0.0
 9 H  s               0.0       8.8       0.3       0.0      10.2       0.0
 9 H  pz              0.0       0.0       0.0       0.1       0.0       0.4
 9 H  py              0.0       0.2       0.0       0.0       0.1       0.0
10 H  s               0.0       5.9       0.8       0.0       0.6       0.0
10 H  pz              0.0       0.0       0.0       0.2       0.0       0.0

                     18        19        20        21        22        23   
                  -0.22046  -0.08917   0.02207   0.08514   0.10588   0.11622
                   2.00000   0.00000   0.00000   0.00000   0.00000   0.00000
                  --------  --------  --------  --------  --------  --------
 0 C  s               0.1       0.0       0.0      29.7       3.7       9.5
 0 C  pz              0.0       0.2       1.0       0.0       0.0       0.0
 0 C  px              0.5       0.0       0.0       2.8       1.0      25.8
 0 C  py              0.0       0.0       0.0       0.4       5.2       2.7
 0 C  dz2             0.0       0.0       0.0       0.2       0.3       0.3
 0 C  dxz             0.0       1.0       0.3       0.0       0.0       0.0
 0 C  dx2y2           0.0       0.0       0.0       0.1       0.5       0.7
 0 C  dxy             0.0       0.0       0.0       0.6       0.1       0.8
 1 C  s               0.0       0.0       0.0      13.7       4.0       6.2
 1 C  pz              0.0      34.0      15.3       0.0       0.0       0.0
 1 C  px              0.4       0.0       0.0       1.2       2.8       5.6
 1 C  py              0.2       0.0       0.0       5.9      10.7       1.3
 1 C  dz2             0.0       0.0       0.0       0.0       0.0       0.6
 1 C  dxz             0.0       0.1       0.5       0.0       0.0       0.0
 1 C  dyz             0.0       0.1       0.6       0.0       0.0       0.0
 1 C  dx2y2           0.1       0.0       0.0       0.2       0.5       1.2
 1 C  dxy             0.0       0.0       0.0       0.0       0.3       0.8
 2 C  s               1.7       0.0       0.0       5.7       0.7       2.8
 2 C  pz              0.0       9.0      34.9       0.0       0.0       0.0
 2 C  px              5.8       0.0       0.0       4.3       1.3       0.2
 2 C  py              1.5       0.0       0.0       3.1       6.5       9.5
 2 C  dz2             0.0       0.0       0.0       0.0       0.2       0.2
 2 C  dxz             0.0       1.5       0.0       0.0       0.0       0.0
 2 C  dyz             0.0       0.0       0.9       0.0       0.0       0.0
 2 C  dx2y2           0.0       0.0       0.0       0.1       0.8       1.9
 2 C  dxy             0.0       0.0       0.0       0.5       0.1       0.0
 3 C  s               0.2       0.0       0.0       2.4       6.2       0.7
 3 C  pz              0.0      22.3      27.6       0.0       0.0       0.0
 3 C  px              0.7       0.0       0.0       1.5       0.3       6.4
 3 C  py              2.3       0.0       0.0       0.7      19.4       0.9
 3 C  dz2             0.0       0.0       0.0       0.1       0.2       0.2
 3 C  dxz             0.0       1.4       0.0       0.0       0.0       0.0
 3 C  dyz             0.0       0.1       1.0       0.0       0.0       0.0
 3 C  dx2y2           3.5       0.0       0.0       0.1       0.2       0.6
 3 C  dxy             1.3       0.0       0.0       0.1       0.1       0.8
 4 O  s               0.0       0.0       0.0       0.0       0.1       1.1
 4 O  pz              0.0      21.3       9.1       0.0       0.0       0.0
 4 O  px             15.2       0.0       0.0       0.1       0.3       0.4
 4 O  py             54.1       0.0       0.0       0.1       0.5       0.9
 4 O  dz2             0.0       0.0       0.0       0.4       0.0       0.0
 4 O  dxz             0.0       3.4       1.0       0.0       0.0       0.0
 4 O  dyz             0.0       0.5       3.4       0.0       0.0       0.0
 4 O  dx2y2           0.9       0.0       0.0       0.1       0.1       0.1
 4 O  dxy             0.3       0.0       0.0       0.0       2.0       0.1
 5 H  s               0.1       0.0       0.0       3.7       5.9       0.2
 5 H  px              0.0       0.0       0.0       0.6       0.0       0.8
 5 H  py              0.0       0.0       0.0       1.6       2.0       0.1
 6 H  s               0.1       1.8       0.2       4.3       0.2       0.8
 6 H  pz              0.0       0.0       0.0       1.7       0.0       0.3
 6 H  px              0.0       0.0       0.0       0.1       0.0       0.9
 6 H  py              0.0       0.0       0.0       0.6       0.1       0.1
 7 H  s               0.1       1.8       0.2       4.3       0.2       0.8
 7 H  pz              0.0       0.0       0.0       1.7       0.0       0.3
 7 H  px              0.0       0.0       0.0       0.1       0.0       0.9
 7 H  py              0.0       0.0       0.0       0.6       0.1       0.1
 8 H  s               0.1       0.0       0.0       2.8       4.4       0.3
 8 H  pz              0.0       0.7       0.8       0.0       0.0       0.0
 8 H  px              0.0       0.0       0.0       0.0       0.4       1.0
 8 H  py              0.0       0.0       0.0       1.6       2.4       0.1
 9 H  s               0.5       0.0       0.0       1.0       3.3       7.9
 9 H  pz              0.0       0.2       1.6       0.0       0.0       0.0
 9 H  px              0.1       0.0       0.0       0.4       0.2       0.0
 9 H  py              0.0       0.0       0.0       0.2       1.3       2.6
10 H  s              10.2       0.0       0.0       0.4       7.8       0.2
10 H  pz              0.0       0.5       1.4       0.0       0.0       0.0
10 H  px              0.0       0.0       0.0       0.2       0.0       0.6
10 H  py              0.0       0.0       0.0       0.0       3.6       0.0

                     24        25        26        27        28        29   
                   0.12613   0.15606   0.15979   0.16114   0.18510   0.18681
                   0.00000   0.00000   0.00000   0.00000   0.00000   0.00000
                  --------  --------  --------  --------  --------  --------
 0 C  s               0.6       0.7       2.4       0.0       1.9       0.0
 0 C  pz              0.0       0.0       0.0      22.4       0.0      52.5
 0 C  px              0.5       2.8       6.6       0.0      23.5       0.0
 0 C  py              6.2      11.5      12.1       0.0       1.8       0.0
 0 C  dz2             0.3       1.9       0.3       0.0       1.7       0.0
 0 C  dxz             0.0       0.0       0.0       3.5       0.0       0.0
 0 C  dyz             0.0       0.0       0.0       2.5       0.0       0.4
 0 C  dx2y2           0.1       2.3       0.2       0.0       1.4       0.0
 0 C  dxy             0.1       0.0       0.2       0.0       0.2       0.0
 1 C  s               7.9       1.5       2.7       0.0       1.0       0.0
 1 C  pz              0.0       0.0       0.0       7.1       0.0      15.1
 1 C  px              3.9       2.0       0.2       0.0       8.8       0.0
 1 C  py              5.7       1.6       0.5       0.0       8.6       0.0
 1 C  dz2             1.6       0.4       0.0       0.0       0.3       0.0
 1 C  dxz             0.0       0.0       0.0       0.8       0.0       0.0
 1 C  dyz             0.0       0.0       0.0       0.8       0.0       0.0
 1 C  dx2y2           0.6       0.3       1.1       0.0       0.1       0.0
 1 C  dxy             0.5       1.4       0.0       0.0       0.2       0.0
 2 C  s              13.7       4.6       3.9       0.0       5.2       0.0
 2 C  pz              0.0       0.0       0.0       4.9       0.0      20.8
 2 C  px              7.2       2.2       2.3       0.0       1.7       0.0
 2 C  py              3.6       1.1       1.0       0.0       5.8       0.0
 2 C  dz2             0.1       0.4       0.2       0.0       0.6       0.0
 2 C  dyz             0.0       0.0       0.0       0.1       0.0       0.2
 2 C  dx2y2           0.1       0.2       0.1       0.0       0.1       0.0
 2 C  dxy             1.2       0.0       0.2       0.0       0.2       0.0
 3 C  s              12.3       9.8       9.1       0.0       4.4       0.0
 3 C  pz              0.0       0.0       0.0       4.1       0.0       6.4
 3 C  px              5.5       9.4       0.7       0.0       3.7       0.0
 3 C  py              0.5       1.6      19.5       0.0       0.5       0.0
 3 C  dz2             0.3       0.2       2.7       0.0       0.4       0.0
 3 C  dxy             0.2       0.4       0.1       0.0       0.3       0.0
 4 O  s               2.5       2.0       2.5       0.0       0.1       0.0
 4 O  pz              0.0       0.0       0.0       0.4       0.0       0.3
 4 O  px              0.6       0.8       0.3       0.0       0.2       0.0
 4 O  py              0.3       0.6       0.3       0.0       2.2       0.0
 4 O  dz2             0.6       0.9       2.3       0.0       1.1       0.0
 4 O  dxz             0.0       0.0       0.0       0.6       0.0       0.0
 4 O  dx2y2           1.2       0.2       0.0       0.0       0.1       0.0
 4 O  dxy             2.3       0.1       1.7       0.0       0.0       0.0
 5 H  s               1.5      17.3       4.9       0.0       0.6       0.0
 5 H  pz              0.0       0.0       0.0       3.2       0.0       0.3
 5 H  px              0.0       0.0       0.1       0.0       0.2       0.0
 5 H  py              0.0       2.1       2.3       0.0       0.1       0.0
 6 H  s               0.5       5.4       0.2      20.0       2.2       1.3
 6 H  pz              0.2       1.8       0.0       1.2       1.5       0.6
 6 H  px              0.0       0.2       0.0       1.8       0.5       0.1
 6 H  py              0.1       0.5       0.1       1.5       0.1       0.0
 7 H  s               0.5       5.3       0.2      20.0       2.3       1.3
 7 H  pz              0.2       1.8       0.0       1.2       1.5       0.6
 7 H  px              0.0       0.2       0.0       1.8       0.5       0.1
 7 H  py              0.1       0.5       0.1       1.5       0.1       0.0
 8 H  s               8.6       0.3       1.8       0.0       5.2       0.0
 8 H  pz              0.0       0.0       0.0       0.4       0.0       0.0
 8 H  px              0.2       0.7       0.0       0.0       0.1       0.0
 8 H  py              2.5       0.1       0.7       0.0       1.0       0.0
 9 H  s               1.4       1.4       0.9       0.0       4.5       0.0
 9 H  px              0.8       0.1       0.1       0.0       0.0       0.0
 9 H  py              1.2       0.2       0.0       0.0       1.8       0.0
10 H  s               1.0       0.3      11.6       0.0       0.9       0.0
10 H  px              0.4       0.6       0.0       0.0       0.6       0.0
10 H  py              0.4       0.2       3.9       0.0       0.0       0.0

                     30        31        32        33        34        35   
                   0.19369   0.22710   0.22799   0.25839   0.28383   0.29402
                   0.00000   0.00000   0.00000   0.00000   0.00000   0.00000
                  --------  --------  --------  --------  --------  --------
 0 C  s               0.4       0.0       0.0       0.3       0.5       0.3
 0 C  pz              0.0       0.0      25.2       0.0       0.0       0.0
 0 C  px             12.7       5.2       0.0       1.5      16.2       0.5
 0 C  py             34.0      16.8       0.0       5.5      11.6       1.6
 0 C  dz2             0.0       0.7       0.0       0.1       0.5       0.0
 0 C  dx2y2           0.0       0.6       0.0       0.0       0.6       0.0
 0 C  dxy             0.6       0.1       0.0       0.6       0.1       0.6
 1 C  s               4.8       9.5       0.0       2.4       3.6       3.2
 1 C  pz              0.0       0.0       6.7       0.0       0.0       0.0
 1 C  px              3.7       1.0       0.0       6.7       3.0       3.7
 1 C  py              0.1       2.6       0.0      22.7       2.6      11.6
 1 C  dz2             0.3       0.8       0.0       0.0       1.7       0.2
 1 C  dx2y2           0.0       1.4       0.0       0.2       1.1       0.6
 1 C  dxy             0.5       0.0       0.0       0.4       0.7       0.0
 2 C  s               4.4       2.7       0.0       1.9       5.5       0.4
 2 C  pz              0.0       0.0       5.1       0.0       0.0       0.0
 2 C  px              3.0       0.9       0.0       5.7       7.2       0.4
 2 C  py              7.1       2.9       0.0       6.1      13.0       6.4
 2 C  dz2             1.0       1.6       0.0       0.0       0.0       0.9
 2 C  dx2y2           0.1       1.0       0.0       0.1       1.4       1.5
 2 C  dxy             0.7       0.4       0.0       1.0       0.4       0.2
 3 C  s               0.1       3.9       0.0       7.7       4.3       0.6
 3 C  pz              0.0       0.0      53.7       0.0       0.0       0.0
 3 C  px              6.6      19.7       0.0       1.6       2.3       7.6
 3 C  py              0.5       3.3       0.0      13.2       4.1      14.9
 3 C  dz2             0.2       0.2       0.0       0.9       0.1       0.1
 3 C  dyz             0.0       0.0       0.1       0.0       0.0       0.0
 3 C  dx2y2           0.0       0.3       0.0       0.0       0.2       0.7
 3 C  dxy             0.2       0.2       0.0       0.6       0.0       0.3
 4 O  s               0.9       2.0       0.0       0.2       0.6       0.1
 4 O  pz              0.0       0.0       1.2       0.0       0.0       0.0
 4 O  px              0.2       1.1       0.0       0.0       0.8       1.4
 4 O  py              0.6       0.7       0.0       2.0       1.3       5.7
 4 O  dz2             0.5       0.0       0.0       3.9       2.8       0.0
 4 O  dxz             0.0       0.0       1.7       0.0       0.0       0.0
 4 O  dyz             0.0       0.0       0.1       0.0       0.0       0.0
 4 O  dx2y2           0.7       0.4       0.0       1.9       0.4       0.0
 4 O  dxy             1.2       0.0       0.0       0.9       0.1       0.0
 5 H  s               1.0       2.9       0.0       0.7       2.1       1.2
 5 H  px              0.5       0.2       0.0       1.0       0.1       0.6
 5 H  py              0.5       0.0       0.0       0.0       0.8       0.5
 6 H  s               1.7       1.7       1.8       0.3       1.2       0.1
 6 H  pz              0.4       0.2       0.6       0.0       0.6       0.1
 6 H  px              0.3       0.0       0.5       0.4       0.1       0.1
 6 H  py              0.5       0.2       0.1       0.3       0.1       0.1
 7 H  s               1.7       1.7       1.8       0.3       1.2       0.1
 7 H  pz              0.4       0.2       0.6       0.0       0.6       0.1
 7 H  px              0.3       0.0       0.5       0.4       0.1       0.1
 7 H  py              0.5       0.2       0.1       0.3       0.1       0.1
 8 H  s               0.2      10.4       0.0       1.8       0.5       3.4
 8 H  px              0.1       0.1       0.0       0.5       1.1       0.4
 8 H  py              0.1       0.8       0.0       1.0       0.2       0.0
 9 H  s               4.1       0.3       0.0       0.2       1.5      15.7
 9 H  px              0.5       0.6       0.0       1.9       0.2       0.0
 9 H  py              0.9       0.1       0.0       0.0       0.8       2.1
10 H  s               1.2       0.2       0.0       2.4       1.8      10.0
10 H  px              0.2       0.1       0.0       0.4       0.1       0.1
10 H  py              0.1       0.0       0.0       0.0       0.3       1.4

                     36        37        38        39        40        41   
                   0.31343   0.31550   0.34062   0.37390   0.40420   0.43735
                   0.00000   0.00000   0.00000   0.00000   0.00000   0.00000
                  --------  --------  --------  --------  --------  --------
 0 C  s               0.0       3.9       0.0       5.6       3.7      10.9
 0 C  pz              6.5       0.0       8.3       0.0       0.0       0.0
 0 C  px              0.0       9.6       0.0       0.3       0.0       2.8
 0 C  py              0.0       0.3       0.0       1.8       2.6       1.5
 0 C  dz2             0.0       0.1       0.0       0.3       0.1       0.2
 0 C  dxz             0.0       0.0       0.3       0.0       0.0       0.0
 0 C  dyz             0.0       0.0       0.7       0.0       0.0       0.0
 0 C  dx2y2           0.0       0.0       0.0       0.0       0.0       0.6
 0 C  dxy             0.0       0.0       0.0       0.1       0.6       0.6
 1 C  s               0.0       6.3       0.0       5.6       5.4       0.9
 1 C  pz             57.7       0.0       9.2       0.0       0.0       0.0
 1 C  px              0.0       0.1       0.0      11.7       8.1      21.7
 1 C  py              0.0       5.9       0.0       0.3       3.3       1.1
 1 C  dz2             0.0       2.2       0.0       0.7       0.2       0.0
 1 C  dxz             0.1       0.0       0.2       0.0       0.0       0.0
 1 C  dyz             0.1       0.0       0.1       0.0       0.0       0.0
 1 C  dx2y2           0.0       0.3       0.0       0.0       0.6       0.0
 1 C  dxy             0.0       0.1       0.0       0.9       0.5       1.3
 2 C  s               0.0      16.5       0.0       0.8       0.6       6.6
 2 C  pz              1.3       0.0      58.5       0.0       0.0       0.0
 2 C  px              0.0       1.4       0.0      13.4       3.4       3.3
 2 C  py              0.0       7.4       0.0       4.1       1.1       3.6
 2 C  dz2             0.0       3.0       0.0       0.0       0.0       1.4
 2 C  dxz             0.4       0.0       0.0       0.0       0.0       0.0
 2 C  dyz             0.0       0.0       0.1       0.0       0.0       0.0
 2 C  dx2y2           0.0       1.2       0.0       0.0       0.6       0.2
 2 C  dxy             0.0       0.2       0.0       0.1       0.4       1.4
 3 C  s               0.0       2.5       0.0       3.6       3.4       1.3
 3 C  pz             23.0       0.0       3.1       0.0       0.0       0.0
 3 C  px              0.0       1.3       0.0       8.3       2.2       0.8
 3 C  py              0.0       4.0       0.0       3.2       7.6       1.9
 3 C  dz2             0.0       0.6       0.0       0.8       0.2       1.4
 3 C  dxz             0.0       0.0       0.2       0.0       0.0       0.0
 3 C  dyz             0.1       0.0       0.2       0.0       0.0       0.0
 3 C  dx2y2           0.0       1.1       0.0       0.0       0.0       2.5
 3 C  dxy             0.0       0.0       0.0       0.0       1.2       0.0
 4 O  s               0.0       1.3       0.0       2.5       0.1       0.3
 4 O  pz              6.4       0.0       0.4       0.0       0.0       0.0
 4 O  px              0.0       2.1       0.0      20.7       7.5       9.4
 4 O  py              0.0       5.9       0.0       2.1       3.9       2.7
 4 O  dz2             0.0       0.2       0.0       3.3       8.7       0.6
 4 O  dxz             0.6       0.0       6.0       0.0       0.0       0.0
 4 O  dyz             0.5       0.0       5.2       0.0       0.0       0.0
 4 O  dx2y2           0.0       2.6       0.0       0.0       2.7       4.4
 4 O  dxy             0.0       0.0       0.0       0.2       1.3       0.7
 5 H  s               0.0       5.7       0.0       0.1       5.0       1.2
 5 H  pz              0.1       0.0       0.7       0.0       0.0       0.0
 5 H  py              0.0       1.9       0.0       0.0       3.2       0.3
 6 H  s               0.7       1.0       2.5       1.9       0.8       4.3
 6 H  pz              0.2       0.1       0.0       1.5       0.0       0.8
 6 H  px              0.5       0.0       0.5       0.0       0.2       1.2
 6 H  py              0.0       0.1       0.1       0.0       0.4       0.0
 7 H  s               0.7       1.0       2.5       1.8       0.8       4.3
 7 H  pz              0.2       0.1       0.0       1.5       0.0       0.8
 7 H  px              0.5       0.0       0.5       0.0       0.2       1.2
 7 H  py              0.0       0.1       0.1       0.0       0.4       0.0
 8 H  s               0.0       5.6       0.0       0.3       1.8       0.0
 8 H  pz              0.1       0.0       0.0       0.0       0.0       0.0
 8 H  px              0.0       0.1       0.0       1.7       0.9       0.5
 8 H  py              0.0       1.2       0.0       0.0       1.1       0.0
 9 H  s               0.0       1.5       0.0       0.1       1.0       0.6
 9 H  pz              0.0       0.0       0.2       0.0       0.0       0.0
 9 H  px              0.0       0.1       0.0       0.0       1.4       0.4
 9 H  py              0.0       0.0       0.0       0.0       0.1       0.2
10 H  s               0.0       0.6       0.0       0.2       8.4       0.0
10 H  pz              0.1       0.0       0.3       0.0       0.0       0.0
10 H  px              0.0       0.8       0.0       0.0       0.8       0.0
10 H  py              0.0       0.1       0.0       0.1       3.4       0.0

                     42        43        44        45        46        47   
                   0.45722   0.47837   0.49294   0.50705   0.53490   0.55019
                   0.00000   0.00000   0.00000   0.00000   0.00000   0.00000
                  --------  --------  --------  --------  --------  --------
 0 C  s               3.8      24.9       0.5       0.2       0.0       6.2
 0 C  pz              0.0       0.0       0.0       0.0       0.3       0.0
 0 C  px              0.1       7.6       0.4       2.3       0.0       6.0
 0 C  py              0.5       0.7       1.2       0.1       0.0       0.7
 0 C  dz2             0.0       0.2       0.0       0.2       0.0       0.2
 0 C  dxz             0.0       0.0       0.0       0.0       0.2       0.0
 0 C  dx2y2           0.1       0.0       0.1       1.7       0.0       0.2
 0 C  dxy             0.0       0.5       0.5       0.0       0.0       0.3
 1 C  s               1.0       2.7      18.9       7.3       0.0       2.7
 1 C  pz              0.0       0.0       0.0       0.0       1.2       0.0
 1 C  px              1.2       3.7       4.8       1.4       0.0       4.0
 1 C  py              5.9       0.0       9.2       5.1       0.0      11.3
 1 C  dz2             0.0       0.0       0.0       1.6       0.0       0.0
 1 C  dx2y2           0.3       0.1       0.1       0.2       0.0       0.2
 1 C  dxy             0.1       0.5       0.3       3.1       0.0       0.2
 2 C  s               9.0       2.7      12.6       0.8       0.0       0.4
 2 C  pz              0.0       0.0       0.0       0.0       6.2       0.0
 2 C  px              7.1       5.1       1.5      25.7       0.0       6.5
 2 C  py              9.4       2.5       3.3       2.4       0.0      10.3
 2 C  dz2             0.0       0.1       0.1       0.3       0.0       0.1
 2 C  dxz             0.0       0.0       0.0       0.0       0.6       0.0
 2 C  dx2y2           0.2       0.0       0.0       0.0       0.0       0.3
 2 C  dxy             0.8       0.3       0.7       3.8       0.0       0.3
 3 C  s               4.9       0.1       1.8       4.8       0.0       1.1
 3 C  pz              0.0       0.0       0.0       0.0       0.5       0.0
 3 C  px              8.3       4.6       2.0       1.2       0.0       9.0
 3 C  py              4.6       5.0       0.4       3.6       0.0       1.7
 3 C  dz2             0.2       0.1       0.1       0.8       0.0       0.2
 3 C  dxz             0.0       0.0       0.0       0.0       0.9       0.0
 3 C  dyz             0.0       0.0       0.0       0.0       1.3       0.0
 3 C  dx2y2           0.0       0.8       0.7       0.0       0.0       0.5
 3 C  dxy             4.4       1.5       0.2       1.0       0.0       0.4
 4 O  s               1.1       0.9       0.1       0.2       0.0       0.3
 4 O  pz              0.0       0.0       0.0       0.0      20.7       0.0
 4 O  px              2.3       2.8       9.0       4.2       0.0       1.6
 4 O  py              3.7       0.6       5.7       8.0       0.0       5.2
 4 O  dz2             0.3       2.1       5.3      10.6       0.0       7.9
 4 O  dxz             0.0       0.0       0.0       0.0       2.9       0.0
 4 O  dyz             0.0       0.0       0.0       0.0      63.8       0.0
 4 O  dx2y2           0.2       4.7      11.5       0.3       0.0       0.0
 4 O  dxy            14.2      10.9       0.2       0.6       0.0       8.9
 5 H  s               1.9       0.6       0.4       2.0       0.0       0.1
 5 H  px              0.2       0.2       0.5       0.0       0.0       0.2
 5 H  py              1.1       0.3       0.1       0.0       0.0       0.0
 6 H  s               0.4       1.5       0.8       0.2       0.3       0.3
 6 H  pz              0.2       0.5       0.3       0.1       0.0       0.0
 6 H  px              0.0       0.1       0.1       0.2       0.1       0.0
 7 H  s               0.4       1.5       0.7       0.2       0.3       0.3
 7 H  pz              0.2       0.5       0.3       0.1       0.0       0.0
 7 H  px              0.0       0.1       0.1       0.2       0.1       0.0
 8 H  s               2.7       0.1       1.5       1.6       0.0       2.7
 8 H  px              0.1       0.2       0.3       0.3       0.0       0.2
 8 H  py              2.2       0.3       0.5       0.1       0.0       1.7
 9 H  s               2.1       1.5       1.1       1.0       0.0       3.6
 9 H  pz              0.0       0.0       0.0       0.0       0.1       0.0
 9 H  px              0.1       0.3       0.1       0.2       0.0       0.6
 9 H  py              1.7       1.6       0.2       0.5       0.0       2.2
10 H  s               1.9       2.1       1.0       1.5       0.0       1.4
10 H  pz              0.0       0.0       0.0       0.0       0.2       0.0
10 H  px              0.4       1.2       0.2       0.2       0.0       0.0
10 H  py              0.3       1.4       0.4       0.1       0.0       0.1

[...]
 5 H  s               0.0       0.2       0.0       0.6       1.6       0.1
 5 H  px              0.0       0.1       0.0       0.1       0.8       0.5
 5 H  py              0.2       0.6       0.0       3.2       8.0       0.1
 6 H  s               0.0       0.1       0.0       0.2       1.2       0.2
 6 H  pz              0.0       0.4       0.0       1.0       4.7       0.3
 6 H  px              0.0       0.3       0.0       0.2       0.5       0.9
 6 H  py              0.0       0.0       0.0       0.3       1.4       0.2
 7 H  s               0.0       0.1       0.0       0.2       1.2       0.3
 7 H  pz              0.0       0.4       0.0       1.0       4.7       0.3
 7 H  px              0.0       0.3       0.0       0.2       0.5       0.9
 7 H  py              0.0       0.0       0.0       0.3       1.4       0.2
 8 H  s               0.0       0.4       0.0       0.3       0.0       7.3
 8 H  px              0.0       0.0       0.0       0.0       0.3       0.0
 8 H  py              0.0       2.9       0.0       1.5       0.1      25.2
 9 H  s               0.0       1.1       0.0       1.4       0.8       3.0
 9 H  pz              0.0       0.0       0.2       0.0       0.0       0.0
 9 H  px              0.4       0.1       0.0       0.0       0.0       0.1
 9 H  py              0.2       8.3       0.0       5.2       3.1       9.6
10 H  s               4.9       0.0       0.0       0.6       0.4       0.1
10 H  pz              0.0       0.0       0.5       0.0       0.0       0.0
10 H  px              2.3       0.2       0.0       0.6       0.3       0.4
10 H  py             25.2       0.0       0.0       3.4       1.9       0.3

                    120       121       122       123       124       125   
                   3.50374   3.53648   3.65603   3.78530   4.36736  21.63043
                   0.00000   0.00000   0.00000   0.00000   0.00000   0.00000
                  --------  --------  --------  --------  --------  --------
 0 C  s               0.0       0.1       0.2       0.1       0.0       7.2
 0 C  pz             13.3       0.0       0.0       0.0       0.0       0.0
 0 C  px              0.0       4.1       0.6       0.1       0.0       0.0
 0 C  py              0.0       7.6       3.0       0.6       0.0       0.0
 0 C  dz2             0.0      12.1       0.2       0.1       0.0       0.0
 0 C  dxz            21.2       0.0       0.0       0.0       0.0       0.0
 0 C  dyz             8.2       0.0       0.0       0.0       0.0       0.0
 0 C  dx2y2           0.0       9.2       5.5       0.3       0.0       0.0
 0 C  dxy             0.0       3.4       1.6       0.9       0.0       0.0
 1 C  s               0.0       0.4       0.7       0.2       0.0      50.0
 1 C  px              0.0       0.0       1.6       0.6       0.0       0.0
 1 C  py              0.0       1.0       0.4       0.9       0.0       0.0
 1 C  dz2             0.0       0.7       0.0       0.0       0.0       0.0
 1 C  dxz             0.2       0.0       0.0       0.0       0.0       0.0
 1 C  dyz             0.2       0.0       0.0       0.0       0.0       0.0
 1 C  dx2y2           0.0       4.5       7.0       5.6       0.0       0.0
 1 C  dxy             0.0       0.0       5.4       0.0       0.1       0.0
 2 C  s               0.0       0.9       0.5       0.1       0.1      39.5
 2 C  px              0.0       0.2       0.3       1.1       0.2       0.0
 2 C  py              0.0       0.0       2.1       1.3       0.1       0.1
 2 C  dz2             0.0       0.2       0.1       0.0       0.1       0.0
 2 C  dx2y2           0.0       1.5      17.5       2.9       0.3       0.0
 2 C  dxy             0.0       0.5       0.3       7.4       0.0       0.0
 3 C  s               0.0       0.1       1.0       0.0       7.5       3.0
 3 C  px              0.0       0.0       0.3       0.3       5.8       0.0
 3 C  py              0.0       0.0       0.1       2.8       1.8       0.0
 3 C  dz2             0.0       0.0       0.2       0.1       1.8       0.0
 3 C  dx2y2           0.0       0.5       7.6      21.6       1.5       0.0
 3 C  dxy             0.0       0.3       1.0       5.4       3.2       0.0
 4 O  s               0.0       1.0       2.0       0.4      18.4       0.0
 4 O  px              0.0       0.2       2.5       1.0      17.2       0.0
 4 O  py              0.0       0.0       0.4       3.0       4.5       0.0
 4 O  dz2             0.0       0.0       0.6       0.0       9.0       0.0
 4 O  dx2y2           0.0       0.0       2.9      12.8       8.6       0.0
 4 O  dxy             0.0       0.3       2.3       7.7      19.2       0.0
 5 H  s               0.0       7.7       2.3       0.3       0.0       0.0
 5 H  pz              0.3       0.0       0.0       0.0       0.0       0.0
 5 H  py              0.0      18.7       5.4       0.6       0.0       0.0
 6 H  s               8.1       2.8       0.0       0.0       0.0       0.0
 6 H  pz             11.2       6.8       0.0       0.0       0.0       0.0
 6 H  px              6.5       0.8       0.1       0.1       0.0       0.0
 6 H  py              2.4       0.1       0.0       0.0       0.0       0.0
 7 H  s               8.1       2.8       0.0       0.0       0.0       0.0
 7 H  pz             11.1       6.8       0.0       0.0       0.0       0.0
 7 H  px              6.5       0.8       0.1       0.1       0.0       0.0
 7 H  py              2.4       0.1       0.0       0.0       0.0       0.0
 8 H  s               0.0       0.6       1.1       1.3       0.0       0.0
 8 H  pz              0.1       0.0       0.0       0.0       0.0       0.0
 8 H  px              0.0       0.0       0.5       0.0       0.0       0.0
 8 H  py              0.0       1.5       2.7       2.9       0.0       0.0
 9 H  s               0.0       0.3       4.0       1.0       0.1       0.0
 9 H  px              0.0       0.0       0.0       0.6       0.0       0.0
 9 H  py              0.0       1.0      10.8       1.9       0.2       0.0
10 H  s               0.0       0.1       1.2       4.1       0.0       0.0
10 H  px              0.0       0.1       0.2       0.4       0.1       0.0
10 H  py              0.0       0.1       3.6       9.4       0.0       0.0

                    126       127       128       129   
                  21.89865  22.04123  22.10884  43.58776
                   0.00000   0.00000   0.00000   0.00000
                  --------  --------  --------  --------
 0 C  s              89.8       2.7       0.0       0.0
 1 C  s               2.5       9.7      37.5       0.0
 2 C  s               2.8       0.1      57.2       0.0
 3 C  s               4.6      86.9       4.9       0.0
 4 O  s               0.0       0.2       0.0      99.9
 4 O  px              0.0       0.1       0.0       0.0


                      *****************************
                      * MAYER POPULATION ANALYSIS *
                      *****************************

  NA   - Mulliken gross atomic population
  ZA   - Total nuclear charge
  QA   - Mulliken gross atomic charge
  VA   - Mayer's total valence
  BVA  - Mayer's bonded valence
  FA   - Mayer's free valence

  ATOM       NA         ZA         QA         VA         BVA        FA
  0 C      6.4824     6.0000    -0.4824     3.8549     3.8549    -0.0000
  1 C      6.0571     6.0000    -0.0571     3.7107     3.7107    -0.0000
  2 C      6.0997     6.0000    -0.0997     3.5921     3.5921    -0.0000
  3 C      5.9348     6.0000     0.0652     4.0020     4.0020     0.0000
  4 O      8.3366     8.0000    -0.3366     1.9711     1.9711     0.0000
  5 H      0.8404     1.0000     0.1596     0.9639     0.9639     0.0000
  6 H      0.8384     1.0000     0.1616     0.9574     0.9574    -0.0000
  7 H      0.8384     1.0000     0.1616     0.9574     0.9574    -0.0000
  8 H      0.8397     1.0000     0.1603     0.9612     0.9612     0.0000
  9 H      0.8269     1.0000     0.1731     0.9631     0.9631    -0.0000
 10 H      0.9055     1.0000     0.0945     0.9686     0.9686     0.0000

  Mayer bond orders larger than 0.100000
B(  0-C ,  1-C ) :   0.8999 B(  0-C ,  5-H ) :   0.9944 B(  0-C ,  6-H ) :   0.9562 
B(  0-C ,  7-H ) :   0.9562 B(  1-C ,  2-C ) :   1.7510 B(  1-C ,  4-O ) :   0.1191 
B(  1-C ,  8-H ) :   0.9303 B(  2-C ,  3-C ) :   0.9936 B(  2-C ,  9-H ) :   0.9371 
B(  2-C , 10-H ) :  -0.1159 B(  3-C ,  4-O ) :   1.8741 B(  3-C , 10-H ) :   1.0174 


-------
TIMINGS
-------

Total SCF time: 0 days 0 hours 0 min 10 sec 

Total time                  ....      10.171 sec
Sum of individual times     ....      10.113 sec  ( 99.4%)

SCF preparation             ....       1.052 sec  ( 10.3%)
Fock matrix formation       ....       6.400 sec  ( 62.9%)
  Startup                   ....       0.008 sec  (  0.1% of F)
  Split-RI-J                ....       0.987 sec  ( 15.4% of F)
  XC integration            ....       5.288 sec  ( 82.6% of F)
    XC Preparation          ....       0.000 sec  (  0.0% of XC)
    Basis function eval.    ....       1.021 sec  ( 19.3% of XC)
    Density eval.           ....       1.444 sec  ( 27.3% of XC)
    XC-Functional eval.     ....       0.931 sec  ( 17.6% of XC)
    XC-Potential eval.      ....       1.527 sec  ( 28.9% of XC)
Diagonalization             ....       0.000 sec  (  0.0%)
Density matrix formation    ....       0.039 sec  (  0.4%)
Total Energy calculation    ....       0.003 sec  (  0.0%)
Population analysis         ....       2.447 sec  ( 24.1%)
Orbital Transformation      ....       0.012 sec  (  0.1%)
Orbital Orthonormalization  ....       0.000 sec  (  0.0%)
DIIS solution               ....       0.134 sec  (  1.3%)
  MO trafo                  ....       0.000 sec  (  0.0 % of DIIS)
  Orb grad                  ....       0.000 sec  (  0.0 % of DIIS)
  Energy W gradient         ....       0.000 sec  (  0.0 % of DIIS)
  DIIS error                ....       0.003 sec  (  2.4 % of DIIS)
  DIIS work                 ....       0.121 sec  ( 90.3 % of DIIS)
  Form Q                    ....       0.000 sec  (  0.0 % of DIIS)
  Form QpQm                 ....       0.000 sec  (  0.0 % of DIIS)
  Exp/Cayley                ....       0.000 sec  (  0.0 % of DIIS)
  Orb update                ....       0.000 sec  (  0.0 % of DIIS)
  Wake-sleep                ....       0.003 sec  (  2.4 % of DIIS)
SOSCF solution              ....       0.027 sec  (  0.3%)
  MO trafo                  ....       0.011 sec  ( 41.6 % of SOSCF)
  Orb grad                  ....       0.000 sec  (  0.5 % of SOSCF)
  Rot update                ....       0.007 sec  ( 27.2 % of SOSCF)
  Step                      ....       0.007 sec  ( 27.1 % of SOSCF)
Finished LeanSCF after  12.6 sec

Maximum memory used throughout the entire LEANSCF-calculation: 13.2 MB


-------------------------------------------------------------------------------
                          DFT DISPERSION CORRECTION                            
                                                                               
                                DFTD4 V3.4.0                                   
-------------------------------------------------------------------------------
The R2SCAN3C composite method is recognized
Using three-body term ABC
Active option DFTDOPT                   ...         5   

-------------------------   ----------------
Dispersion correction           -0.002173141
-------------------------   ----------------

------------------   -----------------
gCP correction             0.004259415
------------------   -----------------

-------------------------   --------------------
FINAL SINGLE POINT ENERGY      -231.174244032639
-------------------------   --------------------


------------------------------------------------------------------------------
                              ORCA PROPERTY CALCULATIONS
------------------------------------------------------------------------------

GBWName                                 ... sp.gbw
Number of atoms                         ...     11
Number of basis functions               ...    130
Max core memory                         ...   1024 MB

Electric properties:
Dipole moment                           ... YES
Quadrupole moment                       ...  NO
Static polarizability (Dipole/Dipole)   ...  NO
Static polarizability (Dipole/Quad.)    ...  NO
Static polarizability (Quad./Quad.)     ...  NO
Static polarizability (Velocity)        ...  NO

Atomic electric properties:
Dipole moment                           ...  NO
Quadrupole moment                       ...  NO
Static polarizability                   ...  NO

Choice of electric origin               ... Center of mass
Position of electric origin             ...    -0.000048    -0.000004    -0.000000

General magnetic properties:
Magnetizability                         ...  NO

EPR properties:
g-Tensor (aka g-matrix)                 ...  NO
Zero-Field splitting spin-orbit         ...  NO
Zero-field splitting spin-spin          ...  NO
Hyperfine couplings                     ...  NO (   0 nuclei)
Quadrupole couplings                    ...  NO (   0 nuclei)
Contact density                         ...  NO (   0 nuclei)

NMR properties:
Chemical shifts                         ...  NO (   0 nuclei)
Spin-rotation constants                 ...  NO (   0 nuclei)
Spin-spin couplings                     ...  NO (   0 nuclei,    0 pairs)

Choice of magnetic origin               ... GIAO
Position of magnetic origin             ...     0.000000     0.000000     0.000000

Properties with geometric perturbations:
SCF Hessian                             ...  NO
IR spectrum                             ...  NO
VCD spectrum                            ...  NO
X-ray spectroscopy properties:
SCF XES/XAS/RIXS spectra                ...  NO


-------------
DIPOLE MOMENT
-------------

Method             : SCF
Type of density    : Electron Density
Multiplicity       :   1
Irrep              :   0
Energy             :  -231.1763303062119519 Eh
Relativity type    : 
Basis              : AO
                                X                 Y                 Z
Electronic contribution:      6.338953422       0.145125771      -0.000270065
Nuclear contribution   :     -7.955493669      -0.516633230       0.000290301
                        -----------------------------------------
Total Dipole Moment    :     -1.616540247      -0.371507459       0.000020236
                        -----------------------------------------
Magnitude (a.u.)       :      1.658680247
Magnitude (Debye)      :      4.216030135



--------------------
Rotational spectrum 
--------------------
 
Rotational constants in cm-1:             1.108384             0.073359             0.069687 
Rotational constants in MHz :         33228.507698          2199.234252          2089.162733 

Dipole components along the rotational axes: 
x,y,z [a.u.] :    -1.616539     0.371511     0.000020 
x,y,z [Debye]:    -4.108917     0.944306     0.000051 

 

Dipole moment calculation done in   0.8 sec 

Maximum memory used throughout the entire PROP-calculation: 7.6 MB

--------------------------------
SUGGESTED CITATIONS FOR THIS RUN
--------------------------------

Below you find a list of papers that are relevant to this ORCA run
We neither can nor want to force you to cite these papers, but we appreciate if you do
You receive ORCA, which is the product of decades of hard work by many enthusiastic individuals, for free
The only thing we kindly ask in return is that you cite our papers,
We deeply appreciate it, if you show your appreciation for ORCA by not just citing the generic ORCA reference.

Please note that relegating all ORCA citations to the supporting information does *not* help us.
SI sections are not indexed - citations you put there will not count into any citation statistics
But we need these citations in order to attract the funding resources that allow us to do what we are doing

Therefore, if you are a happy ORCA user, please consider citing a few of the papers listed below in the main body of your paper

In addition to the list printed below, the program has created the file sp.bibtex that contains the list in bibtex format
You can import this file easily into all common literature databanks and citation aid programs


List of essential papers. We consider these as the minimum necessary citations

  1. Neese,F.
     Software update: the ORCA program system, version 5.0
     WIRES Comput. Molec. Sci., 2022 12(1)e1606
     doi.org/10.1002/wcms.1606
  2. Grimme,S.; Hansen,A.; Ehlert,S.; Mewes,J.
     r2SCAN-3c: A 'Swiss army knife' composite electronic-structure method
     J. Chem. Phys., 2021 154 064103
     doi.org/10.1063/5.0040021

List of papers to cite with high priority. The work reported in these papers was absolutely
necessary for this run to complete.
Our perspective: the developers of density functionals and basis sets usually get cited in chemistry papers
Good! But without the algorithms to do something with them, the functionals or basis sets would not do anything.
Hence, in our opinion, the algorithm design and method developments papers are equally worthy of getting cited

  1. Neese,F.
     An improvement of the resolution of the identity approximation for the formation of the Coulomb matrix
     J. Comp. Chem., 2003 24(14)1740-1747
     doi.org/10.1002/jcc.10318
  2. Neese,F.
     The SHARK Integral Generation and Digestion System
     J. Comp. Chem., 2022  1-16
     doi.org/10.1002/jcc.26942
  3. Lehtola,S.; Steigemann,C.; Oliveira,M.; Marques,M.
     Recent developments in Libxc - A comprehensive library of functionals for density functional theory
     Software X, 2018 7 
     doi.org/10.1016/j.softx.2017.11.002
  4. Caldeweyher,E.; Bannwarth,C.; Grimme,S.
     Extension of the D3 dispersion coefficient model
     J. Chem. Phys., 2017 147 034112
     doi.org/10.1063/1.4993215
  5. Caldeweyher,E.; Ehlert,S.; Hansen,A.; Neugebauer,H.; Spicher,S.; Bannwarth,C.; Grimme,S.
     A generally applicable atomic-charge dependent London dispersion correction
     J. Chem. Phys., 2019 150 154122
     doi.org/10.1063/1.5090222
  6. Caldeweyher,E.; Mewes,J.; Ehlert,S.; Grimme,S.
     Extension and evaluation of the D4 London-dispersion model for periodic systems
     Phys. Chem. Chem. Phys., 2020 22(16)8499-8512
     doi.org/10.1039/D0CP00502A
  7. Wittmann,L.; Gordiy,I.; Friede,M.; Helmich-Paris,B.; Grimme,S.; Hansen,A.; Bursch,M.
     Extension of the D3 and D4 London Dispersion Corrections to the full Actinides Series
     Phys. Chem. Chem. Phys., 2024 26(32)21379-21394
     doi.org/https://doi.org/10.1039/D4CP01514B 

List of suggested additional citations. These are papers that are important in the 'surrounding' of 
of this run, or papers that preceded the highly important papers. If you like your results we are grateful for a citation.

  1. Neese,F.
     The ORCA program system
     WIRES Comput. Molec. Sci., 2012 2(1)73-78
     doi.org/10.1002/wcms.81
  2. Neese,F.
     Software update: the ORCA program system, version 4.0
     WIRES Comput. Molec. Sci., 2018 8(1)1-6
     doi.org/10.1002/wcms.1327
  3. Neese,F.; Wennmohs,F.; Becker,U.; Riplinger,C.
     The ORCA quantum chemistry program package
     J. Chem. Phys., 2020 152 Art. No. L224108
     doi.org/10.1063/5.0004608

List of optional additional citations

  1. Neese,F.
     Approximate second-order SCF convergence for spin unrestricted wavefunctions
     Chem. Phys. Lett., 2000 325(1-3)93-98
     doi.org/10.1016/s0009-2614(00)00662-x

Timings for individual modules:

Sum of individual times          ...       14.369 sec (=   0.239 min)
Startup calculation              ...        0.520 sec (=   0.009 min)   3.6 %
SCF iterations                   ...       12.724 sec (=   0.212 min)  88.6 %
Property calculations            ...        1.125 sec (=   0.019 min)   7.8 %
                             ****ORCA TERMINATED NORMALLY****
TOTAL RUN TIME: 0 days 0 hours 0 minutes 17 seconds 262 msec
