
                                 *****************
                                 * O   R   C   A *
                                 *****************

                                            #,                                       
                                            ###                                      
                                            ####                                     
                                            #####                                    
                                            ######                                   
                                           ########,                                 
                                     ,,################,,,,,                         
                               ,,#################################,,                 
                          ,,##########################################,,             
                       ,#########################################, ''#####,          
                    ,#############################################,,   '####,        
                  ,##################################################,,,,####,       
                ,###########''''           ''''###############################       
              ,#####''   ,,,,##########,,,,          '''####'''          '####       
            ,##' ,,,,###########################,,,                        '##       
           ' ,,###''''                  '''############,,,                           
         ,,##''                                '''############,,,,        ,,,,,,###''
      ,#''                                            '''#######################'''  
     '                                                          ''''####''''         
             ,#######,   #######,   ,#######,      ##                                
            ,#'     '#,  ##    ##  ,#'     '#,    #''#        ,####,   ,####,        
            ##       ##  ##   ,#'  ##            #'  '#       #'       #'  '#        
            ##       ##  #######   ##           ,######,      #####,   #    #        
            '#,     ,#'  ##    ##  '#,     ,#' ,#      #,     #,   #   #,  ,#        
             '#######'   ##     ##  '#######'  #'      '#     '####' # '####'        



                #########################################################
                #                        -***-                          #
                #          Department of theory and spectroscopy        #
                #                                                       #
                #                      Frank Neese                      #
                #                                                       #
                #     Directorship, Architecture, Infrastructure        #
                #                    SHARK, DRIVERS                     #
                #        Core code/Algorithms in most modules           #
                #                                                       #
                #        Max Planck Institute fuer Kohlenforschung      #
                #                Kaiser Wilhelm Platz 1                 #
                #                 D-45470 Muelheim/Ruhr                 #
                #                      Germany                          #
                #                                                       #
                #                  All rights reserved                  #
                #                        -***-                          #
                #########################################################


                         Program Version 6.0.1  -  RELEASE   -


 With contributions from (in alphabetic order):
[Max-Planck-Institut fuer Kohlenforschung]                               
  Daniel Aravena         : Magnetic Suceptibility                        
  Michael Atanasov       : Ab Initio Ligand Field Theory (pilot matlab implementation)
  Alexander A. Auer      : GIAO ZORA, VPT2 properties, NMR spectrum      
  Ute Becker             : All parallelization in ORCA, NUMFREQ, NUMCALC 
  Giovanni Bistoni       : ED, misc. LED, open-shell LED, HFLD           
  Martin Brehm           : Molecular dynamics                            
  Dmytro Bykov           : pre 5.0 version of the SCF Hessian            
  Marcos Casanova-Páez   : Triplet and SCS-CIS(D). UHF-(DLPNO)-IP/EA/STEOM-CCSD. UHF-CVS-IP/STEOM-CCSD   
  Vijay G. Chilkuri      : MRCI spin determinant printing, contributions to CSF-ICE 
  Pauline Colinet        : FMM embedding                                 
  Dipayan Datta          : RHF DLPNO-CCSD density                        
  Achintya Kumar Dutta   : EOM-CC, STEOM-CC                              
  Nicolas Foglia         : Exact transition moments, OPA infrastructure, MCD improvements    
  Dmitry Ganyushin       : Spin-Orbit,Spin-Spin,Magnetic field MRCI      
  Miquel Garcia-Rates    : C-PCM and meta-GGA Hessian, CCSD/C-PCM, Gaussian charge scheme 
  Tiago L. C. Gouveia    : GS-ROHF, GS-ROCIS                             
  Yang Guo               : DLPNO-NEVPT2, F12-NEVPT2, CIM, IAO-localization        
  Andreas Hansen         : Spin unrestricted coupled pair/coupled cluster methods 
  Ingolf Harden          : AUTO-CI MPn and infrastructure                
  Benjamin Helmich-Paris : MC-RPA, TRAH-(SCF,CASSCF), AVAS, COSX integrals, SCF dyn. polar. 
  Lee Huntington         : MR-EOM, pCC                                   
  Robert Izsak           : Overlap fitted RIJCOSX, COSX-SCS-MP3, EOM     
  Riya Kayal             : Wick's Theorem for AUTO-CI, AUTO-CI UHF-CCSDT 
  Emily Kempfer          : AUTO-CI, RHF CISDT and CCSDT                  
  Christian Kollmar      : KDIIS, OOCD, Brueckner-CCSD(T), CCSD density, CASPT2, CASPT2-K, improved NEVPT2 
  Axel Koslowski         : Symmetry handling                             
  Simone Kossmann        : meta-GGA functionals, TD-DFT gradient, OOMP2, (MP2 Hessian; deprecated post 5.0) 
  Lucas Lang             : DCDCAS                                        
  Marvin Lechner         : AUTO-CI (C++ implementation), FIC-MRCC        
  Spencer Leger          : CASSCF response                               
  Dagmar Lenk            : GEPOL surface, SMD, ORCA-2-JSON               
  Dimitrios Liakos       : Extrapolation schemes; Compound Job, initial MDCI parallelization 
  Dimitrios Manganas     : Further ROCIS development; embedding schemes. LFT, Crystal Embedding 
  Dimitrios Pantazis     : SARC Basis sets                               
  Anastasios Papadopoulos: AUTO-CI, single reference methods and gradients 
  Taras Petrenko         : pre 6.0 DFT Hessian and TD-DFT gradient, (ASA, deprecated), ECA, 1-Electron XAS/XES, NRVS 
  Peter Pinski           : DLPNO-MP2, DLPNO-MP2 Gradient                 
  Christoph Reimann      : Effective Core Potentials                     
  Marius Retegan         : Local ZFS, SOC                                
  Christoph Riplinger    : Optimizer, TS searches, QM/MM, DLPNO-CCSD(T), (RO)-DLPNO pert. Triples 
  Michael Roemelt        : Original ROCIS implementation                 
  Masaaki Saitow         : Open-shell DLPNO-CCSD energy and density      
  Barbara Sandhoefer     : DKH picture change effects                    
  Kantharuban Sivalingam : CASSCF convergence/infrastructure, NEVPT2 and variants, FIC-MRCI 
  Bernardo de Souza      : ESD, SOC TD-DFT                               
  Georgi L. Stoychev     : AutoAux, RI-MP2 NMR, DLPNO-MP2 response, X2C  
  Van Anh Tran           : RI-MP2 g-tensors                              
  Willem Van den Heuvel  : Paramagnetic NMR                              
  Zikuan Wang            : NOTCH, Electric field optimization            
  Frank Wennmohs         : Technical directorship and infrastructure     
  Hang Xu                : AUTO-CI-Response properties                   
                                                                         
[FACCTs GmbH]                                                            
  Markus Bursch, Miquel Garcia-Rates, Christoph Riplinger, Bernardo de Souza, Georgi L. Stoychev 
                                                                 
  APM, Basis sets (HGBS, AHGBS, def-TZVP (Ac-Lr), def2-XVPD (La-Lu)), CI-OPT, improved COSX, DLPNO-Multilevel,           
  DOCKER, DRACO, updates on ESD, GOAT, IRC, LR-CPCM, MBIS, meta-GGA TD-DFT gradient, ML-optimized integration grids, 
  MM, NACMEs, nearIR, NEB, NEB-TS, NL-DFT gradient (VV10), 2- and 3-layer-ONIOM, interface openCOSMO-RS, QMMM,   
  Crystal-QMMM, SF, symmetry and pop. for TD-DFT, r2SCAN hybrids, SOLVATOR                                   
                                                                         
[Other institutions]                                                     
  V. Asgeirsson          : NEB                                           
  Christoph Bannwarth    : sTDA-DFT, sTD-DFT, PBEh-3c, B97-3c, D3        
  Sebastian Ehlert       : rSCAN, r2SCAN, r2SCAN-3c, D4, dhf basis sets  
  Marvin Friede          : D4 for Fr, Ra, Ac-Lr                          
  Lars Goerigk           : TD-DFT with DH, B97 family of functionals     
  Stefan Grimme          : VdW corrections, initial TS optimization, DFT functionals, gCP, sTDA/sTD-DF 
  Waldemar Hujo          : DFT-NL                                        
  H. Jonsson             : NEB                                           
  Holger Kruse           : gCP                                           
  Marcel Mueller         : wB97X-3c, vDZP basis set                      
  Hagen Neugebauer       : wr2SCAN                                       
  Tobias Risthaus        : range-separated hybrid DFT                    
  Lukas Wittmann         : regularized MP2, r2SCAN double-hybrids, wr2SCAN        
                                                                         
We gratefully acknowledge several colleagues who have allowed us to      
interface, adapt or use parts of their codes:                            
  Ed Valeev, F. Pavosevic, A. Kumar             : LibInt (2-el integral package), F12 methods 
  Garnet Chan, S. Sharma, J. Yang, R. Olivares  : DMRG                   
  Ulf Ekstrom                                   : XCFun DFT Library      
  Mihaly Kallay                                 : mrcc  (arbitrary order and MRCC methods)
  Frank Weinhold                                : gennbo (NPA and NBO analysis)           
  Simon Mueller                                 : openCOSMO-RS                            
  Christopher J. Cramer and Donald G. Truhlar   : smd solvation model                     
  S Lehtola, MJT Oliveira, MAL Marques          : LibXC Library                           
  Liviu Ungur et al                             : ANISO software                          


 Your calculation uses the libint2 library for the computation of 2-el integrals
 For citations please refer to: http://libint.valeyev.net

 Your ORCA version has been built with support for libXC version: 6.2.2
 For citations please refer to: https://libxc.gitlab.io

 This ORCA versions uses:
   CBLAS   interface :  Fast vector & matrix operations
   LAPACKE interface :  Fast linear algebra routines
   SCALAPACK package :  Parallel linear algebra routines
   Shared memory     :  Shared parallel matrices
   BLAS/LAPACK       :  OpenBLAS 0.3.27  USE64BITINT DYNAMIC_ARCH NO_AFFINITY Zen SINGLE_THREADED
        Core in use  :  Zen
   Copyright (c) 2011-2014, The OpenBLAS Project


Your calculation utilizes the geometrical counterpoise correction gCP
Please cite in your paper:
H.Kruse, S. Grimme J.Chem.Phys., 136, (2012), 154101 
   

Your calculation utilizes the atom-pairwise dispersion correction
based on EEQ partial charges (D4)


================================================================================

----- Orbital basis set information -----
Your calculation utilizes the basis: def2-mTZVPP
   Stefan Grimme, Andreas Hansen, Sebastian Ehlert, and Jan-Michael Mewes 
   J. Chem. Phys. 154, 064103 (2021). DOI: 10.1063/5.0040021

----- AuxJ basis set information -----
Your calculation utilizes the auxiliary basis: def2/J
   F. Weigend, Phys. Chem. Chem. Phys. 8, 1057 (2006).

================================================================================
                                        WARNINGS
                       Please study these warnings very carefully!
================================================================================



WARNING: SCAN, rSCAN, or r2SCAN functional requested.
  ===> : libXC variant has now been activated.



================================================================================
                                       INPUT FILE
================================================================================
NAME = sp.inp
|  1> ! r2scan-3c def2/J RI DEFGRID2 scfconv6 printgap
|  2> %output
|  3>     printlevel normal
|  4> end
|  5> * xyz 0 1
|  6> C 1.4550566392 -0.7081397888 -1.0547943133
|  7> C 0.6554713272 -0.4649527448 0.2215518699
|  8> C 1.3671604365 0.5537712186 1.1190558796
|  9> C -0.7380198537 0.0533527069 -0.110182054
| 10> O -1.0336019361 0.4685700875 -1.2011101666
| 11> C -1.7210885766 0.0375768305 1.0359894537
| 12> H 1.5504617762 0.217916056 -1.6158145731
| 13> H 2.4480461903 -1.0816506251 -0.8169120216
| 14> H 0.948347872 -1.4341159701 -1.6859266596
| 15> H 0.5508937097 -1.4056189114 0.7727892563
| 16> H 2.3875086037 0.2277547993 1.3076531462
| 17> H 0.8606661257 0.6616306295 2.0747080698
| 18> H 1.4026589186 1.5243485207 0.6290582919
| 19> H -2.7321095375 0.1564452221 0.655204044
| 20> H -1.5039851763 0.8740407796 1.6978807225
| 21> H -1.6433677715 -0.8820607677 1.6090649911
| 22> *
| 23> 
| 24>                          ****END OF INPUT****
================================================================================

                       ****************************
                       * Single Point Calculation *
                       ****************************

---------------------------------
CARTESIAN COORDINATES (ANGSTROEM)
---------------------------------
  C      1.455057   -0.708140   -1.054794
  C      0.655471   -0.464953    0.221552
  C      1.367160    0.553771    1.119056
  C     -0.738020    0.053353   -0.110182
  O     -1.033602    0.468570   -1.201110
  C     -1.721089    0.037577    1.035989
  H      1.550462    0.217916   -1.615815
  H      2.448046   -1.081651   -0.816912
  H      0.948348   -1.434116   -1.685927
  H      0.550894   -1.405619    0.772789
  H      2.387509    0.227755    1.307653
  H      0.860666    0.661631    2.074708
  H      1.402659    1.524349    0.629058
  H     -2.732110    0.156445    0.655204
  H     -1.503985    0.874041    1.697881
  H     -1.643368   -0.882061    1.609065

----------------------------
CARTESIAN COORDINATES (A.U.)
----------------------------
  NO LB      ZA    FRAG     MASS         X           Y           Z
   0 C     6.0000    0    12.011    2.749659   -1.338190   -1.993272
   1 C     6.0000    0    12.011    1.238661   -0.878633    0.418672
   2 C     6.0000    0    12.011    2.583559    1.046476    2.114709
   3 C     6.0000    0    12.011   -1.394655    0.100822   -0.208214
   4 O     8.0000    0    15.999   -1.953225    0.885469   -2.269769
   5 C     6.0000    0    12.011   -3.252386    0.071010    1.957736
   6 H     1.0000    0     1.008    2.929948    0.411802   -3.053447
   7 H     1.0000    0     1.008    4.626137   -2.044023   -1.543740
   8 H     1.0000    0     1.008    1.792118   -2.710086   -3.185940
   9 H     1.0000    0     1.008    1.041038   -2.656235    1.460360
  10 H     1.0000    0     1.008    4.511737    0.430394    2.471106
  11 H     1.0000    0     1.008    1.626423    1.250301    3.920630
  12 H     1.0000    0     1.008    2.650641    2.880601    1.188748
  13 H     1.0000    0     1.008   -5.162939    0.295639    1.238156
  14 H     1.0000    0     1.008   -2.842120    1.651698    3.208530
  15 H     1.0000    0     1.008   -3.105515   -1.666853    3.040692

--------------------------------
INTERNAL COORDINATES (ANGSTROEM)
--------------------------------
 C      0   0   0     0.000000000000     0.00000000     0.00000000
 C      1   0   0     1.525626490628     0.00000000     0.00000000
 C      2   1   0     1.532910091730   110.63602556     0.00000000
 C      2   1   3     1.523320586342   110.57804942   120.90268463
 O      4   2   1     1.204117264825   122.62797765   345.65042077
 C      4   2   1     1.510093413430   115.25652066   166.86429858
 H      1   2   3     1.086933898524   109.99923396   298.92152814
 H      1   2   3     1.087256445431   110.51059053    59.31484900
 H      1   2   3     1.087254905309   110.35365970   179.77255576
 H      2   1   3     1.095286250819   109.52328648   240.21153989
 H      3   2   1     1.087642412253   109.74716591   305.65824730
 H      3   2   1     1.086941234854   111.36907454   185.71059782
 H      3   2   1     1.087831824105   110.14282341    64.87258095
 H      6   4   2     1.086871936403   109.78587550   195.51378719
 H      6   4   2     1.088533819539   108.88400807    77.06840269
 H      6   4   2     1.086365227322   111.26355645   317.66955961

---------------------------
INTERNAL COORDINATES (A.U.)
---------------------------
 C      0   0   0     0.000000000000     0.00000000     0.00000000
 C      1   0   0     2.883016249942     0.00000000     0.00000000
 C      2   1   0     2.896780261295   110.63602556     0.00000000
 C      2   1   3     2.878658722351   110.57804942   120.90268463
 O      4   2   1     2.275451863645   122.62797765   345.65042077
 C      4   2   1     2.853662988020   115.25652066   166.86429858
 H      1   2   3     2.054007393885   109.99923396   298.92152814
 H      1   2   3     2.054616919206   110.51059053    59.31484900
 H      1   2   3     2.054614008796   110.35365970   179.77255576
 H      2   1   3     2.069791052297   109.52328648   240.21153989
 H      3   2   1     2.055346290795   109.74716591   305.65824730
 H      3   2   1     2.054021257541   111.36907454   185.71059782
 H      3   2   1     2.055704227322   110.14282341    64.87258095
 H      6   4   2     2.053890302447   109.78587550   195.51378719
 H      6   4   2     2.057030806439   108.88400807    77.06840269
 H      6   4   2     2.052932761054   111.26355645   317.66955961

---------------------
BASIS SET INFORMATION
---------------------
There are 3 groups of distinct atoms

 Group   1 Type C   : 11s6p1d contracted to 5s3p1d pattern {62111/411/1}
 Group   2 Type O   : 11s6p2d contracted to 5s3p2d pattern {62111/411/11}
 Group   3 Type H   : 4s1p contracted to 2s1p pattern {31/1}

Atom   0C    basis set group =>   1
Atom   1C    basis set group =>   1
Atom   2C    basis set group =>   1
Atom   3C    basis set group =>   1
Atom   4O    basis set group =>   2
Atom   5C    basis set group =>   1
Atom   6H    basis set group =>   3
Atom   7H    basis set group =>   3
Atom   8H    basis set group =>   3
Atom   9H    basis set group =>   3
Atom  10H    basis set group =>   3
Atom  11H    basis set group =>   3
Atom  12H    basis set group =>   3
Atom  13H    basis set group =>   3
Atom  14H    basis set group =>   3
Atom  15H    basis set group =>   3
---------------------------------
AUXILIARY/J BASIS SET INFORMATION
---------------------------------
There are 3 groups of distinct atoms

 Group   1 Type C   : 12s5p4d2f1g contracted to 6s4p3d1f1g pattern {711111/2111/211/2/1}
 Group   2 Type O   : 12s5p4d2f1g contracted to 6s4p3d1f1g pattern {711111/2111/211/2/1}
 Group   3 Type H   : 5s2p1d contracted to 3s1p1d pattern {311/2/1}

Atom   0C    basis set group =>   1
Atom   1C    basis set group =>   1
Atom   2C    basis set group =>   1
Atom   3C    basis set group =>   1
Atom   4O    basis set group =>   2
Atom   5C    basis set group =>   1
Atom   6H    basis set group =>   3
Atom   7H    basis set group =>   3
Atom   8H    basis set group =>   3
Atom   9H    basis set group =>   3
Atom  10H    basis set group =>   3
Atom  11H    basis set group =>   3
Atom  12H    basis set group =>   3
Atom  13H    basis set group =>   3
Atom  14H    basis set group =>   3
Atom  15H    basis set group =>   3

Checking for AutoStart:
The File: sp.gbw exists
Trying to determine its content:
     ... Fine, the file contains calculation information
     ... Fine, the calculation information was read
     ... Fine, the file contains a basis set
     ... Fine, the basis set was read
     ... Fine, the file contains a geometry
     ... Fine, the geometry was read
     ... Fine, the file contains a set of orbitals
     ... Fine, the orbitals can be read
     => possible old guess file was deleted
     => GBW file was renamed to GES file
     => GES file is set as startup file
     => Guess is set to MORead
     ... now leaving AutoStart

------------------------------------------------------------------------------
                             ORCA STARTUP CALCULATIONS
                           -- RI-GTO INTEGRALS CHOSEN --
------------------------------------------------------------------------------
------------------------------------------------------------------------------
                   ___                                                        
                  /   \      - P O W E R E D   B Y -                         
                 /     \                                                     
                 |  |  |   _    _      __       _____    __    __             
                 |  |  |  | |  | |    /  \     |  _  \  |  |  /  |          
                  \  \/   | |  | |   /    \    | | | |  |  | /  /          
                 / \  \   | |__| |  /  /\  \   | |_| |  |  |/  /          
                |  |  |   |  __  | /  /__\  \  |    /   |      \           
                |  |  |   | |  | | |   __   |  |    \   |  |\   \          
                \     /   | |  | | |  |  |  |  | |\  \  |  | \   \       
                 \___/    |_|  |_| |__|  |__|  |_| \__\ |__|  \__/        
                                                                              
                      - O R C A' S   B I G   F R I E N D -                    
                                      &                                       
                       - I N T E G R A L  F E E D E R -                       
                                                                              
 v1 FN, 2020, v2 2021, v3 2022-2024                                           
------------------------------------------------------------------------------


----------------------
SHARK INTEGRAL PACKAGE
----------------------

Number of atoms                             ...     16
Number of basis functions                   ...    169
Number of shells                            ...     85
Maximum angular momentum                    ...      2
Integral batch strategy                     ... SHARK/LIBINT Hybrid
RI-J (if used) integral strategy            ... SPLIT-RIJ (Revised 2003 algorithm where possible)
Printlevel                                  ...      1
Contraction scheme used                     ... SEGMENTED contraction
Prescreening option                         ... SCHWARTZ
   Thresh                                   ... 1.000e-10
   Tcut                                     ... 1.000e-11
   Tpresel                                  ... 1.000e-11 
Coulomb Range Separation                    ... NOT USED
Exchange Range Separation                   ... NOT USED
Multipole approximations                    ... NOT USED
Finite Nucleus Model                        ... NOT USED
CABS basis                                  ... NOT available
Auxiliary Coulomb fitting basis             ... AVAILABLE
   # of basis functions in Aux-J            ...    404
   # of shells in Aux-J                     ...    140
   Maximum angular momentum in Aux-J        ...      4
Auxiliary J/K fitting basis                 ... NOT available
Auxiliary Correlation fitting basis         ... NOT available
Auxiliary 'external' fitting basis          ... NOT available

Checking pre-screening integrals            ... done (  0.0 sec) Dimension = 85
Check shell pair data                       ... done (  0.0 sec)
Shell pair information
Shell pair cut-off parameter TPreSel        ...   1.0e-11
Total number of shell pairs                 ...      3655
Shell pairs after pre-screening             ...      3449
Total number of primitive shell pairs       ...     12882
Primitive shell pairs kept                  ...      9014
          la=0 lb=0:   1186 shell pairs
          la=1 lb=0:   1314 shell pairs
          la=1 lb=1:    387 shell pairs
          la=2 lb=0:    341 shell pairs
          la=2 lb=1:    193 shell pairs
          la=2 lb=2:     28 shell pairs

Calculating one electron integrals          ... done (  0.0 sec)
Calculating RI/J V-Matrix + Cholesky decomp.... done (  0.0 sec)
Calculating Nuclear repulsion               ... done (  0.0 sec) ENN=    246.211581721010 Eh

Diagonalization of the overlap matrix:
Smallest eigenvalue                        ... 2.017e-04
Time for diagonalization                   ...    0.003 sec
Threshold for overlap eigenvalues          ... 1.000e-07
Number of eigenvalues below threshold      ... 0
Time for construction of square roots      ...    0.004 sec
Total time needed                          ...    0.007 sec

-------------------
DFT GRID GENERATION
-------------------

General Integration Accuracy     IntAcc      ... 4.388
Radial Grid Type                 RadialGrid  ... OptM3 with GC (2021)
Angular Grid (max. ang.)         AngularGrid ... 4 (Lebedev-302)
Angular grid pruning method      GridPruning ... 4 (adaptive)
Weight generation scheme         WeightScheme... mBecke (2022)
Basis function cutoff            BFCut       ... 1.0000e-10
Integration weight cutoff        WCut        ... 1.0000e-14
Partially contracted basis set               ... off
Rotationally invariant grid construction     ... off
Angular grids for H and He will be reduced by one unit
Diffuse basis detected: some atoms will have their outermost
                        angular grid increased by 1.

Total number of grid points                  ...    68631
Total number of batches                      ...     1080
Average number of points per batch           ...       63
Average number of grid points per atom       ...     4289
Initializing property integral containers    ... done (  0.0 sec)

SHARK setup successfully completed in   1.6 seconds

Maximum memory used throughout the entire STARTUP-calculation: 31.2 MB
-------------------------------------------------------------------------------
                                 ORCA GUESS
                   Start orbitals & Density for SCF / CASSCF
-------------------------------------------------------------------------------

------------
SCF SETTINGS
------------
Hamiltonian:
 Density Functional     Method          .... DFT(GTOs)
  Functional kind                       .... Exchange
  Functional name                       .... Re-regularized SCAN exchange by Furness et al
  Functional family                     .... MGGA
  Functional refs                              
    [ 0] J. W. Furness, A. D. Kaplan, J. Ning, J. P. Perdew, and J. Sun.,  J. Phys. Chem. Lett. 11, 8208-8215 (2020), doi: 10.1021/acs.jpclett.0c02405
    [ 1] J. W. Furness, A. D. Kaplan, J. Ning, J. P. Perdew, and J. Sun.,  J. Phys. Chem. Lett. 11, 9248-9248 (2020), doi: 10.1021/acs.jpclett.0c03077
  Functional external parameters        .... 6
    Parameter  0 _c1        =  6.670000e-01 : c1 parameter        
    Parameter  1 _c2        =  8.000000e-01 : c2 parameter        
    Parameter  2 _d         =  1.240000e+00 : d parameter         
    Parameter  3 _k1        =  6.500000e-02 : k1 parameter        
    Parameter  4 _eta       =  1.000000e-03 : eta parameter       
    Parameter  5 _dp2       =  3.610000e-01 : dp2 parameter       
  Functional kind                       .... Correlation
  Functional name                       .... Re-regularized SCAN correlation by Furness et al
  Functional family                     .... MGGA
  Functional refs                              
    [ 0] J. W. Furness, A. D. Kaplan, J. Ning, J. P. Perdew, and J. Sun.,  J. Phys. Chem. Lett. 11, 8208-8215 (2020), doi: 10.1021/acs.jpclett.0c02405
    [ 1] J. W. Furness, A. D. Kaplan, J. Ning, J. P. Perdew, and J. Sun.,  J. Phys. Chem. Lett. 11, 9248-9248 (2020), doi: 10.1021/acs.jpclett.0c03077
  Functional external parameters        .... 1
    Parameter  0 _eta       =  1.000000e-03 : Regularization parameter
 Gradients option       PostSCFGGA      .... off
 RI-approximation to the Coulomb term is turned on
   Number of AuxJ basis functions       .... 404


General Settings:
 Integral files         IntName         .... sp
 Hartree-Fock type      HFTyp           .... RHF
 Total Charge           Charge          ....    0
 Multiplicity           Mult            ....    1
 Number of Electrons    NEL             ....   48
 Basis Dimension        Dim             ....  169
 Nuclear Repulsion      ENuc            ....    246.2115817210 Eh

Convergence Acceleration:
 AO-DIIS                CNVDIIS         .... on
   Start iteration      DIISMaxIt       ....    12
   Startup error        DIISStart       ....  0.200000
   # of expansion vecs  DIISMaxEq       ....     5
   Bias factor          DIISBfac        ....   1.050
   Max. coefficient     DIISMaxC        ....  10.000
 MO-DIIS                CNVKDIIS        .... off
 Trust-Rad. Augm. Hess. CNVTRAH         .... auto
   Auto Start mean grad. ratio tolernc. ....  1.125000
   Auto Start start iteration           ....     1
   Auto Start num. interpolation iter.  ....    10
   Max. Number of Micro iterations      ....    24
   Max. Number of Macro iterations      .... Maxiter - #DIIS iter
   Number of Davidson start vectors     ....     2
   Converg. threshold    (grad. norm)   ....   3.330e-04
   Grad. Scal. Fac. for Micro threshold ....   0.100
   Minimum threshold for Micro iter.    ....   1.000e-02
   NR start threshold (gradient norm)   ....   1.000e-04
   Initial trust radius                 ....   0.400
   Minimum AH scaling param. (alpha)    ....   1.000
   Maximum AH scaling param. (alpha)    .... 1000.000
   Quad. conv. algorithm                .... NR
   White noise on init. David. guess    .... on
   Maximum white noise                  ....   0.010
   Pseudo random numbers                .... off
   Inactive MOs                         .... canonical
   Orbital update algorithm             .... Taylor
   Preconditioner                       .... Diag
   Full preconditioner red. dimension   ....   250
   COSX micro iterations for RIJONX calc.... off
 SOSCF                  CNVSOSCF        .... on
   Start iteration      SOSCFMaxIt      ....   150
   Startup grad/error   SOSCFStart      ....  0.003300
   Hessian update       SOSCFHessUp     .... L-BFGS
 Level Shifting         CNVShift        .... on
   Level shift para.    LevelShift      ....    0.2500
   Turn off err/grad.   ShiftErr        ....    0.0010
 Zerner damping         CNVZerner       .... off
 Static damping         CNVDamp         .... on
   Fraction old density DampFac         ....    0.7000
   Max. Damping (<1)    DampMax         ....    0.9800
   Min. Damping (>=0)   DampMin         ....    0.0000
   Turn off err/grad.   DampErr         ....    0.1000

SCF Procedure:
 Maximum # iterations   MaxIter         ....   125
 SCF integral mode      SCFMode         .... Direct
   Integral package                     .... SHARK and LIBINT hybrid scheme
 Reset frequency        DirectResetFreq ....    20
 Integral Threshold     Thresh          ....  1.000e-10 Eh
 Primitive CutOff       TCut            ....  1.000e-11 Eh

Convergence Tolerance:
 Convergence Check Mode ConvCheckMode   .... Total+1el-Energy
 Convergence forced     ConvForced      .... 0
 Energy Change          TolE            ....  1.000e-06 Eh
 1-El. energy change                    ....  1.000e-03 Eh
 Orbital Gradient       TolG            ....  3.330e-04
 Orbital Rotation angle TolX            ....  3.330e-04
 DIIS Error             TolErr          ....  1.000e-06

---------------------
INITIAL GUESS: MOREAD
---------------------
Guess MOs are being read from file: sp.ges
Input Geometry matches current geometry (good)
Atom 0: N(Shells)= 9 and 6 - projection required
Input basis set needs projection
NBasis(read)= 104
NBasis(calc)= 169
Basis set overlap was calculated
Using GuessMode=FMatrix for the initial guess
C*T matrix was formed
Effective Fockian was calculated
Effective Fockian was diagonalized
Initial density was built
                      ------------------
                      INITIAL GUESS DONE (   0.0 sec)
                      ------------------
             **** ENERGY FILE WAS UPDATED (sp.en.tmp) ****
Finished Guess after   0.1 sec
Maximum memory used throughout the entire GUESS-calculation: 12.1 MB

-------------------------------------------------------------------------------------------
                                      ORCA LEAN-SCF
                              memory conserving SCF solver
-------------------------------------------------------------------------------------------

----------------------------------------D-I-I-S--------------------------------------------
Iteration    Energy (Eh)           Delta-E    RMSDP     MaxDP     DIISErr   Damp  Time(sec)
-------------------------------------------------------------------------------------------
               ***  Starting incremental Fock matrix formation  ***
    1    -271.5696999784167360     0.00e+00  4.11e-03  1.28e-01  6.24e-01  0.700   1.2
    2    -271.6108777337372544    -4.12e-02  3.42e-03  1.04e-01  4.38e-01  0.700   1.1
    3    -271.6400157353405689    -2.91e-02  2.55e-03  7.67e-02  3.07e-01  0.700   1.0
    4    -271.6604818316932892    -2.05e-02  1.85e-03  5.49e-02  2.15e-01  0.700   1.6
                               ***Turning on AO-DIIS***
    5    -271.6748413296001559    -1.44e-02  1.35e-03  3.94e-02  1.51e-01  0.700   1.0
    6    -271.6849088695717569    -1.01e-02  9.66e-04  2.77e-02  1.05e-01  0.700   1.0
    7    -271.6919673330658611    -7.06e-03  6.83e-04  1.95e-02  7.37e-02  0.700   1.0
    8    -271.6969131258635457    -4.95e-03  1.61e-03  4.57e-02  5.17e-02  0.000   1.0
                              *** Initializing SOSCF ***
---------------------------------------S-O-S-C-F--------------------------------------
Iteration    Energy (Eh)           Delta-E    RMSDP     MaxDP     MaxGrad    Time(sec)
--------------------------------------------------------------------------------------
    9    -271.7084704515578437    -1.16e-02  1.09e-05  2.02e-04  2.38e-04     1.0
               *** Restarting incremental Fock matrix formation ***
   10    -271.7084704870814562    -3.55e-08  2.54e-05  1.42e-03  1.21e-04     1.2
   11    -271.7084697497443244     7.37e-07  1.69e-05  9.17e-04  3.47e-04     1.1
                 **** Energy Check signals convergence ****

               *****************************************************
               *                     SUCCESS                       *
               *           SCF CONVERGED AFTER  11 CYCLES          *
               *****************************************************

             **** ENERGY FILE WAS UPDATED (sp.en.tmp) ****

----------------
TOTAL SCF ENERGY
----------------

Total Energy       :       -271.70846974974432 Eh           -7393.56334 eV

Components:
Nuclear Repulsion  :        246.21158172101008 Eh            6699.75775 eV
Electronic Energy  :       -517.92005147075440 Eh          -14093.32109 eV
One Electron Energy:       -854.68492481170779 Eh          -23257.15918 eV
Two Electron Energy:        336.76487334095339 Eh            9163.83808 eV

Virial components:
Potential Energy   :       -542.28091484115248 Eh          -14756.21388 eV
Kinetic Energy     :        270.57244509140821 Eh            7362.65054 eV
Virial Ratio       :          2.00419859700773

DFT components:
N(Alpha)           :       24.000006996915 electrons
N(Beta)            :       24.000006996915 electrons
N(Total)           :       48.000013993829 electrons
E(X)               :      -37.857140749857 Eh       
E(C)               :       -1.507326937327 Eh       
E(XC)              :      -39.364467687184 Eh       

---------------
SCF CONVERGENCE
---------------

  Last Energy change         ...   -7.3734e-07  Tolerance :   1.0000e-06
  Last MAX-Density change    ...    9.1734e-04  Tolerance :   1.0000e-05
  Last RMS-Density change    ...    1.6898e-05  Tolerance :   1.0000e-06
  Last DIIS Error            ...    2.3836e-04  Tolerance :   1.0000e-06
  Last Orbital Gradient      ...    3.4688e-04  Tolerance :   3.3300e-04
  Last Orbital Rotation      ...    3.3283e-04  Tolerance :   3.3300e-04


----------------
ORBITAL ENERGIES
----------------

  NO   OCC          E(Eh)            E(eV) 
   0   2.0000     -18.938662      -515.3472 
   1   2.0000     -10.116374      -275.2805 
   2   2.0000     -10.046499      -273.3791 
   3   2.0000     -10.034066      -273.0408 
   4   2.0000     -10.033442      -273.0238 
   5   2.0000     -10.016971      -272.5756 
   6   2.0000      -1.010217       -27.4894 
   7   2.0000      -0.777783       -21.1646 
   8   2.0000      -0.709624       -19.3099 
   9   2.0000      -0.657799       -17.8996 
  10   2.0000      -0.590084       -16.0570 
  11   2.0000      -0.489755       -13.3269 
  12   2.0000      -0.450362       -12.2550 
  13   2.0000      -0.430568       -11.7164 
  14   2.0000      -0.419794       -11.4232 
  15   2.0000      -0.397622       -10.8199 
  16   2.0000      -0.379402       -10.3241 
  17   2.0000      -0.369282       -10.0487 
  18   2.0000      -0.359513        -9.7828 
  19   2.0000      -0.332471        -9.0470 
  20   2.0000      -0.328158        -8.9296 
  21   2.0000      -0.312707        -8.5092 
  22   2.0000      -0.311701        -8.4818 
  23   2.0000      -0.212813        -5.7909 
  24   0.0000      -0.043547        -1.1850 
  25   0.0000       0.067131         1.8267 
  26   0.0000       0.115460         3.1418 
  27   0.0000       0.120526         3.2797 
  28   0.0000       0.124619         3.3911 
  29   0.0000       0.136112         3.7038 
  30   0.0000       0.145424         3.9572 
  31   0.0000       0.157416         4.2835 
  32   0.0000       0.160855         4.3771 
  33   0.0000       0.168758         4.5921 
  34   0.0000       0.171386         4.6636 
*Only the first 10 virtual orbitals were printed.

                    ********************************
                    * MULLIKEN POPULATION ANALYSIS *
                    ********************************

-----------------------
MULLIKEN ATOMIC CHARGES
-----------------------
   0 C :   -0.499979
   1 C :    0.011975
   2 C :   -0.497053
   3 C :    0.280311
   4 O :   -0.344805
   5 C :   -0.536503
   6 H :    0.165586
   7 H :    0.142736
   8 H :    0.153510
   9 H :    0.146259
  10 H :    0.152420
  11 H :    0.150810
  12 H :    0.164791
  13 H :    0.178236
  14 H :    0.175088
  15 H :    0.156616
Sum of atomic charges:   -0.0000000

--------------------------------
MULLIKEN REDUCED ORBITAL CHARGES
--------------------------------
  0 C s       :     3.343886  s :     3.343886
      pz      :     0.975290  p :     3.129497
      px      :     1.049443
      py      :     1.104764
      dz2     :     0.004406  d :     0.026596
      dxz     :     0.005941
      dyz     :     0.007582
      dx2y2   :     0.004912
      dxy     :     0.003754

  1 C s       :     3.003126  s :     3.003126
      pz      :     0.978939  p :     2.940406
      px      :     0.955535
      py      :     1.005931
      dz2     :     0.008181  d :     0.044493
      dxz     :     0.009181
      dyz     :     0.010397
      dx2y2   :     0.009901
      dxy     :     0.006833

  2 C s       :     3.342839  s :     3.342839
      pz      :     1.038913  p :     3.127161
      px      :     1.076826
      py      :     1.011421
      dz2     :     0.005416  d :     0.027053
      dxz     :     0.005249
      dyz     :     0.005725
      dx2y2   :     0.007180
      dxy     :     0.003483

  3 C s       :     3.165368  s :     3.165368
      pz      :     0.773273  p :     2.460990
      px      :     0.962882
      py      :     0.724834
      dz2     :     0.025721  d :     0.093331
      dxz     :     0.033467
      dyz     :     0.016233
      dx2y2   :     0.008335
      dxy     :     0.009574

  4 O s       :     3.840638  s :     3.840638
      pz      :     1.367300  p :     4.483622
      px      :     1.749182
      py      :     1.367140
      dz2     :     0.004069  d :     0.020545
      dxz     :     0.001505
      dyz     :     0.010384
      dx2y2   :     0.003086
      dxy     :     0.001501

  5 C s       :     3.336157  s :     3.336157
      pz      :     1.033897  p :     3.176033
      px      :     1.067010
      py      :     1.075126
      dz2     :     0.002952  d :     0.024313
      dxz     :     0.006984
      dyz     :     0.006358
      dx2y2   :     0.006458
      dxy     :     0.001562

  6 H s       :     0.816040  s :     0.816040
      pz      :     0.005721  p :     0.018374
      px      :     0.003634
      py      :     0.009019

  7 H s       :     0.838947  s :     0.838947
      pz      :     0.003866  p :     0.018317
      px      :     0.009881
      py      :     0.004570

  8 H s       :     0.828172  s :     0.828172
      pz      :     0.006347  p :     0.018318
      px      :     0.005163
      py      :     0.006808

  9 H s       :     0.836028  s :     0.836028
      pz      :     0.005297  p :     0.017713
      px      :     0.003372
      py      :     0.009044

 10 H s       :     0.829244  s :     0.829244
      pz      :     0.003876  p :     0.018336
      px      :     0.010265
      py      :     0.004194

 11 H s       :     0.830833  s :     0.830833
      pz      :     0.009380  p :     0.018357
      px      :     0.005207
      py      :     0.003770

 12 H s       :     0.817109  s :     0.817109
      pz      :     0.004980  p :     0.018100
      px      :     0.003593
      py      :     0.009527

 13 H s       :     0.803713  s :     0.803713
      pz      :     0.004290  p :     0.018051
      px      :     0.010202
      py      :     0.003559

 14 H s       :     0.806139  s :     0.806139
      pz      :     0.006670  p :     0.018773
      px      :     0.004082
      py      :     0.008020

 15 H s       :     0.824923  s :     0.824923
      pz      :     0.006001  p :     0.018461
      px      :     0.003529
      py      :     0.008931


------------------------
MULLIKEN OVERLAP CHARGES
------------------------
B(  0-C ,  1-C ) :   0.2797 B(  0-C ,  2-C ) :  -0.1723 B(  0-C ,  3-C ) :  -0.0743 
B(  0-C ,  4-O ) :   0.1348 B(  0-C ,  6-H ) :   0.8541 B(  0-C ,  7-H ) :   0.8333 
B(  0-C ,  8-H ) :   0.7959 B(  1-C ,  2-C ) :   0.4479 B(  1-C ,  4-O ) :  -0.3825 
B(  1-C ,  5-C ) :  -0.3413 B(  1-C ,  6-H ) :  -0.0688 B(  1-C ,  7-H ) :  -0.0962 
B(  1-C ,  9-H ) :   0.7627 B(  1-C , 10-H ) :  -0.0742 B(  1-C , 11-H ) :  -0.0729 
B(  1-C , 12-H ) :  -0.1176 B(  2-C ,  3-C ) :  -0.1019 B(  2-C ,  9-H ) :  -0.0713 
B(  2-C , 10-H ) :   0.8036 B(  2-C , 11-H ) :   0.8098 B(  2-C , 12-H ) :   0.8533 
B(  3-C ,  4-O ) :   1.1215 B(  3-C ,  5-C ) :   0.5986 B(  3-C , 13-H ) :  -0.0858 
B(  3-C , 15-H ) :  -0.1031 B(  4-O ,  5-C ) :  -0.1774 B(  5-C , 13-H ) :   0.8375 
B(  5-C , 14-H ) :   0.7991 B(  5-C , 15-H ) :   0.8100 


                     *******************************
                     * LOEWDIN POPULATION ANALYSIS *
                     *******************************

----------------------
LOEWDIN ATOMIC CHARGES
----------------------
   0 C :   -0.397324
   1 C :   -0.226253
   2 C :   -0.392101
   3 C :    0.221357
   4 O :   -0.456559
   5 C :   -0.389252
   6 H :    0.167211
   7 H :    0.151024
   8 H :    0.161772
   9 H :    0.166708
  10 H :    0.158224
  11 H :    0.154531
  12 H :    0.161277
  13 H :    0.175339
  14 H :    0.177801
  15 H :    0.166245

-------------------------------
LOEWDIN REDUCED ORBITAL CHARGES
-------------------------------
  0 C s       :     2.965606  s :     2.965606
      pz      :     1.090331  p :     3.368849
      px      :     1.119731
      py      :     1.158787
      dz2     :     0.009736  d :     0.062869
      dxz     :     0.014261
      dyz     :     0.017756
      dx2y2   :     0.012083
      dxy     :     0.009033

  1 C s       :     2.908758  s :     2.908758
      pz      :     1.079799  p :     3.226817
      px      :     1.056011
      py      :     1.091008
      dz2     :     0.015436  d :     0.090678
      dxz     :     0.018901
      dyz     :     0.022010
      dx2y2   :     0.020745
      dxy     :     0.013586

  2 C s       :     2.966275  s :     2.966275
      pz      :     1.115665  p :     3.362282
      px      :     1.128370
      py      :     1.118247
      dz2     :     0.012426  d :     0.063544
      dxz     :     0.012384
      dyz     :     0.013659
      dx2y2   :     0.017039
      dxy     :     0.008036

  3 C s       :     2.825711  s :     2.825711
      pz      :     1.005322  p :     2.752170
      px      :     0.997812
      py      :     0.749036
      dz2     :     0.059424  d :     0.200762
      dxz     :     0.074190
      dyz     :     0.032165
      dx2y2   :     0.015111
      dxy     :     0.019873

  4 O s       :     3.552308  s :     3.552308
      pz      :     1.537891  p :     4.661751
      px      :     1.740421
      py      :     1.383439
      dz2     :     0.080253  d :     0.242500
      dxz     :     0.074051
      dyz     :     0.050067
      dx2y2   :     0.016684
      dxy     :     0.021444

  5 C s       :     2.968612  s :     2.968612
      pz      :     1.096932  p :     3.363357
      px      :     1.123219
      py      :     1.143206
      dz2     :     0.005794  d :     0.057283
      dxz     :     0.015745
      dyz     :     0.016129
      dx2y2   :     0.016737
      dxy     :     0.002879

  6 H s       :     0.788676  s :     0.788676
      pz      :     0.013473  p :     0.044113
      px      :     0.007873
      py      :     0.022767

  7 H s       :     0.805295  s :     0.805295
      pz      :     0.009036  p :     0.043681
      px      :     0.024088
      py      :     0.010557

  8 H s       :     0.794795  s :     0.794795
      pz      :     0.014886  p :     0.043433
      px      :     0.012248
      py      :     0.016300

  9 H s       :     0.789093  s :     0.789093
      pz      :     0.013208  p :     0.044200
      px      :     0.008679
      py      :     0.022313

 10 H s       :     0.797999  s :     0.797999
      pz      :     0.008530  p :     0.043777
      px      :     0.025543
      py      :     0.009704

 11 H s       :     0.801478  s :     0.801478
      pz      :     0.023281  p :     0.043992
      px      :     0.012320
      py      :     0.008391

 12 H s       :     0.794895  s :     0.794895
      pz      :     0.011862  p :     0.043828
      px      :     0.008025
      py      :     0.023941

 13 H s       :     0.781040  s :     0.781040
      pz      :     0.009978  p :     0.043621
      px      :     0.025745
      py      :     0.007899

 14 H s       :     0.776888  s :     0.776888
      pz      :     0.016040  p :     0.045310
      px      :     0.009387
      py      :     0.019883

 15 H s       :     0.789001  s :     0.789001
      pz      :     0.014461  p :     0.044755
      px      :     0.008012
      py      :     0.022282


---------------------------------
LOEWDIN BOND ORDERS (THRESH 0.050000)
---------------------------------
B(  0-C ,  1-C ) :   1.1028 B(  0-C ,  2-C ) :   0.0706 B(  0-C ,  3-C ) :   0.0674 
B(  0-C ,  4-O ) :   0.0584 B(  0-C ,  6-H ) :   0.9132 B(  0-C ,  7-H ) :   0.9224 
B(  0-C ,  8-H ) :   0.9190 B(  1-C ,  2-C ) :   1.0838 B(  1-C ,  3-C ) :   0.9504 
B(  1-C ,  4-O ) :   0.2080 B(  1-C ,  5-C ) :   0.0884 B(  1-C ,  9-H ) :   0.8478 
B(  2-C ,  3-C ) :   0.0812 B(  2-C , 10-H ) :   0.9195 B(  2-C , 11-H ) :   0.9219 
B(  2-C , 12-H ) :   0.9198 B(  3-C ,  4-O ) :   2.3892 B(  3-C ,  5-C ) :   1.0301 
B(  4-O ,  5-C ) :   0.2162 B(  5-C , 13-H ) :   0.9110 B(  5-C , 14-H ) :   0.8966 
B(  5-C , 15-H ) :   0.9100 

------------------------------------------
LOEWDIN REDUCED ORBITAL POPULATIONS PER MO
-------------------------------------------
THRESHOLD FOR PRINTING IS 0.1%%
                      0         1         2         3         4         5   
                 -18.93866 -10.11637 -10.04650 -10.03407 -10.03344 -10.01697
                   2.00000   2.00000   2.00000   2.00000   2.00000   2.00000
                  --------  --------  --------  --------  --------  --------
 0 C  s               0.0       0.0       0.0       0.0       0.0      99.7
 1 C  s               0.0       0.0      99.6       0.0       0.0       0.0
 2 C  s               0.0       0.0       0.0      99.7       0.0       0.0
 3 C  s               0.0      99.2       0.0       0.0       0.0       0.0
 4 O  s              99.9       0.0       0.0       0.0       0.0       0.0
 4 O  pz              0.0       0.2       0.0       0.0       0.0       0.0
 4 O  dz2             0.0       0.2       0.0       0.0       0.0       0.0
 4 O  dyz             0.0       0.1       0.0       0.0       0.0       0.0
 5 C  s               0.0       0.0       0.0       0.0      99.7       0.0

                      6         7         8         9        10        11   
                  -1.01022  -0.77778  -0.70962  -0.65780  -0.59008  -0.48976
                   2.00000   2.00000   2.00000   2.00000   2.00000   2.00000
                  --------  --------  --------  --------  --------  --------
 0 C  s               0.2      10.5       4.9      20.9       9.3       0.9
 0 C  pz              0.0       2.5       0.1       0.4       1.6       5.7
 0 C  px              0.4       0.6       0.0       0.0       2.7       0.1
 0 C  py              0.1       0.1       0.0       0.2       0.0       0.8
 1 C  s               1.1      27.6       1.2       0.3       7.5       4.5
 1 C  pz              0.4       0.0       0.7      10.9       0.4       3.7
 1 C  px              1.3       0.2       4.1       0.0      10.6       4.5
 1 C  py              0.3       0.5       0.0       4.3       0.5      10.3
 1 C  dxz             0.0       0.0       0.0       0.2       0.0       0.0
 1 C  dx2y2           0.0       0.0       0.0       0.0       0.0       0.1
 2 C  s               0.1      14.9       1.7      24.0       5.8       0.3
 2 C  pz              0.1       1.2       0.2       0.9       0.6       0.1
 2 C  px              0.1       0.8       0.2       0.0       2.5       0.1
 2 C  py              0.0       1.4       0.1       0.5       1.3       7.9
 3 C  s              17.6       4.0       4.5       0.1       4.4       7.5
 3 C  pz             10.8       4.8      10.2       0.1       0.6       1.4
 3 C  px              0.8       4.2       5.3       0.0       7.5       0.3
 3 C  py              1.6       1.2       0.1       0.5       2.0       0.4
 3 C  dz2             0.9       0.1       0.0       0.0       0.1       0.0
 3 C  dxz             0.2       0.0       0.3       0.0       0.0       0.0
 3 C  dyz             0.5       0.0       0.0       0.0       0.0       0.0
 3 C  dx2y2           0.0       0.1       0.0       0.0       0.0       0.0
 4 O  s              53.0       2.8       1.7       0.3       1.3       6.5
 4 O  pz              5.3       0.4       1.1       0.0       0.8       9.6
 4 O  px              0.4       0.1       0.2       0.1       0.9       1.4
 4 O  py              0.8       0.1       0.0       0.1       0.4       0.6
 4 O  dz2             0.3       0.1       1.0       0.0       0.1       0.5
 4 O  dxz             0.1       0.2       0.1       0.0       0.8       0.2
 4 O  dyz             0.2       0.2       0.1       0.0       0.3       0.1
 4 O  dxy             0.0       0.1       0.0       0.1       0.1       0.0
 5 C  s               1.1       3.2      35.2       0.6       4.8       1.1
 5 C  pz              1.4       0.1       0.1       0.0       0.9       4.4
 5 C  px              0.4       0.8       0.2       0.0       2.6       4.4
 5 C  py              0.0       0.0       0.0       0.0       0.2       0.4
 5 C  dxz             0.0       0.0       0.0       0.0       0.1       0.2
 6 H  s               0.0       1.3       0.9       4.3       3.4       2.3
 6 H  py              0.0       0.1       0.1       0.3       0.2       0.1
 7 H  s               0.0       1.4       0.9       4.5       4.2       0.1
 7 H  px              0.0       0.1       0.1       0.3       0.2       0.0
 8 H  s               0.0       1.3       0.8       5.2       2.6       0.8
 8 H  pz              0.0       0.0       0.0       0.2       0.0       0.0
 8 H  px              0.0       0.0       0.0       0.1       0.1       0.0
 8 H  py              0.0       0.0       0.0       0.2       0.1       0.0
 9 H  s               0.1       3.9       0.1       0.1       3.3       9.7
 9 H  py              0.0       0.3       0.0       0.0       0.2       0.3
10 H  s               0.0       2.0       0.4       5.6       3.1       0.0
10 H  px              0.0       0.2       0.0       0.4       0.2       0.0
11 H  s               0.0       2.0       0.2       6.5       1.8       0.4
11 H  pz              0.0       0.1       0.0       0.4       0.1       0.0
11 H  px              0.0       0.0       0.0       0.1       0.1       0.0
12 H  s               0.0       2.0       0.3       5.6       2.3       2.4
12 H  pz              0.0       0.0       0.0       0.1       0.1       0.0
12 H  py              0.0       0.1       0.0       0.4       0.1       0.1
13 H  s               0.1       0.4       6.5       0.2       2.6       1.6
13 H  px              0.0       0.0       0.5       0.0       0.1       0.0
14 H  s               0.1       0.5       7.1       0.1       2.1       0.6
14 H  pz              0.0       0.0       0.2       0.0       0.0       0.0
14 H  py              0.0       0.0       0.4       0.0       0.1       0.0
15 H  s               0.1       0.6       7.1       0.2       1.3       2.3
15 H  pz              0.0       0.0       0.2       0.0       0.0       0.0
15 H  py              0.0       0.0       0.4       0.0       0.1       0.1

                     12        13        14        15        16        17   
                  -0.45036  -0.43057  -0.41979  -0.39762  -0.37940  -0.36928
                   2.00000   2.00000   2.00000   2.00000   2.00000   2.00000
                  --------  --------  --------  --------  --------  --------
 0 C  s               0.2       0.3       0.3       0.0       0.0       0.1
 0 C  pz              0.1       8.7       0.9       0.0       0.7       1.8
 0 C  px              2.5       1.4       3.5       4.5       8.3       3.0
 0 C  py              5.7       3.7       0.6       5.5       0.4       4.7
 1 C  s               0.3       1.2       0.0       0.0       0.5       0.1
 1 C  pz              3.2       0.2       6.0       0.8       0.5       4.7
 1 C  px              0.4       9.9       0.0       0.1       0.5       0.1
 1 C  py              9.2       2.9       0.1       3.4       0.1       3.2
 2 C  s               0.1       0.4       0.2       0.0       0.1       0.1
 2 C  pz              3.8      14.8       1.1       7.8       0.3       3.5
 2 C  px              2.3       0.7       8.6       0.1       4.6      20.2
 2 C  py              1.9       2.2       1.3       0.0       5.9       5.2
 2 C  dz2             0.0       0.0       0.0       0.0       0.0       0.1
 2 C  dxz             0.0       0.1       0.0       0.0       0.0       0.0
 2 C  dyz             0.0       0.1       0.0       0.0       0.0       0.1
 3 C  s               1.6       0.1       0.1       0.2       0.6       0.2
 3 C  pz              0.7       0.1       6.1       6.5       2.3       2.2
 3 C  px             14.2       1.2       0.1       1.1       0.7       0.0
 3 C  py              1.2       6.4       7.9       1.6       0.5       0.1
 3 C  dz2             0.0       0.1       0.0       0.0       0.2       0.0
 3 C  dx2y2           0.0       0.0       0.0       0.0       0.1       0.0
 4 O  s               1.2       1.6       2.4       4.1       1.2       0.8
 4 O  pz              6.2       7.9       1.9      11.9       7.0       3.1
 4 O  px              6.4       0.2       1.1       5.2       5.5       0.4
 4 O  py              1.4       1.1      11.7       1.2       0.6       0.6
 4 O  dz2             0.4       0.3       0.3       0.1       0.0       0.1
 4 O  dxz             0.6       0.0       0.0       0.1       0.3       0.0
 4 O  dyz             0.2       0.1       0.5       0.1       0.0       0.0
 4 O  dx2y2           0.3       0.1       0.0       0.0       0.0       0.1
 4 O  dxy             0.1       0.1       0.1       0.1       0.0       0.0
 5 C  s               0.8       0.0       0.2       0.0       0.0       0.0
 5 C  pz             15.7       3.0       0.3       2.8      14.4       0.5
 5 C  px              1.0       2.2      11.0       3.6       8.8       9.6
 5 C  py              0.5       7.6      12.7      16.6       3.4       3.7
 5 C  dxz             0.2       0.0       0.0       0.1       0.0       0.1
 5 C  dyz             0.0       0.0       0.1       0.1       0.0       0.1
 5 C  dx2y2           0.1       0.0       0.0       0.0       0.3       0.0
 6 H  s               0.8       0.0       0.1       2.0       0.0       3.7
 7 H  s               2.3       0.1       1.8       0.6       3.3       0.2
 8 H  s               0.4       5.6       0.1       2.3       2.3       0.9
 9 H  s               2.8       0.4       0.3       0.5       0.2       0.0
10 H  s               2.1       0.0       2.4       0.1       3.7       5.6
10 H  py              0.0       0.0       0.1       0.0       0.0       0.1
11 H  s               0.4       7.6       1.4       3.1       0.3       6.2
11 H  pz              0.0       0.1       0.0       0.0       0.0       0.2
12 H  s               0.9       0.0       1.5       0.6       3.2       4.4
12 H  px              0.0       0.0       0.0       0.0       0.0       0.1
13 H  s               0.1       1.7       3.9       1.2       9.3       4.5
13 H  pz              0.1       0.0       0.0       0.1       0.0       0.0
13 H  px              0.0       0.1       0.1       0.0       0.2       0.0
13 H  py              0.0       0.0       0.1       0.1       0.0       0.1
14 H  s               4.7       0.2       4.6       7.3       1.0       3.4
14 H  pz              0.0       0.1       0.1       0.1       0.0       0.1
14 H  py              0.2       0.0       0.0       0.0       0.1       0.0
15 H  s               1.9       4.3       3.4       3.1       7.3       0.5
15 H  pz              0.0       0.0       0.1       0.2       0.0       0.0
15 H  py              0.1       0.1       0.0       0.0       0.2       0.0

                     18        19        20        21        22        23   
                  -0.35951  -0.33247  -0.32816  -0.31271  -0.31170  -0.21281
                   2.00000   2.00000   2.00000   2.00000   2.00000   2.00000
                  --------  --------  --------  --------  --------  --------
 0 C  s               0.0       0.0       0.2       0.1       0.7       0.0
 0 C  pz              4.5       2.7       0.9       0.5      23.0       0.2
 0 C  px              4.7       3.2      16.5       2.5       1.4       0.6
 0 C  py             12.9       6.5       3.8      12.0       0.8       0.0
 0 C  dz2             0.0       0.0       0.2       0.0       0.0       0.0
 0 C  dxz             0.0       0.0       0.0       0.0       0.2       0.0
 0 C  dyz             0.0       0.1       0.0       0.6       0.0       0.0
 0 C  dx2y2           0.1       0.0       0.3       0.0       0.1       0.0
 0 C  dxy             0.0       0.0       0.2       0.0       0.1       0.0
 1 C  s               0.0       0.0       0.1       0.2       0.1       1.1
 1 C  pz              0.1       0.5       0.0       0.4      20.6       0.9
 1 C  px              0.2       0.0       7.6       3.3       1.4       8.5
 1 C  py              0.4       0.5       0.9      16.4       0.3       1.2
 1 C  dz2             0.1       0.0       0.2       0.0       0.1       0.0
 1 C  dxz             0.0       0.0       0.1       0.1       0.3       0.0
 1 C  dyz             0.0       0.0       0.0       0.8       0.0       0.0
 1 C  dx2y2           0.1       0.0       0.3       0.1       0.1       0.0
 1 C  dxy             0.0       0.0       0.2       0.0       0.2       0.0
 2 C  s               0.0       0.0       0.0       0.7       0.2       0.0
 2 C  pz              4.3       0.3       0.8       1.2      14.6       0.2
 2 C  px              9.2       1.2       2.4       2.4       0.3       0.7
 2 C  py             14.9       1.8       0.1      10.7       0.6       0.0
 2 C  dz2             0.0       0.0       0.0       0.0       0.3       0.0
 2 C  dxz             0.0       0.1       0.0       0.0       0.1       0.0
 2 C  dyz             0.0       0.0       0.0       0.2       0.0       0.0
 2 C  dx2y2           0.3       0.0       0.1       0.0       0.0       0.1
 3 C  s               0.1       0.0       0.9       0.0       0.0       0.0
 3 C  pz              1.4       0.9       0.6       0.1       1.0       0.2
 3 C  px              0.1       1.3       9.6       0.3       0.0       3.3
 3 C  py              0.4      10.6       1.2       0.9       0.6       0.2
 3 C  dz2             0.0       0.2       0.0       0.1       0.1       1.1
 3 C  dxz             0.1       0.1       0.0       0.0       0.3       2.5
 3 C  dyz             0.0       0.6       0.0       0.2       0.0       0.0
 3 C  dx2y2           0.0       0.1       0.0       0.2       0.0       0.1
 3 C  dxy             0.0       0.0       0.0       0.1       0.0       0.6
 4 O  s               0.3       0.0       0.6       0.0       0.1       0.0
 4 O  pz              3.3       2.8       7.2       1.6       0.2       6.5
 4 O  px              0.0       3.8       5.6       1.9       0.1      53.6
 4 O  py              0.0      32.4       0.1       8.8       6.6       2.6
 4 O  dz2             0.0       0.1       0.1       0.0       0.0       0.3
 4 O  dxz             0.0       0.0       0.3       0.0       0.0       0.8
 4 O  dyz             0.0       0.3       0.1       0.0       0.0       0.0
 4 O  dxy             0.1       0.0       0.0       0.0       0.0       0.2
 5 C  s               0.0       0.0       0.0       0.0       0.0       1.4
 5 C  pz              1.4       0.7       1.6       0.0       0.9       6.5
 5 C  px              0.1       1.2       6.1       0.7       0.6       2.9
 5 C  py              2.5       6.7       1.1       0.0       1.5       0.0
 5 C  dz2             0.0       0.0       0.1       0.0       0.0       0.0
 5 C  dyz             0.0       0.4       0.0       0.0       0.0       0.0
 5 C  dx2y2           0.0       0.0       0.2       0.0       0.0       0.0
 6 H  s               7.1       1.2       2.4       8.6       1.2       0.0
 6 H  pz              0.0       0.1       0.0       0.0       0.1       0.0
 6 H  px              0.1       0.0       0.1       0.0       0.0       0.0
 6 H  py              0.1       0.0       0.0       0.0       0.1       0.0
 7 H  s               6.4       0.8      13.4       0.0       0.0       0.2
 7 H  pz              0.0       0.0       0.0       0.0       0.2       0.0
 7 H  px              0.2       0.0       0.1       0.0       0.0       0.0
 7 H  py              0.0       0.1       0.0       0.1       0.0       0.0
 8 H  s               0.0       6.6       1.1       5.4       4.2       0.0
 8 H  px              0.0       0.0       0.1       0.0       0.1       0.0
 8 H  py              0.1       0.0       0.1       0.0       0.0       0.0
 9 H  s               0.4       0.0       0.9      13.3       3.0       0.4
 9 H  px              0.0       0.0       0.1       0.0       0.0       0.2
 9 H  py              0.0       0.0       0.0       0.0       0.1       0.0
10 H  s              10.0       1.4       2.3       0.0       0.1       0.9
10 H  pz              0.0       0.0       0.0       0.0       0.1       0.0
10 H  px              0.2       0.0       0.0       0.0       0.0       0.0
10 H  py              0.0       0.0       0.0       0.1       0.0       0.0
11 H  s               0.0       1.1       0.0       0.0       9.1       0.0
11 H  py              0.1       0.0       0.0       0.1       0.0       0.0
12 H  s               9.8       0.3       0.5       3.9       1.6       0.2
12 H  py              0.1       0.0       0.0       0.0       0.1       0.0
13 H  s               0.2       0.6       5.6       0.4       0.1       0.1
14 H  s               0.2       5.5       0.1       0.1       0.9       0.2
15 H  s               2.1       2.5       2.2       0.0       0.3       0.4
15 H  pz              0.0       0.1       0.0       0.0       0.0       0.1

                     24        25        26        27        28        29   
                  -0.04355   0.06713   0.11546   0.12053   0.12462   0.13611
                   0.00000   0.00000   0.00000   0.00000   0.00000   0.00000
                  --------  --------  --------  --------  --------  --------
 0 C  s               0.1       6.4       6.2       0.1      12.1       2.7
 0 C  pz              0.1       1.2       1.2       1.7       1.1      16.2
 0 C  px              0.2       0.3       0.0       1.7       4.5       5.0
 0 C  py              0.0       0.1       2.8       1.1       0.1       3.0
 0 C  dz2             0.0       0.2       0.0       0.6       0.0       0.5
 0 C  dxz             0.0       0.2       0.1       0.0       0.0       0.8
 0 C  dyz             0.0       0.0       0.5       0.2       0.0       0.8
 0 C  dx2y2           0.0       0.0       0.0       0.1       0.0       0.0
 1 C  s               0.0       7.6       0.9       2.1       0.7       7.8
 1 C  pz              0.5       1.4       7.1       3.8       0.1       3.4
 1 C  px              0.3       0.2       0.1       6.3       5.0       2.5
 1 C  py              0.1       3.5       3.6       4.3       0.2       2.0
 1 C  dz2             0.0       0.0       0.1       0.3       0.0       0.5
 1 C  dxz             0.3       0.1       0.9       0.1       0.1       0.1
 1 C  dyz             0.2       0.1       0.1       0.1       0.0       0.9
 1 C  dx2y2           0.2       0.1       0.4       0.6       0.0       0.3
 1 C  dxy             0.8       0.0       0.0       0.7       0.1       0.2
 2 C  s               1.5      11.4      12.0       1.1       9.7       0.2
 2 C  pz              1.1       1.8       9.5       1.6       0.5       7.5
 2 C  px              0.4       1.3       4.1       1.9       8.4       3.3
 2 C  py              0.8       1.4       1.9      10.7       0.7       5.3
 2 C  dz2             0.0       0.0       0.0       0.2       0.0       0.8
 2 C  dxz             0.1       0.1       0.1       0.1       0.0       0.1
 2 C  dyz             0.0       0.2       0.1       0.2       0.0       1.5
 2 C  dx2y2           0.1       0.1       0.0       0.3       0.1       0.0
 2 C  dxy             0.0       0.3       0.4       0.0       0.0       0.1
 3 C  s               0.0       6.0       2.8       7.8       0.2       0.4
 3 C  pz              3.1       2.5       1.4       1.9       1.1       0.7
 3 C  px              3.8       0.6       0.1       0.3       3.0       1.0
 3 C  py             37.8       0.4       0.8       1.7       0.9       1.5
 3 C  dz2             0.3       0.5       0.5       0.1       0.0       0.3
 3 C  dxz             0.2       0.0       0.2       0.2       0.0       0.2
 3 C  dyz             0.8       0.3       0.5       0.1       0.0       0.0
 3 C  dx2y2           0.3       0.1       0.1       0.4       0.1       0.4
 3 C  dxy             0.0       0.2       0.0       0.4       0.0       0.0
 4 O  s               0.0       1.7       0.9       0.3       0.0       0.0
 4 O  pz              2.0       0.2       0.2       0.3       0.2       0.2
 4 O  px              2.4       0.1       0.6       0.0       1.2       0.3
 4 O  py             24.4       0.1       0.1       0.1       0.1       0.0
 4 O  dz2             1.2       0.7       0.1       0.4       0.0       0.2
 4 O  dxz             0.6       0.0       0.1       0.4       0.0       0.0
 4 O  dyz             4.1       0.4       0.2       0.0       0.2       0.0
 4 O  dx2y2           1.5       0.3       0.4       1.1       0.0       0.2
 4 O  dxy             0.1       0.5       0.1       0.9       0.0       0.0
 5 C  s               0.0      15.4       1.9       4.4      14.2       0.1
 5 C  pz              0.0       1.6       7.8       1.5       1.3       3.2
 5 C  px              0.0       0.4       1.9      11.1       3.6       1.2
 5 C  py              0.1       0.3       0.2       5.0       1.0       0.2
 5 C  dz2             0.1       0.0       0.0       0.1       0.0       0.0
 5 C  dxz             0.0       0.1       0.2       0.9       0.0       0.1
 5 C  dyz             1.2       0.0       0.0       0.3       0.0       0.0
 5 C  dx2y2           0.1       0.2       0.8       0.0       0.1       0.8
 5 C  dxy             0.1       0.0       0.1       0.2       0.0       0.1
 6 H  s               0.0       0.8       2.1       0.8       2.2       1.2
 6 H  pz              0.0       0.0       0.5       0.4       0.3       0.1
 6 H  px              0.0       0.0       0.0       0.0       0.0       0.1
 6 H  py              0.0       0.5       0.3       0.0       0.9       0.2
 7 H  s               0.0       1.1       0.8       1.3       1.7       0.1
 7 H  pz              0.0       0.2       0.0       0.0       0.2       0.8
 7 H  px              0.0       0.4       0.4       0.5       0.9       0.1
 7 H  py              0.0       0.0       0.2       0.0       0.2       0.0
 8 H  s               0.0       1.7       1.2       0.1       1.4       0.5
 8 H  pz              0.0       0.0       0.0       0.0       0.2       1.0
 8 H  px              0.0       0.5       0.1       0.1       0.1       0.2
 8 H  py              0.0       0.2       0.1       0.0       0.3       0.1
 9 H  s               1.5       2.3       0.1       3.5       0.3       2.9
 9 H  pz              0.0       0.3       0.5       0.7       0.0       0.0
 9 H  px              0.0       0.0       0.0       0.9       0.4       0.0
 9 H  py              0.0       1.2       0.6       1.0       0.1       0.2
10 H  s               0.6       2.1       0.3       0.2       1.3       0.9
10 H  px              0.1       0.5       0.6       0.0       0.7       0.1
10 H  py              0.0       0.5       0.1       0.0       0.2       0.6
11 H  s               0.2       2.7       5.1       0.5       0.7       2.2
11 H  pz              0.0       0.5       2.1       0.0       0.4       0.8
11 H  px              0.0       0.8       0.6       0.0       0.0       0.0
11 H  py              0.0       0.0       0.0       0.3       0.0       0.7
12 H  s               0.0       1.7       0.5       0.6       3.2       4.0
12 H  pz              0.0       0.6       0.1       0.0       0.3       0.3
12 H  px              0.0       0.1       0.5       0.1       0.0       0.1
12 H  py              0.1       0.2       0.4       0.8       1.1       0.6
13 H  s               0.5       0.5       5.5       0.9       1.0       1.3
13 H  pz              0.0       0.3       0.2       0.2       0.3       0.2
13 H  px              0.0       0.2       0.6       0.3       0.7       0.5
13 H  py              0.0       0.0       0.0       0.3       0.1       0.0
14 H  s               3.5       4.6       0.2       3.9       1.2       1.8
14 H  pz              0.1       0.3       0.5       0.8       0.1       0.0
14 H  px              0.0       0.3       0.2       0.0       0.0       0.0
14 H  py              0.0       1.0       0.0       0.7       0.9       0.3
15 H  s               1.6       2.1       0.9       0.4       4.9       0.9
15 H  pz              0.1       0.1       0.1       0.0       0.4       0.0
15 H  px              0.0       0.0       0.4       0.9       0.0       0.0
15 H  py              0.0       1.0       0.0       0.0       2.0       0.3

                     30        31        32        33        34        35   
                   0.14542   0.15742   0.16086   0.16876   0.17139   0.17944
                   0.00000   0.00000   0.00000   0.00000   0.00000   0.00000
                  --------  --------  --------  --------  --------  --------
 0 C  s               7.9       1.3       0.5       0.1       0.1       1.9
 0 C  pz              3.8       1.7       6.0       2.2       3.8       2.5
 0 C  px              0.7       1.5       2.5       1.6      14.8       5.0
 0 C  py              0.3       1.6       8.8       1.7       2.0       9.0
 0 C  dz2             0.0       0.0       0.0       0.2       0.0       0.0
 0 C  dxz             0.0       0.0       0.2       0.2       0.6       0.0
 0 C  dyz             0.1       0.0       0.0       0.0       0.4       0.1
 0 C  dx2y2           0.3       0.1       0.6       0.0       0.4       0.0
 0 C  dxy             0.4       0.7       0.0       0.0       0.2       0.6
 1 C  s               0.5       1.1       3.8       0.8       0.9       0.8
 1 C  pz              0.6       2.9       0.4       2.7       3.0       2.9
 1 C  px              0.4       2.5       3.4       2.3       1.8       1.7
 1 C  py              0.3       4.0       2.7       1.3       4.1       0.6
 1 C  dz2             0.4       0.0       0.6       0.2       0.0       0.1
 1 C  dxz             0.0       0.2       0.1       0.6       0.1       0.0
 1 C  dyz             0.0       0.6       0.3       0.1       0.4       0.0
 1 C  dx2y2           0.1       0.0       0.2       0.4       0.3       0.0
 1 C  dxy             0.0       0.1       0.1       0.1       0.1       0.1
 2 C  s               1.4       0.3       0.0       0.2       0.4       0.5
 2 C  pz              4.4      12.8       2.9       0.2       4.2       1.9
 2 C  px              1.9       0.4       1.9      24.9       4.7       0.4
 2 C  py              2.3       6.1       4.8       7.1       5.8       2.2
 2 C  dz2             0.7       0.0       0.0       0.2       0.0       0.2
 2 C  dxz             0.8       0.5       0.0       0.6       0.1       0.4
 2 C  dyz             0.0       0.3       0.1       0.6       0.2       0.0
 2 C  dx2y2           0.0       1.2       0.6       1.0       0.5       0.0
 2 C  dxy             0.0       0.0       0.5       0.1       0.7       0.0
 3 C  s               3.5       3.2       0.4       0.5       0.7       0.0
 3 C  pz              3.1       3.6       2.1       1.1       1.5       0.0
 3 C  px              0.4       0.9       0.7       4.2       2.4       0.5
 3 C  py              2.8       1.6       2.3       1.1       2.3       0.7
 3 C  dz2             0.0       0.5       0.0       0.0       0.0       0.7
 3 C  dxz             0.0       0.2       0.1       0.1       0.0       0.0
 3 C  dyz             0.0       0.2       0.1       0.0       0.0       0.1
 3 C  dx2y2           0.2       0.1       0.0       0.0       0.2       0.0
 3 C  dxy             0.0       0.0       0.7       0.0       0.1       0.0
 4 O  s               0.2       0.7       0.8       0.2       0.5       0.0
 4 O  pz              0.0       0.7       0.2       0.0       0.5       1.1
 4 O  px              0.1       0.5       0.4       0.8       0.2       0.1
 4 O  py              0.1       0.4       0.9       0.1       0.2       0.1
 4 O  dz2             1.0       0.3       0.1       0.3       0.4       1.1
 4 O  dxz             0.0       0.1       1.0       0.5       0.2       0.2
 4 O  dyz             0.0       0.4       0.6       0.0       0.3       0.0
 4 O  dx2y2           0.1       0.0       0.0       0.4       0.3       1.3
 4 O  dxy             0.0       0.0       1.0       0.2       0.1       0.2
 5 C  s               0.8       0.2       1.4       0.8       0.4       3.1
 5 C  pz             21.3       7.2       0.5       1.5      14.5       3.4
 5 C  px              5.2       3.7       0.5       5.0       0.6      21.2
 5 C  py              1.7       3.8       6.6       0.8       1.7       2.1
 5 C  dz2             0.1       0.5       0.0       0.0       0.1       0.3
 5 C  dxz             0.9       1.1       0.0       0.7       0.0       0.4
 5 C  dyz             0.2       0.1       1.7       0.0       0.0       0.0
 5 C  dx2y2           1.3       0.0       0.4       0.5       0.0       0.6
 5 C  dxy             0.1       0.0       0.2       0.0       0.0       0.2
 6 H  s               1.3       0.4       0.8       0.5       0.0       0.3
 6 H  pz              0.0       0.0       0.2       0.2       0.5       0.2
 6 H  px              0.2       0.3       0.0       0.0       0.0       0.3
 6 H  py              0.7       0.4       0.1       0.0       0.0       0.0
 7 H  s               0.7       0.7       1.0       1.6       1.9       3.5
 7 H  pz              0.1       0.0       0.1       0.1       0.1       0.0
 7 H  px              0.0       0.0       0.3       0.5       0.9       0.9
 7 H  py              0.0       0.2       0.0       0.0       0.3       0.8
 8 H  s               4.7       2.0       0.1       0.4       5.7       1.1
 8 H  pz              0.3       0.0       0.0       0.0       0.4       0.0
 8 H  px              0.3       0.1       0.0       0.3       0.4       0.0
 8 H  py              1.2       0.3       0.1       0.0       1.0       0.0
 9 H  s               0.0       3.2       2.5       0.1       0.9       0.1
 9 H  pz              0.0       1.1       0.1       0.0       0.6       0.1
 9 H  px              0.0       0.4       0.1       0.4       0.0       0.2
 9 H  py              0.0       0.5       1.8       0.0       0.1       0.0
10 H  s               3.3       1.8       2.3       7.4       3.6       0.2
10 H  pz              0.5       0.6       0.0       0.2       0.1       0.2
10 H  px              0.4       0.3       0.3       3.1       0.4       0.1
10 H  py              0.2       0.2       0.1       0.1       0.4       0.0
11 H  s               4.6       2.0       0.4       1.9       0.6       2.7
11 H  pz              0.2       0.0       0.0       0.8       0.0       0.5
11 H  px              0.0       0.7       0.2       0.1       0.8       0.1
11 H  py              0.0       0.2       0.4       0.3       0.0       0.0
12 H  s               1.1       5.4       4.1       4.4       1.0       0.3
12 H  pz              0.0       0.0       0.2       0.6       0.0       0.5
12 H  px              0.4       0.0       0.3       0.0       0.4       0.0
12 H  py              0.8       0.4       1.0       0.2       0.6       0.0
13 H  s               1.2       3.5       0.2       3.9       0.1      12.6
13 H  pz              0.3       0.4       0.2       0.4       0.0       0.5
13 H  px              0.6       0.5       0.0       0.2       0.0       4.6
13 H  py              0.1       0.0       1.0       0.0       0.1       0.1
14 H  s               3.5       1.0       3.2       0.1       1.3       0.1
14 H  pz              0.1       0.0       0.7       0.0       0.5       0.0
14 H  px              0.3       0.7       0.2       0.5       0.2       0.1
14 H  py              0.7       0.2       0.0       0.3       0.2       0.0
15 H  s               0.5       1.4      11.7       1.8       0.1       0.3
15 H  pz              0.8       0.8       1.1       0.1       0.1       0.1
[...]
 4 O  px              0.0       0.3       0.4       0.2       0.0       4.6
 4 O  py              0.0       0.6       0.0       0.1       0.0       0.2
 4 O  dz2             0.0       1.4       0.0       0.0       0.0       5.4
 4 O  dxz             0.0       0.2       0.8       0.2       0.2      13.1
 4 O  dyz             0.2       1.1       0.1       0.1       0.0       0.0
 4 O  dx2y2           0.2       0.0       0.0       0.0       0.0       0.7
 4 O  dxy             0.0       0.2       0.1       0.0       0.0       3.2
 5 C  s               0.0       0.0       0.1       0.0       0.0       0.1
 5 C  pz              0.1       0.0       0.3       0.2       0.2       0.0
 5 C  px              0.1       0.5       0.1       0.3       0.1       4.1
 5 C  py              5.7       0.6       0.3       0.1       0.1       0.0
 5 C  dz2             0.0       0.1       0.0       0.0       0.0       0.2
 5 C  dxz             0.4       0.3       0.0       0.1       0.0       5.6
 5 C  dyz            10.7       1.4       1.0       0.0       0.3       0.8
 5 C  dx2y2           0.1       0.0       0.4       0.5       0.3       0.4
 5 C  dxy             0.7       0.2       0.1       0.0       0.0       0.2
 6 H  s               0.2       2.4       0.0       2.1       2.6       0.4
 6 H  pz              0.3       1.6       0.2       1.9       2.2       0.1
 6 H  px              0.2       0.0       0.2       0.5       0.1       0.0
 6 H  py              0.6       3.8       0.4       2.5       5.4       1.3
 7 H  s               1.0       0.0       2.9       5.3       0.0       0.0
 7 H  pz              0.3       0.0       0.0       1.1       0.2       0.0
 7 H  px              1.8       0.1       5.2      10.8       0.0       0.0
 7 H  py              0.8       0.1       1.5       1.1       0.0       0.0
 8 H  s               0.3       3.6       6.4       0.0       0.1       0.1
 8 H  pz              0.2       3.2       4.8       0.0       0.2       0.0
 8 H  px              0.0       2.5       3.2       0.3       0.0       0.1
 8 H  py              0.2       3.5       9.0       0.2       0.0       0.3
 9 H  s               0.0       0.5       0.0       0.2       7.7       0.0
 9 H  pz              0.4       0.2       0.1       0.9       4.2       0.0
 9 H  px              0.0       0.3       0.0       0.0       0.2       0.5
 9 H  py              0.0       1.4       0.0       0.1      16.1       0.0
10 H  s               1.3       4.2       0.4       0.0       0.0       1.2
10 H  pz              0.4       0.5       0.4       0.3       0.1       0.0
10 H  px              2.4       8.2       0.5       0.3       0.1       2.8
10 H  py              1.0       1.0       0.0       0.0       0.0       0.2
11 H  s               2.2       2.7       2.0       3.7       0.1       0.0
11 H  pz              3.9       5.8       4.1       6.6       0.3       0.0
11 H  px              0.4       1.1       1.4       2.9       0.0       0.0
11 H  py              0.3       0.0       0.0       0.1       0.0       0.0
12 H  s               2.1       0.4       0.2       1.7       1.4       0.6
12 H  pz              1.2       0.3       0.8       0.4       0.5       0.3
12 H  px              0.1       0.3       0.0       0.0       0.0       0.0
12 H  py              5.0       0.9       0.2       3.2       3.3       1.0
13 H  s               0.0       0.2       0.2       0.3       0.1       2.2
13 H  pz              0.1       0.1       0.0       0.0       0.0       0.4
13 H  px              0.1       0.4       0.3       0.4       0.2       3.7
13 H  py              0.2       0.1       0.0       0.0       0.0       0.1
14 H  s               3.4       0.4       0.5       0.0       0.0       0.2
14 H  pz              4.2       0.3       0.5       0.0       0.0       0.2
14 H  px              0.4       0.0       0.1       0.0       0.1       0.1
14 H  py              4.0       0.6       0.8       0.1       0.0       0.2
15 H  s               3.3       0.5       0.1       0.1       0.3       0.0
15 H  pz              2.4       0.6       0.0       0.1       0.1       0.0
15 H  px              0.0       0.0       0.0       0.0       0.0       0.2
15 H  py              4.8       0.7       0.0       0.2       0.6       0.1

                    162       163       164       165       166       167   
                   4.40144  21.92105  21.97152  22.00467  22.07855  22.13334
                   0.00000   0.00000   0.00000   0.00000   0.00000   0.00000
                  --------  --------  --------  --------  --------  --------
 0 C  s               0.0       5.6       1.1      85.1       7.5       0.3
 1 C  s               0.0       5.4       3.3       1.5      62.4      27.2
 1 C  pz              0.1       0.0       0.0       0.0       0.0       0.0
 2 C  s               0.0      10.0      70.2       2.1       0.1      17.2
 3 C  s               7.1       0.3       9.8       6.4      28.2      54.6
 3 C  pz              6.8       0.0       0.1       0.0       0.1       0.0
 3 C  px              0.5       0.0       0.0       0.0       0.0       0.0
 3 C  py              0.9       0.0       0.0       0.0       0.0       0.0
 3 C  dz2             3.3       0.0       0.0       0.0       0.0       0.0
 3 C  dxz             0.9       0.0       0.0       0.0       0.0       0.0
 3 C  dyz             1.8       0.0       0.0       0.0       0.0       0.0
 3 C  dxy             0.1       0.0       0.0       0.0       0.0       0.0
 4 O  s              19.1       0.0       0.0       0.0       0.1       0.1
 4 O  pz             18.1       0.0       0.0       0.0       0.0       0.1
 4 O  px              1.4       0.0       0.0       0.0       0.0       0.0
 4 O  py              2.6       0.0       0.0       0.0       0.0       0.0
 4 O  dz2            19.2       0.0       0.0       0.0       0.0       0.0
 4 O  dxz             5.4       0.0       0.0       0.0       0.0       0.0
 4 O  dyz            10.6       0.0       0.0       0.0       0.0       0.0
 4 O  dx2y2           0.1       0.0       0.0       0.0       0.0       0.0
 4 O  dxy             0.7       0.0       0.0       0.0       0.0       0.0
 5 C  s               0.0      78.6      15.2       4.5       1.2       0.2

                    168   
                  43.64224
                   0.00000
                  --------
 4 O  s              99.9


                      *****************************
                      * MAYER POPULATION ANALYSIS *
                      *****************************

  NA   - Mulliken gross atomic population
  ZA   - Total nuclear charge
  QA   - Mulliken gross atomic charge
  VA   - Mayer's total valence
  BVA  - Mayer's bonded valence
  FA   - Mayer's free valence

  ATOM       NA         ZA         QA         VA         BVA        FA
  0 C      6.5000     6.0000    -0.5000     3.8818     3.8818    -0.0000
  1 C      5.9880     6.0000     0.0120     3.3953     3.3953     0.0000
  2 C      6.4971     6.0000    -0.4971     3.7799     3.7799    -0.0000
  3 C      5.7197     6.0000     0.2803     3.6688     3.6688     0.0000
  4 O      8.3448     8.0000    -0.3448     1.9815     1.9815     0.0000
  5 C      6.5365     6.0000    -0.5365     3.8234     3.8234     0.0000
  6 H      0.8344     1.0000     0.1656     0.9614     0.9614    -0.0000
  7 H      0.8573     1.0000     0.1427     0.9629     0.9629    -0.0000
  8 H      0.8465     1.0000     0.1535     0.9633     0.9633     0.0000
  9 H      0.8537     1.0000     0.1463     0.9605     0.9605    -0.0000
 10 H      0.8476     1.0000     0.1524     0.9627     0.9627    -0.0000
 11 H      0.8492     1.0000     0.1508     0.9618     0.9618    -0.0000
 12 H      0.8352     1.0000     0.1648     0.9595     0.9595    -0.0000
 13 H      0.8218     1.0000     0.1782     0.9603     0.9603     0.0000
 14 H      0.8249     1.0000     0.1751     0.9572     0.9572    -0.0000
 15 H      0.8434     1.0000     0.1566     0.9620     0.9620    -0.0000

  Mayer bond orders larger than 0.100000
B(  0-C ,  1-C ) :   0.9247 B(  0-C ,  6-H ) :   0.9785 B(  0-C ,  7-H ) :   0.9756 
B(  0-C ,  8-H ) :   0.9719 B(  1-C ,  2-C ) :   0.8665 B(  1-C ,  3-C ) :   0.8725 
B(  1-C ,  9-H ) :   0.9306 B(  2-C , 10-H ) :   0.9671 B(  2-C , 11-H ) :   0.9721 
B(  2-C , 12-H ) :   0.9787 B(  3-C ,  4-O ) :   1.9511 B(  3-C ,  5-C ) :   0.9179 
B(  5-C , 13-H ) :   0.9793 B(  5-C , 14-H ) :   0.9467 B(  5-C , 15-H ) :   0.9630 


-------
TIMINGS
-------

Total SCF time: 0 days 0 hours 0 min 12 sec 

Total time                  ....      12.309 sec
Sum of individual times     ....      12.269 sec  ( 99.7%)

SCF preparation             ....       0.060 sec  (  0.5%)
Fock matrix formation       ....      11.582 sec  ( 94.1%)
  Startup                   ....       0.008 sec  (  0.1% of F)
  Split-RI-J                ....       1.972 sec  ( 17.0% of F)
  XC integration            ....       9.076 sec  ( 78.4% of F)
    Basis function eval.    ....       1.747 sec  ( 19.2% of XC)
    Density eval.           ....       2.848 sec  ( 31.4% of XC)
    XC-Functional eval.     ....       1.261 sec  ( 13.9% of XC)
    XC-Potential eval.      ....       2.901 sec  ( 32.0% of XC)
Diagonalization             ....       0.000 sec  (  0.0%)
Density matrix formation    ....       0.429 sec  (  3.5%)
Total Energy calculation    ....       0.003 sec  (  0.0%)
Population analysis         ....       0.049 sec  (  0.4%)
Orbital Transformation      ....       0.015 sec  (  0.1%)
Orbital Orthonormalization  ....       0.000 sec  (  0.0%)
DIIS solution               ....       0.099 sec  (  0.8%)
  MO trafo                  ....       0.000 sec  (  0.0 % of DIIS)
  Orb grad                  ....       0.000 sec  (  0.0 % of DIIS)
  Energy W gradient         ....       0.000 sec  (  0.0 % of DIIS)
  DIIS error                ....       0.007 sec  (  7.4 % of DIIS)
  DIIS work                 ....       0.083 sec  ( 83.7 % of DIIS)
  Form Q                    ....       0.000 sec  (  0.0 % of DIIS)
  Form QpQm                 ....       0.000 sec  (  0.0 % of DIIS)
  Exp/Cayley                ....       0.000 sec  (  0.0 % of DIIS)
  Orb update                ....       0.000 sec  (  0.0 % of DIIS)
  Wake-sleep                ....       0.001 sec  (  1.5 % of DIIS)
SOSCF solution              ....       0.032 sec  (  0.3%)
  MO trafo                  ....       0.012 sec  ( 37.5 % of SOSCF)
  Orb grad                  ....       0.000 sec  (  0.5 % of SOSCF)
  Rot update                ....       0.001 sec  (  4.5 % of SOSCF)
  Step                      ....       0.019 sec  ( 57.4 % of SOSCF)
Finished LeanSCF after  13.3 sec

Maximum memory used throughout the entire LEANSCF-calculation: 18.7 MB


-------------------------------------------------------------------------------
                          DFT DISPERSION CORRECTION                            
                                                                               
                                DFTD4 V3.4.0                                   
-------------------------------------------------------------------------------
The R2SCAN3C composite method is recognized
Using three-body term ABC
Active option DFTDOPT                   ...         5   

-------------------------   ----------------
Dispersion correction           -0.003919743
-------------------------   ----------------

------------------   -----------------
gCP correction             0.007541328
------------------   -----------------

-------------------------   --------------------
FINAL SINGLE POINT ENERGY      -271.704848165036
-------------------------   --------------------


------------------------------------------------------------------------------
                              ORCA PROPERTY CALCULATIONS
------------------------------------------------------------------------------

GBWName                                 ... sp.gbw
Number of atoms                         ...     16
Number of basis functions               ...    169
Max core memory                         ...   1024 MB

Electric properties:
Dipole moment                           ... YES
Quadrupole moment                       ...  NO
Static polarizability (Dipole/Dipole)   ...  NO
Static polarizability (Dipole/Quad.)    ...  NO
Static polarizability (Quad./Quad.)     ...  NO
Static polarizability (Velocity)        ...  NO

Atomic electric properties:
Dipole moment                           ...  NO
Quadrupole moment                       ...  NO
Static polarizability                   ...  NO

Choice of electric origin               ... Center of mass
Position of electric origin             ...     0.000018    -0.000007     0.000021

General magnetic properties:
Magnetizability                         ...  NO

EPR properties:
g-Tensor (aka g-matrix)                 ...  NO
Zero-Field splitting spin-orbit         ...  NO
Zero-field splitting spin-spin          ...  NO
Hyperfine couplings                     ...  NO (   0 nuclei)
Quadrupole couplings                    ...  NO (   0 nuclei)
Contact density                         ...  NO (   0 nuclei)

NMR properties:
Chemical shifts                         ...  NO (   0 nuclei)
Spin-rotation constants                 ...  NO (   0 nuclei)
Spin-spin couplings                     ...  NO (   0 nuclei,    0 pairs)

Choice of magnetic origin               ... GIAO
Position of magnetic origin             ...     0.000000     0.000000     0.000000

Properties with geometric perturbations:
SCF Hessian                             ...  NO
IR spectrum                             ...  NO
VCD spectrum                            ...  NO
X-ray spectroscopy properties:
SCF XES/XAS/RIXS spectra                ...  NO


-------------
DIPOLE MOMENT
-------------

Method             : SCF
Type of density    : Electron Density
Multiplicity       :   1
Irrep              :   0
Energy             :  -271.7084697497443244 Eh
Relativity type    : 
Basis              : AO
                                X                 Y                 Z
Electronic contribution:     -3.668760826       0.727768321      -3.302043324
Nuclear contribution   :      3.989810447      -1.063787656       4.323737470
                        -----------------------------------------
Total Dipole Moment    :      0.321049620      -0.336019335       1.021694147
                        -----------------------------------------
Magnitude (a.u.)       :      1.122426292
Magnitude (Debye)      :      2.852980905



--------------------
Rotational spectrum 
--------------------
 
Rotational constants in cm-1:             0.158377             0.100526             0.072831 
Rotational constants in MHz :          4748.033072          3013.687207          2183.421578 

Dipole components along the rotational axes: 
x,y,z [a.u.] :     0.243924     0.997887     0.452288 
x,y,z [Debye]:     0.620006     2.536426     1.149624 

 

Dipole moment calculation done in   0.0 sec 

Maximum memory used throughout the entire PROP-calculation: 10.5 MB

--------------------------------
SUGGESTED CITATIONS FOR THIS RUN
--------------------------------

Below you find a list of papers that are relevant to this ORCA run
We neither can nor want to force you to cite these papers, but we appreciate if you do
You receive ORCA, which is the product of decades of hard work by many enthusiastic individuals, for free
The only thing we kindly ask in return is that you cite our papers,
We deeply appreciate it, if you show your appreciation for ORCA by not just citing the generic ORCA reference.

Please note that relegating all ORCA citations to the supporting information does *not* help us.
SI sections are not indexed - citations you put there will not count into any citation statistics
But we need these citations in order to attract the funding resources that allow us to do what we are doing

Therefore, if you are a happy ORCA user, please consider citing a few of the papers listed below in the main body of your paper

In addition to the list printed below, the program has created the file sp.bibtex that contains the list in bibtex format
You can import this file easily into all common literature databanks and citation aid programs


List of essential papers. We consider these as the minimum necessary citations

  1. Neese,F.
     Software update: the ORCA program system, version 5.0
     WIRES Comput. Molec. Sci., 2022 12(1)e1606
     doi.org/10.1002/wcms.1606
  2. Grimme,S.; Hansen,A.; Ehlert,S.; Mewes,J.
     r2SCAN-3c: A 'Swiss army knife' composite electronic-structure method
     J. Chem. Phys., 2021 154 064103
     doi.org/10.1063/5.0040021

List of papers to cite with high priority. The work reported in these papers was absolutely
necessary for this run to complete.
Our perspective: the developers of density functionals and basis sets usually get cited in chemistry papers
Good! But without the algorithms to do something with them, the functionals or basis sets would not do anything.
Hence, in our opinion, the algorithm design and method developments papers are equally worthy of getting cited

  1. Neese,F.
     An improvement of the resolution of the identity approximation for the formation of the Coulomb matrix
     J. Comp. Chem., 2003 24(14)1740-1747
     doi.org/10.1002/jcc.10318
  2. Neese,F.
     The SHARK Integral Generation and Digestion System
     J. Comp. Chem., 2022  1-16
     doi.org/10.1002/jcc.26942
  3. Lehtola,S.; Steigemann,C.; Oliveira,M.; Marques,M.
     Recent developments in Libxc - A comprehensive library of functionals for density functional theory
     Software X, 2018 7 
     doi.org/10.1016/j.softx.2017.11.002
  4. Caldeweyher,E.; Bannwarth,C.; Grimme,S.
     Extension of the D3 dispersion coefficient model
     J. Chem. Phys., 2017 147 034112
     doi.org/10.1063/1.4993215
  5. Caldeweyher,E.; Ehlert,S.; Hansen,A.; Neugebauer,H.; Spicher,S.; Bannwarth,C.; Grimme,S.
     A generally applicable atomic-charge dependent London dispersion correction
     J. Chem. Phys., 2019 150 154122
     doi.org/10.1063/1.5090222
  6. Caldeweyher,E.; Mewes,J.; Ehlert,S.; Grimme,S.
     Extension and evaluation of the D4 London-dispersion model for periodic systems
     Phys. Chem. Chem. Phys., 2020 22(16)8499-8512
     doi.org/10.1039/D0CP00502A
  7. Wittmann,L.; Gordiy,I.; Friede,M.; Helmich-Paris,B.; Grimme,S.; Hansen,A.; Bursch,M.
     Extension of the D3 and D4 London Dispersion Corrections to the full Actinides Series
     Phys. Chem. Chem. Phys., 2024 26(32)21379-21394
     doi.org/https://doi.org/10.1039/D4CP01514B 

List of suggested additional citations. These are papers that are important in the 'surrounding' of 
of this run, or papers that preceded the highly important papers. If you like your results we are grateful for a citation.

  1. Neese,F.
     The ORCA program system
     WIRES Comput. Molec. Sci., 2012 2(1)73-78
     doi.org/10.1002/wcms.81
  2. Neese,F.
     Software update: the ORCA program system, version 4.0
     WIRES Comput. Molec. Sci., 2018 8(1)1-6
     doi.org/10.1002/wcms.1327
  3. Neese,F.; Wennmohs,F.; Becker,U.; Riplinger,C.
     The ORCA quantum chemistry program package
     J. Chem. Phys., 2020 152 Art. No. L224108
     doi.org/10.1063/5.0004608

List of optional additional citations

  1. Neese,F.
     Approximate second-order SCF convergence for spin unrestricted wavefunctions
     Chem. Phys. Lett., 2000 325(1-3)93-98
     doi.org/10.1016/s0009-2614(00)00662-x

Timings for individual modules:

Sum of individual times          ...       15.105 sec (=   0.252 min)
Startup calculation              ...        1.637 sec (=   0.027 min)  10.8 %
SCF iterations                   ...       13.406 sec (=   0.223 min)  88.8 %
Property calculations            ...        0.062 sec (=   0.001 min)   0.4 %
                             ****ORCA TERMINATED NORMALLY****
TOTAL RUN TIME: 0 days 0 hours 0 minutes 15 seconds 344 msec
