16
 energy: -267.844916762766 gnorm: 0.021540540298 xtb: 6.7.1 (edcfbbe)
C            0.71630494811741       -1.19189350572816        0.26431710901713
C           -0.71641763061746       -1.19189475252816       -0.26436335721715
N           -1.38691670141458       -0.00001761060001        0.22364114659910
C           -0.71635389021744        1.19187180952815       -0.26428008981711
C            0.71643530021747        1.19193396832818        0.26426552891710
N            1.38694961091459       -0.00000882760000       -0.22358738609908
H            1.24960250745373       -2.07129531831785       -0.10325860304576
H            0.68105472230179       -1.22902485684461        1.36673044490563
H           -0.68114375820183       -1.22888938564455       -1.36679306830566
H           -1.24978326395381       -2.07130938291785        0.10309337394568
H           -2.35866107904519       -0.00001320380001       -0.07148688513168
H           -0.68119096260185        1.22904420614462       -1.36670603870562
H           -1.24962758445374        2.07126800261783        0.10333803304579
H            1.24976557765380        2.07128902081784       -0.10340910064582
H            0.68126880770189        1.22912567894466        1.36668909050562
H            2.35863036414517       -0.00003612860002        0.07178030003181
16
 energy: -267.845624806109 gnorm: 0.009461510172 xtb: 6.7.1 (edcfbbe)
C            0.71699990156922       -1.20092620495994        0.26074801508238
C           -0.71704833456892       -1.20085255854033       -0.26078231378261
N           -1.39290440390655        0.00002471837700        0.22510340684608
C           -0.71703228100847        1.20091217769942       -0.26072861470969
C            0.71705684455661        1.20088209333857        0.26071830689526
N            1.39292803674364       -0.00003864372086       -0.22506509366252
H            1.24604042431910       -2.08645368901554       -0.10695334745587
H            0.67693727581117       -1.24900932916967        1.36555874655634
H           -0.67698849343649       -1.24885915873006       -1.36560384585894
H           -1.24612552429446       -2.08639455331224        0.10683190111392
H           -2.36119314439232        0.00004075092949       -0.07430464030405
H           -0.67704960190090        1.24901497933454       -1.36554697639551
H           -1.24604675153167        2.08643905075846        0.10701041179898
H            1.24609497448921        2.08637894950530       -0.10707042256281
H            0.67708258779513        1.24905284885874        1.36553334711834
H            2.36116538345781       -0.00006158691895        0.07452155456916
16
 energy: -267.845742738020 gnorm: 0.003085207627 xtb: 6.7.1 (edcfbbe)
C            0.71610220922866       -1.20453962513989        0.26153933382136
C           -0.71616375991184       -1.20449479819174       -0.26157442010101
N           -1.39547603153790        0.00002211679258        0.22542206972814
C           -0.71612563904674        1.20453628990803       -0.26152654459265
C            0.71616562180666        1.20452138973677        0.26153022074071
N            1.39548816362027       -0.00002628105958       -0.22539510443569
H            1.24411428465858       -2.09067403029214       -0.11003152331680
H            0.68092057240794       -1.25878756102021        1.36729894861999
H           -0.68097924588265       -1.25867574492284       -1.36733968311122
H           -1.24421610130129       -2.09063038783323        0.10993517716808
H           -2.36113637300583        0.00004422639226       -0.08061356661490
H           -0.68099737937600        1.25879061210135       -1.36728892403502
H           -1.24411911097199        2.09067146801429        0.11006919535106
H            1.24419003231939        2.09062523696808       -0.11009751208516
H            0.68103666129729        1.25881569013781        1.36728855317704
H            2.36111296314332       -0.00004869094653        0.08075411400315
16
 energy: -267.845765669570 gnorm: 0.001242541029 xtb: 6.7.1 (edcfbbe)
C            0.71582323638549       -1.20560164852401        0.26083607856496
C           -0.71588047957086       -1.20555830875672       -0.26086594183995
N           -1.39692967423908        0.00002808745644        0.22572619396212
C           -0.71584152656276        1.20560640914715       -0.26082877426419
C            0.71587748016154        1.20558277858047        0.26083652992822
N            1.39693345259226       -0.00002430995948       -0.22570734160434
H            1.24454138230255       -2.09051838766751       -0.11315914735174
H            0.68326929600539       -1.26156326359287        1.36620691228112
H           -0.68332738708663       -1.26146916164345       -1.36624045485912
H           -1.24463540852246       -2.09047104303778        0.11308509185577
H           -2.36060076039694        0.00005140524422       -0.08763729919677
H           -0.68332161315420        1.26156859781923       -1.36620076440385
H           -1.24454845507356        2.09052384993339        0.11318058351519
H            1.24461531872937        2.09047375040568       -0.11319088984253
H            0.68336032710982        1.26156705277872        1.36620593640219
H            2.36058167502267       -0.00004588712285        0.08772352738708
16
 energy: -267.845773926949 gnorm: 0.001045511162 xtb: 6.7.1 (edcfbbe)
C            0.71554868012772       -1.20610158154646        0.25993257846245
C           -0.71560698174108       -1.20606827570187       -0.25995658061121
N           -1.39731871245881        0.00003284451973        0.22656764083603
C           -0.71556059263541        1.20611713685244       -0.25993326393000
C            0.71559806704137        1.20608926115768        0.25994713994365
N            1.39731140077034       -0.00001812834725       -0.22656178543705
H            1.24461148133571       -2.08930055782191       -0.11696818556158
H            0.68594039793784       -1.26270542557280        1.36461710285299
H           -0.68600160440102       -1.26264264408226       -1.36464259135736
H           -1.24470539172505       -2.08925518644600        0.11692198971583
H           -2.35831483817064        0.00005554220471       -0.09656351436558
H           -0.68596125175339        1.26271707970100       -1.36461812465129
H           -1.24462206955205        2.08931624108508        0.11696832679894
H            1.24469381846931        2.08926919409412       -0.11695122837013
H            0.68600142892265        1.26268326430233        1.36463182576858
H            2.35830303204657       -0.00003884644766        0.09657879959767
16
 energy: -267.845775181033 gnorm: 0.000138239523 xtb: 6.7.1 (edcfbbe)
C            0.71577938953054       -1.20566421278300        0.25985273376109
C           -0.71583716861500       -1.20562916847238       -0.25987683395596
N           -1.39727329379217        0.00003317031784        0.22659689511886
C           -0.71579186869198        1.20567930856228       -0.25985332986094
C            0.71582871856648        1.20564975256463        0.25986638485684
N            1.39726633744418       -0.00001868292672       -0.22659276697566
H            1.24440437920714       -2.08937240079093       -0.11632553745047
H            0.68541403504080       -1.26201427061444        1.36468936575810
H           -0.68547437925809       -1.26195194962141       -1.36471523244211
H           -1.24449741591397       -2.08932564746526        0.11627875017528
H           -2.35840950197306        0.00005494638437       -0.09537277789835
H           -0.68543585220840        1.26202760576493       -1.36469056604508
H           -1.24441443655814        2.08938779555614        0.11632743492923
H            1.24448535072384        2.08933979496651       -0.11631044759789
H            0.68547501718239        1.26199355630603        1.36470356694083
H            2.35839755470361       -0.00003968401009        0.09539250711582
16
 energy: -267.845775181033 gnorm: 0.000138239523 xtb: 6.7.1 (edcfbbe)
C            0.71577938953054       -1.20566421278300        0.25985273376109
C           -0.71583716861500       -1.20562916847238       -0.25987683395596
N           -1.39727329379217        0.00003317031784        0.22659689511886
C           -0.71579186869198        1.20567930856228       -0.25985332986094
C            0.71582871856648        1.20564975256463        0.25986638485684
N            1.39726633744418       -0.00001868292672       -0.22659276697566
H            1.24440437920714       -2.08937240079093       -0.11632553745047
H            0.68541403504080       -1.26201427061444        1.36468936575810
H           -0.68547437925809       -1.26195194962141       -1.36471523244211
H           -1.24449741591397       -2.08932564746526        0.11627875017528
H           -2.35840950197306        0.00005494638437       -0.09537277789835
H           -0.68543585220840        1.26202760576493       -1.36469056604508
H           -1.24441443655814        2.08938779555614        0.11632743492923
H            1.24448535072384        2.08933979496651       -0.11631044759789
H            0.68547501718239        1.26199355630603        1.36470356694083
H            2.35839755470361       -0.00003968401009        0.09539250711582
