
                                 *****************
                                 * O   R   C   A *
                                 *****************

                                            #,                                       
                                            ###                                      
                                            ####                                     
                                            #####                                    
                                            ######                                   
                                           ########,                                 
                                     ,,################,,,,,                         
                               ,,#################################,,                 
                          ,,##########################################,,             
                       ,#########################################, ''#####,          
                    ,#############################################,,   '####,        
                  ,##################################################,,,,####,       
                ,###########''''           ''''###############################       
              ,#####''   ,,,,##########,,,,          '''####'''          '####       
            ,##' ,,,,###########################,,,                        '##       
           ' ,,###''''                  '''############,,,                           
         ,,##''                                '''############,,,,        ,,,,,,###''
      ,#''                                            '''#######################'''  
     '                                                          ''''####''''         
             ,#######,   #######,   ,#######,      ##                                
            ,#'     '#,  ##    ##  ,#'     '#,    #''#        ,####,   ,####,        
            ##       ##  ##   ,#'  ##            #'  '#       #'       #'  '#        
            ##       ##  #######   ##           ,######,      #####,   #    #        
            '#,     ,#'  ##    ##  '#,     ,#' ,#      #,     #,   #   #,  ,#        
             '#######'   ##     ##  '#######'  #'      '#     '####' # '####'        



                #########################################################
                #                        -***-                          #
                #          Department of theory and spectroscopy        #
                #                                                       #
                #                      Frank Neese                      #
                #                                                       #
                #     Directorship, Architecture, Infrastructure        #
                #                    SHARK, DRIVERS                     #
                #        Core code/Algorithms in most modules           #
                #                                                       #
                #        Max Planck Institute fuer Kohlenforschung      #
                #                Kaiser Wilhelm Platz 1                 #
                #                 D-45470 Muelheim/Ruhr                 #
                #                      Germany                          #
                #                                                       #
                #                  All rights reserved                  #
                #                        -***-                          #
                #########################################################


                         Program Version 6.0.1  -  RELEASE   -


 With contributions from (in alphabetic order):
[Max-Planck-Institut fuer Kohlenforschung]                               
  Daniel Aravena         : Magnetic Suceptibility                        
  Michael Atanasov       : Ab Initio Ligand Field Theory (pilot matlab implementation)
  Alexander A. Auer      : GIAO ZORA, VPT2 properties, NMR spectrum      
  Ute Becker             : All parallelization in ORCA, NUMFREQ, NUMCALC 
  Giovanni Bistoni       : ED, misc. LED, open-shell LED, HFLD           
  Martin Brehm           : Molecular dynamics                            
  Dmytro Bykov           : pre 5.0 version of the SCF Hessian            
  Marcos Casanova-Páez   : Triplet and SCS-CIS(D). UHF-(DLPNO)-IP/EA/STEOM-CCSD. UHF-CVS-IP/STEOM-CCSD   
  Vijay G. Chilkuri      : MRCI spin determinant printing, contributions to CSF-ICE 
  Pauline Colinet        : FMM embedding                                 
  Dipayan Datta          : RHF DLPNO-CCSD density                        
  Achintya Kumar Dutta   : EOM-CC, STEOM-CC                              
  Nicolas Foglia         : Exact transition moments, OPA infrastructure, MCD improvements    
  Dmitry Ganyushin       : Spin-Orbit,Spin-Spin,Magnetic field MRCI      
  Miquel Garcia-Rates    : C-PCM and meta-GGA Hessian, CCSD/C-PCM, Gaussian charge scheme 
  Tiago L. C. Gouveia    : GS-ROHF, GS-ROCIS                             
  Yang Guo               : DLPNO-NEVPT2, F12-NEVPT2, CIM, IAO-localization        
  Andreas Hansen         : Spin unrestricted coupled pair/coupled cluster methods 
  Ingolf Harden          : AUTO-CI MPn and infrastructure                
  Benjamin Helmich-Paris : MC-RPA, TRAH-(SCF,CASSCF), AVAS, COSX integrals, SCF dyn. polar. 
  Lee Huntington         : MR-EOM, pCC                                   
  Robert Izsak           : Overlap fitted RIJCOSX, COSX-SCS-MP3, EOM     
  Riya Kayal             : Wick's Theorem for AUTO-CI, AUTO-CI UHF-CCSDT 
  Emily Kempfer          : AUTO-CI, RHF CISDT and CCSDT                  
  Christian Kollmar      : KDIIS, OOCD, Brueckner-CCSD(T), CCSD density, CASPT2, CASPT2-K, improved NEVPT2 
  Axel Koslowski         : Symmetry handling                             
  Simone Kossmann        : meta-GGA functionals, TD-DFT gradient, OOMP2, (MP2 Hessian; deprecated post 5.0) 
  Lucas Lang             : DCDCAS                                        
  Marvin Lechner         : AUTO-CI (C++ implementation), FIC-MRCC        
  Spencer Leger          : CASSCF response                               
  Dagmar Lenk            : GEPOL surface, SMD, ORCA-2-JSON               
  Dimitrios Liakos       : Extrapolation schemes; Compound Job, initial MDCI parallelization 
  Dimitrios Manganas     : Further ROCIS development; embedding schemes. LFT, Crystal Embedding 
  Dimitrios Pantazis     : SARC Basis sets                               
  Anastasios Papadopoulos: AUTO-CI, single reference methods and gradients 
  Taras Petrenko         : pre 6.0 DFT Hessian and TD-DFT gradient, (ASA, deprecated), ECA, 1-Electron XAS/XES, NRVS 
  Peter Pinski           : DLPNO-MP2, DLPNO-MP2 Gradient                 
  Christoph Reimann      : Effective Core Potentials                     
  Marius Retegan         : Local ZFS, SOC                                
  Christoph Riplinger    : Optimizer, TS searches, QM/MM, DLPNO-CCSD(T), (RO)-DLPNO pert. Triples 
  Michael Roemelt        : Original ROCIS implementation                 
  Masaaki Saitow         : Open-shell DLPNO-CCSD energy and density      
  Barbara Sandhoefer     : DKH picture change effects                    
  Kantharuban Sivalingam : CASSCF convergence/infrastructure, NEVPT2 and variants, FIC-MRCI 
  Bernardo de Souza      : ESD, SOC TD-DFT                               
  Georgi L. Stoychev     : AutoAux, RI-MP2 NMR, DLPNO-MP2 response, X2C  
  Van Anh Tran           : RI-MP2 g-tensors                              
  Willem Van den Heuvel  : Paramagnetic NMR                              
  Zikuan Wang            : NOTCH, Electric field optimization            
  Frank Wennmohs         : Technical directorship and infrastructure     
  Hang Xu                : AUTO-CI-Response properties                   
                                                                         
[FACCTs GmbH]                                                            
  Markus Bursch, Miquel Garcia-Rates, Christoph Riplinger, Bernardo de Souza, Georgi L. Stoychev 
                                                                 
  APM, Basis sets (HGBS, AHGBS, def-TZVP (Ac-Lr), def2-XVPD (La-Lu)), CI-OPT, improved COSX, DLPNO-Multilevel,           
  DOCKER, DRACO, updates on ESD, GOAT, IRC, LR-CPCM, MBIS, meta-GGA TD-DFT gradient, ML-optimized integration grids, 
  MM, NACMEs, nearIR, NEB, NEB-TS, NL-DFT gradient (VV10), 2- and 3-layer-ONIOM, interface openCOSMO-RS, QMMM,   
  Crystal-QMMM, SF, symmetry and pop. for TD-DFT, r2SCAN hybrids, SOLVATOR                                   
                                                                         
[Other institutions]                                                     
  V. Asgeirsson          : NEB                                           
  Christoph Bannwarth    : sTDA-DFT, sTD-DFT, PBEh-3c, B97-3c, D3        
  Sebastian Ehlert       : rSCAN, r2SCAN, r2SCAN-3c, D4, dhf basis sets  
  Marvin Friede          : D4 for Fr, Ra, Ac-Lr                          
  Lars Goerigk           : TD-DFT with DH, B97 family of functionals     
  Stefan Grimme          : VdW corrections, initial TS optimization, DFT functionals, gCP, sTDA/sTD-DF 
  Waldemar Hujo          : DFT-NL                                        
  H. Jonsson             : NEB                                           
  Holger Kruse           : gCP                                           
  Marcel Mueller         : wB97X-3c, vDZP basis set                      
  Hagen Neugebauer       : wr2SCAN                                       
  Tobias Risthaus        : range-separated hybrid DFT                    
  Lukas Wittmann         : regularized MP2, r2SCAN double-hybrids, wr2SCAN        
                                                                         
We gratefully acknowledge several colleagues who have allowed us to      
interface, adapt or use parts of their codes:                            
  Ed Valeev, F. Pavosevic, A. Kumar             : LibInt (2-el integral package), F12 methods 
  Garnet Chan, S. Sharma, J. Yang, R. Olivares  : DMRG                   
  Ulf Ekstrom                                   : XCFun DFT Library      
  Mihaly Kallay                                 : mrcc  (arbitrary order and MRCC methods)
  Frank Weinhold                                : gennbo (NPA and NBO analysis)           
  Simon Mueller                                 : openCOSMO-RS                            
  Christopher J. Cramer and Donald G. Truhlar   : smd solvation model                     
  S Lehtola, MJT Oliveira, MAL Marques          : LibXC Library                           
  Liviu Ungur et al                             : ANISO software                          


 Your calculation uses the libint2 library for the computation of 2-el integrals
 For citations please refer to: http://libint.valeyev.net

 Your ORCA version has been built with support for libXC version: 6.2.2
 For citations please refer to: https://libxc.gitlab.io

 This ORCA versions uses:
   CBLAS   interface :  Fast vector & matrix operations
   LAPACKE interface :  Fast linear algebra routines
   SCALAPACK package :  Parallel linear algebra routines
   Shared memory     :  Shared parallel matrices
   BLAS/LAPACK       :  OpenBLAS 0.3.27  USE64BITINT DYNAMIC_ARCH NO_AFFINITY Zen SINGLE_THREADED
        Core in use  :  Zen
   Copyright (c) 2011-2014, The OpenBLAS Project


Your calculation utilizes the geometrical counterpoise correction gCP
Please cite in your paper:
H.Kruse, S. Grimme J.Chem.Phys., 136, (2012), 154101 
   

Your calculation utilizes the atom-pairwise dispersion correction
based on EEQ partial charges (D4)


================================================================================

----- Orbital basis set information -----
Your calculation utilizes the basis: def2-SV(P)
   F. Weigend and R. Ahlrichs, Phys. Chem. Chem. Phys. 7, 3297 (2005).

----- AuxJ basis set information -----
Your calculation utilizes the auxiliary basis: def2/J
   F. Weigend, Phys. Chem. Chem. Phys. 8, 1057 (2006).

================================================================================
                                        WARNINGS
                       Please study these warnings very carefully!
================================================================================


================================================================================
                                       INPUT FILE
================================================================================
NAME = sp.inp
|  1> ! pbe def2-sv(p) def2/J RI DEFGRID1 loosescf d4 GCP(DFT/SV(P)) printgap
|  2> %output
|  3>     printlevel normal
|  4> end
|  5> * xyz 0 1
|  6> C -3.3868399103 -0.0487298659 0.197870163
|  7> O -2.222454013 0.0717284263 -0.607086741
|  8> C -1.0459583131 -0.0105035258 0.0344652592
|  9> O -0.9656049089 -0.1769724116 1.2232748503
| 10> C 0.0964852594 0.1350937155 -0.94808445
| 11> C 0.9666372363 -1.1303206611 -0.9706050233
| 12> C 1.7686007961 -1.2937865657 0.316174941
| 13> C 2.6367475 -0.0643460675 0.5608218055
| 14> C 1.754866704 1.1751261921 0.6657273767
| 15> C 0.9526006893 1.366465706 -0.6170312549
| 16> H -3.4012607182 -1.0180734747 0.7002832842
| 17> H -4.2347792222 0.0458793258 -0.4752657348
| 18> H -3.4070073411 0.7381208864 0.9546274382
| 19> H -0.3608936917 0.2720110171 -1.9335128839
| 20> H 0.3339999176 -2.0060162531 -1.1332963932
| 21> H 1.653510268 -1.0513668167 -1.8172842823
| 22> H 1.0843894178 -1.4204167504 1.1556348863
| 23> H 2.3909338612 -2.1883952085 0.2446169173
| 24> H 3.2098541657 -0.1914333205 1.4808804373
| 25> H 3.3450712263 0.0562872766 -0.2634603018
| 26> H 1.0706637583 1.0563446244 1.5063263678
| 27> H 2.3672762478 2.0612094943 0.8461582764
| 28> H 0.3101078846 2.24587841 -0.5310650808
| 29> H 1.6389039798 1.5333515795 -1.4513197548
| 30> *
| 31> 
| 32>                          ****END OF INPUT****
================================================================================

                       ****************************
                       * Single Point Calculation *
                       ****************************

---------------------------------
CARTESIAN COORDINATES (ANGSTROEM)
---------------------------------
  C     -3.386840   -0.048730    0.197870
  O     -2.222454    0.071728   -0.607087
  C     -1.045958   -0.010504    0.034465
  O     -0.965605   -0.176972    1.223275
  C      0.096485    0.135094   -0.948084
  C      0.966637   -1.130321   -0.970605
  C      1.768601   -1.293787    0.316175
  C      2.636747   -0.064346    0.560822
  C      1.754867    1.175126    0.665727
  C      0.952601    1.366466   -0.617031
  H     -3.401261   -1.018073    0.700283
  H     -4.234779    0.045879   -0.475266
  H     -3.407007    0.738121    0.954627
  H     -0.360894    0.272011   -1.933513
  H      0.334000   -2.006016   -1.133296
  H      1.653510   -1.051367   -1.817284
  H      1.084389   -1.420417    1.155635
  H      2.390934   -2.188395    0.244617
  H      3.209854   -0.191433    1.480880
  H      3.345071    0.056287   -0.263460
  H      1.070664    1.056345    1.506326
  H      2.367276    2.061209    0.846158
  H      0.310108    2.245878   -0.531065
  H      1.638904    1.533352   -1.451320

----------------------------
CARTESIAN COORDINATES (A.U.)
----------------------------
  NO LB      ZA    FRAG     MASS         X           Y           Z
   0 C     6.0000    0    12.011   -6.400200   -0.092086    0.373920
   1 O     8.0000    0    15.999   -4.199829    0.135547   -1.147228
   2 C     6.0000    0    12.011   -1.976575   -0.019849    0.065130
   3 O     8.0000    0    15.999   -1.824729   -0.334429    2.311654
   4 C     6.0000    0    12.011    0.182331    0.255290   -1.791620
   5 C     6.0000    0    12.011    1.826680   -2.135996   -1.834178
   6 C     6.0000    0    12.011    3.342171   -2.444902    0.597484
   7 C     6.0000    0    12.011    4.982731   -0.121596    1.059800
   8 C     6.0000    0    12.011    3.316217    2.220667    1.258042
   9 C     6.0000    0    12.011    1.800154    2.582246   -1.166020
  10 H     1.0000    0     1.008   -6.427451   -1.923880    1.323344
  11 H     1.0000    0     1.008   -8.002573    0.086699   -0.898122
  12 H     1.0000    0     1.008   -6.438311    1.394846    1.803984
  13 H     1.0000    0     1.008   -0.681990    0.514026   -3.653810
  14 H     1.0000    0     1.008    0.631168   -3.790821   -2.141620
  15 H     1.0000    0     1.008    3.124682   -1.986795   -3.434170
  16 H     1.0000    0     1.008    2.049199   -2.684199    2.183833
  17 H     1.0000    0     1.008    4.518210   -4.135468    0.462259
  18 H     1.0000    0     1.008    6.065745   -0.361757    2.798458
  19 H     1.0000    0     1.008    6.321269    0.106368   -0.497868
  20 H     1.0000    0     1.008    2.023261    1.996202    2.846544
  21 H     1.0000    0     1.008    4.473504    3.895121    1.599007
  22 H     1.0000    0     1.008    0.586019    4.244095   -1.003568
  23 H     1.0000    0     1.008    3.097080    2.897615   -2.742597

--------------------------------
INTERNAL COORDINATES (ANGSTROEM)
--------------------------------
 C      0   0   0     0.000000000000     0.00000000     0.00000000
 O      1   0   0     1.420654896619     0.00000000     0.00000000
 C      2   1   0     1.342569623815   116.24926706     0.00000000
 O      3   2   1     1.203094677653   122.62798035     0.00000000
 C      3   2   1     1.513862544642   110.19830799   180.01548949
 C      5   3   2     1.535885797718   110.96668747   241.63293345
 C      6   5   3     1.525014534271   111.95467216   289.90628567
 C      7   6   5     1.524813013591   110.38688024   303.06544713
 C      8   7   6     1.524798478337   109.70426272    59.28973507
 C      9   8   7     1.525028286579   110.38787385   300.71723830
 H      1   2   3     1.091903812602   110.29231168   299.64305225
 H      1   2   3     1.086767644313   106.32935962   179.68447868
 H      1   2   3     1.091889374080   110.28783456    59.71668405
 H      5   3   2     1.094993630450   106.31385845     0.08622196
 H      6   5   3     1.092493125242   109.54280956    52.38251262
 H      6   5   3     1.093112088874   107.92950726   169.55045499
 H      7   6   5     1.090354719179   109.39516246    63.13926657
 H      7   6   5     1.092128022919   109.40105643   181.54245798
 H      8   7   6     1.091380000776   109.89784453   180.22815207
 H      8   7   6     1.093487950260   109.68254236   298.75339451
 H      9   8   7     1.090343705245   109.11185078    60.96007060
 H      9   8   7     1.092128370358   110.27755650   179.71406606
 H     10   9   8     1.092498920428   110.13201272   179.06302365
 H     10   9   8     1.093114999618   109.31992085   297.37837611

---------------------------
INTERNAL COORDINATES (A.U.)
---------------------------
 C      0   0   0     0.000000000000     0.00000000     0.00000000
 O      1   0   0     2.684648685425     0.00000000     0.00000000
 C      2   1   0     2.537088904731   116.24926706     0.00000000
 O      3   2   1     2.273519453943   122.62798035     0.00000000
 C      3   2   1     2.860785613774   110.19830799   180.01548949
 C      5   3   2     2.902403530665   110.96668747   241.63293345
 C      6   5   3     2.881859820022   111.95467216   289.90628567
 C      7   6   5     2.881479001126   110.38688024   303.06544713
 C      8   7   6     2.881451533478   109.70426272    59.28973507
 C      9   8   7     2.881885808118   110.38787385   300.71723830
 H      1   2   3     2.063399170403   110.29231168   299.64305225
 H      1   2   3     2.053693218959   106.32935962   179.68447868
 H      1   2   3     2.063371885549   110.28783456    59.71668405
 H      5   3   2     2.069238079938   106.31385845     0.08622196
 H      6   5   3     2.064512809898   109.54280956    52.38251262
 H      6   5   3     2.065682481651   107.92950726   169.55045499
 H      7   6   5     2.060471808076   109.39516246    63.13926657
 H      7   6   5     2.063822866498   109.40105643   181.54245798
 H      8   7   6     2.062409309506   109.89784453   180.22815207
 H      8   7   6     2.066392756734   109.68254236   298.75339451
 H      9   8   7     2.060450994759   109.11185078    60.96007060
 H      9   8   7     2.063823523063   110.27755650   179.71406606
 H     10   9   8     2.064523761214   110.13201272   179.06302365
 H     10   9   8     2.065687982160   109.31992085   297.37837611

---------------------
BASIS SET INFORMATION
---------------------
There are 3 groups of distinct atoms

 Group   1 Type C   : 7s4p1d contracted to 3s2p1d pattern {511/31/1}
 Group   2 Type O   : 7s4p1d contracted to 3s2p1d pattern {511/31/1}
 Group   3 Type H   : 4s contracted to 2s pattern {31}

Atom   0C    basis set group =>   1
Atom   1O    basis set group =>   2
Atom   2C    basis set group =>   1
Atom   3O    basis set group =>   2
Atom   4C    basis set group =>   1
Atom   5C    basis set group =>   1
Atom   6C    basis set group =>   1
Atom   7C    basis set group =>   1
Atom   8C    basis set group =>   1
Atom   9C    basis set group =>   1
Atom  10H    basis set group =>   3
Atom  11H    basis set group =>   3
Atom  12H    basis set group =>   3
Atom  13H    basis set group =>   3
Atom  14H    basis set group =>   3
Atom  15H    basis set group =>   3
Atom  16H    basis set group =>   3
Atom  17H    basis set group =>   3
Atom  18H    basis set group =>   3
Atom  19H    basis set group =>   3
Atom  20H    basis set group =>   3
Atom  21H    basis set group =>   3
Atom  22H    basis set group =>   3
Atom  23H    basis set group =>   3
---------------------------------
AUXILIARY/J BASIS SET INFORMATION
---------------------------------
There are 3 groups of distinct atoms

 Group   1 Type C   : 12s5p4d2f1g contracted to 6s4p3d1f1g pattern {711111/2111/211/2/1}
 Group   2 Type O   : 12s5p4d2f1g contracted to 6s4p3d1f1g pattern {711111/2111/211/2/1}
 Group   3 Type H   : 5s2p1d contracted to 3s1p1d pattern {311/2/1}

Atom   0C    basis set group =>   1
Atom   1O    basis set group =>   2
Atom   2C    basis set group =>   1
Atom   3O    basis set group =>   2
Atom   4C    basis set group =>   1
Atom   5C    basis set group =>   1
Atom   6C    basis set group =>   1
Atom   7C    basis set group =>   1
Atom   8C    basis set group =>   1
Atom   9C    basis set group =>   1
Atom  10H    basis set group =>   3
Atom  11H    basis set group =>   3
Atom  12H    basis set group =>   3
Atom  13H    basis set group =>   3
Atom  14H    basis set group =>   3
Atom  15H    basis set group =>   3
Atom  16H    basis set group =>   3
Atom  17H    basis set group =>   3
Atom  18H    basis set group =>   3
Atom  19H    basis set group =>   3
Atom  20H    basis set group =>   3
Atom  21H    basis set group =>   3
Atom  22H    basis set group =>   3
Atom  23H    basis set group =>   3
------------------------------------------------------------------------------
                             ORCA STARTUP CALCULATIONS
                           -- RI-GTO INTEGRALS CHOSEN --
------------------------------------------------------------------------------
------------------------------------------------------------------------------
                   ___                                                        
                  /   \      - P O W E R E D   B Y -                         
                 /     \                                                     
                 |  |  |   _    _      __       _____    __    __             
                 |  |  |  | |  | |    /  \     |  _  \  |  |  /  |          
                  \  \/   | |  | |   /    \    | | | |  |  | /  /          
                 / \  \   | |__| |  /  /\  \   | |_| |  |  |/  /          
                |  |  |   |  __  | /  /__\  \  |    /   |      \           
                |  |  |   | |  | | |   __   |  |    \   |  |\   \          
                \     /   | |  | | |  |  |  |  | |\  \  |  | \   \       
                 \___/    |_|  |_| |__|  |__|  |_| \__\ |__|  \__/        
                                                                              
                      - O R C A' S   B I G   F R I E N D -                    
                                      &                                       
                       - I N T E G R A L  F E E D E R -                       
                                                                              
 v1 FN, 2020, v2 2021, v3 2022-2024                                           
------------------------------------------------------------------------------


----------------------
SHARK INTEGRAL PACKAGE
----------------------

Number of atoms                             ...     24
Number of basis functions                   ...    168
Number of shells                            ...     88
Maximum angular momentum                    ...      2
Integral batch strategy                     ... SHARK/LIBINT Hybrid
RI-J (if used) integral strategy            ... SPLIT-RIJ (Revised 2003 algorithm where possible)
Printlevel                                  ...      1
Contraction scheme used                     ... SEGMENTED contraction
Prescreening option                         ... SCHWARTZ
   Thresh                                   ... 1.000e-09
   Tcut                                     ... 1.000e-10
   Tpresel                                  ... 1.000e-10 
Coulomb Range Separation                    ... NOT USED
Exchange Range Separation                   ... NOT USED
Multipole approximations                    ... NOT USED
Finite Nucleus Model                        ... NOT USED
CABS basis                                  ... NOT available
Auxiliary Coulomb fitting basis             ... AVAILABLE
   # of basis functions in Aux-J            ...    644
   # of shells in Aux-J                     ...    220
   Maximum angular momentum in Aux-J        ...      4
Auxiliary J/K fitting basis                 ... NOT available
Auxiliary Correlation fitting basis         ... NOT available
Auxiliary 'external' fitting basis          ... NOT available

Checking pre-screening integrals            ... done (  0.0 sec) Dimension = 88
Check shell pair data                       ... done (  0.0 sec)
Shell pair information
Shell pair cut-off parameter TPreSel        ...   1.0e-10
Total number of shell pairs                 ...      3916
Shell pairs after pre-screening             ...      3635
Total number of primitive shell pairs       ...     15748
Primitive shell pairs kept                  ...     10082
          la=0 lb=0:   1562 shell pairs
          la=1 lb=0:   1113 shell pairs
          la=1 lb=1:    206 shell pairs
          la=2 lb=0:    517 shell pairs
          la=2 lb=1:    190 shell pairs
          la=2 lb=2:     47 shell pairs

Calculating one electron integrals          ... done (  0.0 sec)
Calculating RI/J V-Matrix + Cholesky decomp.... done (  0.1 sec)
Calculating Nuclear repulsion               ... done (  0.0 sec) ENN=    579.044061909619 Eh

Diagonalization of the overlap matrix:
Smallest eigenvalue                        ... 1.195e-03
Time for diagonalization                   ...    0.004 sec
Threshold for overlap eigenvalues          ... 1.000e-07
Number of eigenvalues below threshold      ... 0
Time for construction of square roots      ...    0.003 sec
Total time needed                          ...    0.009 sec

-------------------
DFT GRID GENERATION
-------------------

General Integration Accuracy     IntAcc      ... 4.159
Radial Grid Type                 RadialGrid  ... OptM3 with GC (2021)
Angular Grid (max. ang.)         AngularGrid ... 3 (Lebedev-194)
Angular grid pruning method      GridPruning ... 4 (adaptive)
Weight generation scheme         WeightScheme... mBecke (2022)
Basis function cutoff            BFCut       ... 1.0000e-10
Integration weight cutoff        WCut        ... 1.0000e-14
Partially contracted basis set               ... off
Rotationally invariant grid construction     ... off
Angular grids for H and He will be reduced by one unit

Total number of grid points                  ...    51857
Total number of batches                      ...      821
Average number of points per batch           ...       63
Average number of grid points per atom       ...     2161
Initializing property integral containers    ... done (  0.0 sec)

SHARK setup successfully completed in   0.8 seconds

Maximum memory used throughout the entire STARTUP-calculation: 26.6 MB
-------------------------------------------------------------------------------
                                 ORCA GUESS
                   Start orbitals & Density for SCF / CASSCF
-------------------------------------------------------------------------------

------------
SCF SETTINGS
------------
Hamiltonian:
 Density Functional     Method          .... DFT(GTOs)
 Exchange Functional    Exchange        .... PBE
   PBE kappa parameter   XKappa         ....  0.804000
   PBE mue parameter    XMuePBE         ....  0.219520
 Correlation Functional Correlation     .... PBE
   PBE beta parameter  CBetaPBE         ....  0.066725
 LDA part of GGA corr.  LDAOpt          .... PW91-LDA
 Gradients option       PostSCFGGA      .... off
   NL short-range parameter             ....  6.400000
 RI-approximation to the Coulomb term is turned on
   Number of AuxJ basis functions       .... 644


General Settings:
 Integral files         IntName         .... sp
 Hartree-Fock type      HFTyp           .... RHF
 Total Charge           Charge          ....    0
 Multiplicity           Mult            ....    1
 Number of Electrons    NEL             ....   78
 Basis Dimension        Dim             ....  168
 Nuclear Repulsion      ENuc            ....    579.0440619096 Eh

Convergence Acceleration:
 AO-DIIS                CNVDIIS         .... on
   Start iteration      DIISMaxIt       ....    12
   Startup error        DIISStart       ....  0.200000
   # of expansion vecs  DIISMaxEq       ....     5
   Bias factor          DIISBfac        ....   1.050
   Max. coefficient     DIISMaxC        ....  10.000
 MO-DIIS                CNVKDIIS        .... off
 Trust-Rad. Augm. Hess. CNVTRAH         .... auto
   Auto Start mean grad. ratio tolernc. ....  1.125000
   Auto Start start iteration           ....    50
   Auto Start num. interpolation iter.  ....    10
   Max. Number of Micro iterations      ....    24
   Max. Number of Macro iterations      .... Maxiter - #DIIS iter
   Number of Davidson start vectors     ....     2
   Converg. threshold    (grad. norm)   ....   1.000e-04
   Grad. Scal. Fac. for Micro threshold ....   0.100
   Minimum threshold for Micro iter.    ....   1.000e-02
   NR start threshold (gradient norm)   ....   1.000e-04
   Initial trust radius                 ....   0.400
   Minimum AH scaling param. (alpha)    ....   1.000
   Maximum AH scaling param. (alpha)    .... 1000.000
   Quad. conv. algorithm                .... NR
   White noise on init. David. guess    .... on
   Maximum white noise                  ....   0.010
   Pseudo random numbers                .... off
   Inactive MOs                         .... canonical
   Orbital update algorithm             .... Taylor
   Preconditioner                       .... Diag
   Full preconditioner red. dimension   ....   250
 SOSCF                  CNVSOSCF        .... on
   Start iteration      SOSCFMaxIt      ....   150
   Startup grad/error   SOSCFStart      ....  0.003300
   Hessian update       SOSCFHessUp     .... L-BFGS
 Level Shifting         CNVShift        .... on
   Level shift para.    LevelShift      ....    0.2500
   Turn off err/grad.   ShiftErr        ....    0.0010
 Zerner damping         CNVZerner       .... off
 Static damping         CNVDamp         .... on
   Fraction old density DampFac         ....    0.7000
   Max. Damping (<1)    DampMax         ....    0.9800
   Min. Damping (>=0)   DampMin         ....    0.0000
   Turn off err/grad.   DampErr         ....    0.1000

SCF Procedure:
 Maximum # iterations   MaxIter         ....   125
 SCF integral mode      SCFMode         .... Direct
   Integral package                     .... SHARK and LIBINT hybrid scheme
 Reset frequency        DirectResetFreq ....    20
 Integral Threshold     Thresh          ....  1.000e-09 Eh
 Primitive CutOff       TCut            ....  1.000e-10 Eh

Convergence Tolerance:
 Convergence Check Mode ConvCheckMode   .... Total+1el-Energy
 Convergence forced     ConvForced      .... 0
 Energy Change          TolE            ....  1.000e-05 Eh
 1-El. energy change                    ....  1.000e-02 Eh
 Orbital Gradient       TolG            ....  1.000e-04
 Orbital Rotation angle TolX            ....  1.000e-04
 DIIS Error             TolErr          ....  5.000e-04

------------------------------
INITIAL GUESS: MODEL POTENTIAL
------------------------------
Loading Hartree-Fock densities                     ... done
Calculating cut-offs                               ... done
Initializing the effective Hamiltonian             ... done
Setting up the integral package (SHARK)            ... done
Starting the Coulomb interaction                   ... done (   0.3 sec)
Making the grid                                    ... done (   0.3 sec)
Mapping shells                                     ... done
Starting the XC term evaluation                    ... done (   0.2 sec)
  promolecular density results
     # of electrons  =     77.992318311
     EX              =    -61.409930592
     EC              =     -2.603234299
     EX+EC           =    -64.013164891
Transforming the Hamiltonian                       ... done (   0.0 sec)
Diagonalizing the Hamiltonian                      ... done (   0.0 sec)
Back transforming the eigenvectors                 ... done (   0.0 sec)
Now organizing SCF variables                       ... done
                      ------------------
                      INITIAL GUESS DONE (   0.8 sec)
                      ------------------
             **** ENERGY FILE WAS UPDATED (sp.en.tmp) ****
Finished Guess after   0.9 sec
Maximum memory used throughout the entire GUESS-calculation: 20.6 MB

-------------------------------------------------------------------------------------------
                                      ORCA LEAN-SCF
                              memory conserving SCF solver
-------------------------------------------------------------------------------------------

----------------------------------------D-I-I-S--------------------------------------------
Iteration    Energy (Eh)           Delta-E    RMSDP     MaxDP     DIISErr   Damp  Time(sec)
-------------------------------------------------------------------------------------------
               ***  Starting incremental Fock matrix formation  ***
    1    -462.5286673121227068     0.00e+00  4.16e-03  1.01e-01  2.38e-01  0.700   0.7
    2    -462.6626948884454578    -1.34e-01  2.67e-03  5.17e-02  7.20e-02  0.700   0.6
                               ***Turning on AO-DIIS***
    3    -462.7036901598039549    -4.10e-02  1.15e-03  1.39e-02  2.28e-02  0.700   0.6
    4    -462.7304807945076845    -2.68e-02  1.76e-03  1.94e-02  1.84e-02  0.000   0.6
    5    -462.7933947608121343    -6.29e-02  5.06e-04  1.05e-02  1.23e-02  0.000   0.6
    6    -462.7941636252276112    -7.69e-04  2.06e-04  2.86e-03  4.31e-03  0.000   0.6
                              *** Initializing SOSCF ***
---------------------------------------S-O-S-C-F--------------------------------------
Iteration    Energy (Eh)           Delta-E    RMSDP     MaxDP     MaxGrad    Time(sec)
--------------------------------------------------------------------------------------
    7    -462.7942591328439903    -9.55e-05  7.19e-05  9.64e-04  8.05e-04     0.6
               *** Restarting incremental Fock matrix formation ***
    8    -462.7942634083813118    -4.28e-06  5.68e-05  1.45e-03  2.22e-04     0.7
    9    -462.7942596002524169     3.81e-06  3.03e-05  1.07e-03  4.83e-04     0.7
                 **** Energy Check signals convergence ****

               *****************************************************
               *                     SUCCESS                       *
               *           SCF CONVERGED AFTER   9 CYCLES          *
               *****************************************************

             **** ENERGY FILE WAS UPDATED (sp.en.tmp) ****

----------------
TOTAL SCF ENERGY
----------------

Total Energy       :       -462.79425960025242 Eh          -12593.27203 eV

Components:
Nuclear Repulsion  :        579.04406190961913 Eh           15756.58997 eV
Electronic Energy  :      -1041.83832150987155 Eh          -28349.86201 eV
One Electron Energy:      -1777.03136335568661 Eh          -48355.48174 eV
Two Electron Energy:        735.19304184581506 Eh           20005.61973 eV

Virial components:
Potential Energy   :       -921.70627410728832 Eh          -25080.90281 eV
Kinetic Energy     :        458.91201450703591 Eh           12487.63077 eV
Virial Ratio       :          2.00845967194253

DFT components:
N(Alpha)           :       39.000205227879 electrons
N(Beta)            :       39.000205227879 electrons
N(Total)           :       78.000410455759 electrons
E(X)               :      -62.661726830517 Eh       
E(C)               :       -2.610902932426 Eh       
E(XC)              :      -65.272629762943 Eh       

---------------
SCF CONVERGENCE
---------------

  Last Energy change         ...   -3.8081e-06  Tolerance :   1.0000e-05
  Last MAX-Density change    ...    1.0688e-03  Tolerance :   1.0000e-03
  Last RMS-Density change    ...    3.0285e-05  Tolerance :   1.0000e-04
  Last DIIS Error            ...    8.0488e-04  Tolerance :   5.0000e-04
  Last Orbital Gradient      ...    4.8274e-04  Tolerance :   1.0000e-04
  Last Orbital Rotation      ...    5.0463e-04  Tolerance :   1.0000e-04


----------------
ORBITAL ENERGIES
----------------

  NO   OCC          E(Eh)            E(eV) 
   0   2.0000     -18.797297      -511.5004 
   1   2.0000     -18.740550      -509.9563 
   2   2.0000     -10.004960      -272.2488 
   3   2.0000      -9.939275      -270.4614 
   4   2.0000      -9.902681      -269.4657 
   5   2.0000      -9.888828      -269.0887 
   6   2.0000      -9.888770      -269.0871 
   7   2.0000      -9.876227      -268.7458 
   8   2.0000      -9.874166      -268.6897 
   9   2.0000      -9.874107      -268.6881 
  10   2.0000      -1.006829       -27.3972 
  11   2.0000      -0.917755       -24.9734 
  12   2.0000      -0.758748       -20.6466 
  13   2.0000      -0.690195       -18.7812 
  14   2.0000      -0.665459       -18.1081 
  15   2.0000      -0.648889       -17.6572 
  16   2.0000      -0.557135       -15.1604 
  17   2.0000      -0.540123       -14.6975 
  18   2.0000      -0.510632       -13.8950 
  19   2.0000      -0.494816       -13.4646 
  20   2.0000      -0.437372       -11.9015 
  21   2.0000      -0.436575       -11.8798 
  22   2.0000      -0.429399       -11.6846 
  23   2.0000      -0.412877       -11.2350 
  24   2.0000      -0.396187       -10.7808 
  25   2.0000      -0.388655       -10.5759 
  26   2.0000      -0.376378       -10.2418 
  27   2.0000      -0.351474        -9.5641 
  28   2.0000      -0.333992        -9.0884 
  29   2.0000      -0.333755        -9.0819 
  30   2.0000      -0.329787        -8.9740 
  31   2.0000      -0.324474        -8.8294 
  32   2.0000      -0.300066        -8.1652 
  33   2.0000      -0.298605        -8.1255 
  34   2.0000      -0.284291        -7.7359 
  35   2.0000      -0.260532        -7.0894 
  36   2.0000      -0.258286        -7.0283 
  37   2.0000      -0.257940        -7.0189 
  38   2.0000      -0.216707        -5.8969 
  39   0.0000      -0.021387        -0.5820 
  40   0.0000       0.033067         0.8998 
  41   0.0000       0.052877         1.4389 
  42   0.0000       0.065826         1.7912 
  43   0.0000       0.077560         2.1105 
  44   0.0000       0.079732         2.1696 
  45   0.0000       0.096349         2.6218 
  46   0.0000       0.101476         2.7613 
  47   0.0000       0.107815         2.9338 
  48   0.0000       0.114043         3.1033 
  49   0.0000       0.118246         3.2176 
*Only the first 10 virtual orbitals were printed.

                    ********************************
                    * MULLIKEN POPULATION ANALYSIS *
                    ********************************

-----------------------
MULLIKEN ATOMIC CHARGES
-----------------------
   0 C :   -0.112221
   1 O :   -0.240702
   2 C :    0.134915
   3 O :   -0.194092
   4 C :   -0.145438
   5 C :   -0.131667
   6 C :   -0.154250
   7 C :   -0.160566
   8 C :   -0.153118
   9 C :   -0.132275
  10 H :    0.116496
  11 H :    0.120625
  12 H :    0.116449
  13 H :    0.076920
  14 H :    0.088750
  15 H :    0.080654
  16 H :    0.103630
  17 H :    0.080834
  18 H :    0.083888
  19 H :    0.067530
  20 H :    0.103374
  21 H :    0.080764
  22 H :    0.088643
  23 H :    0.080859
Sum of atomic charges:   -0.0000000

--------------------------------
MULLIKEN REDUCED ORBITAL CHARGES
--------------------------------
  0 C s       :     3.123546  s :     3.123546
      pz      :     0.973986  p :     2.936393
      px      :     0.856434
      py      :     1.105973
      dz2     :     0.005016  d :     0.052282
      dxz     :     0.016805
      dyz     :     0.011179
      dx2y2   :     0.013364
      dxy     :     0.005917

  1 O s       :     3.737554  s :     3.737554
      pz      :     1.598774  p :     4.486669
      px      :     1.178764
      py      :     1.709132
      dz2     :     0.002574  d :     0.016479
      dxz     :     0.006718
      dyz     :     0.002054
      dx2y2   :     0.002697
      dxy     :     0.002435

  2 C s       :     3.051219  s :     3.051219
      pz      :     0.957393  p :     2.684086
      px      :     0.885279
      py      :     0.841414
      dz2     :     0.028457  d :     0.129780
      dxz     :     0.053355
      dyz     :     0.023658
      dx2y2   :     0.011227
      dxy     :     0.013083

  3 O s       :     3.745864  s :     3.745864
      pz      :     1.310940  p :     4.430259
      px      :     1.730323
      py      :     1.388995
      dz2     :     0.007856  d :     0.017970
      dxz     :     0.004083
      dyz     :     0.005663
      dx2y2   :     0.000193
      dxy     :     0.000176

  4 C s       :     3.051419  s :     3.051419
      pz      :     1.008388  p :     3.053773
      px      :     1.017203
      py      :     1.028182
      dz2     :     0.006879  d :     0.040246
      dxz     :     0.011176
      dyz     :     0.005231
      dx2y2   :     0.008802
      dxy     :     0.008158

  5 C s       :     3.030121  s :     3.030121
      pz      :     1.061603  p :     3.065093
      px      :     1.007552
      py      :     0.995938
      dz2     :     0.007747  d :     0.036453
      dxz     :     0.009993
      dyz     :     0.004220
      dx2y2   :     0.004764
      dxy     :     0.009729

  6 C s       :     3.025521  s :     3.025521
      pz      :     1.042140  p :     3.092254
      px      :     1.017586
      py      :     1.032527
      dz2     :     0.007735  d :     0.036476
      dxz     :     0.010352
      dyz     :     0.003986
      dx2y2   :     0.005099
      dxy     :     0.009304

  7 C s       :     3.039456  s :     3.039456
      pz      :     1.012563  p :     3.084225
      px      :     1.060016
      py      :     1.011646
      dz2     :     0.005391  d :     0.036885
      dxz     :     0.011874
      dyz     :     0.004207
      dx2y2   :     0.007752
      dxy     :     0.007661

  8 C s       :     3.024802  s :     3.024802
      pz      :     1.057201  p :     3.091836
      px      :     1.017772
      py      :     1.016863
      dz2     :     0.007357  d :     0.036480
      dxz     :     0.010294
      dyz     :     0.004304
      dx2y2   :     0.005200
      dxy     :     0.009325

  9 C s       :     3.030539  s :     3.030539
      pz      :     1.045439  p :     3.065290
      px      :     1.007643
      py      :     1.012208
      dz2     :     0.007900  d :     0.036446
      dxz     :     0.010070
      dyz     :     0.004241
      dx2y2   :     0.004563
      dxy     :     0.009671

 10 H s       :     0.883504  s :     0.883504

 11 H s       :     0.879375  s :     0.879375

 12 H s       :     0.883551  s :     0.883551

 13 H s       :     0.923080  s :     0.923080

 14 H s       :     0.911250  s :     0.911250

 15 H s       :     0.919346  s :     0.919346

 16 H s       :     0.896370  s :     0.896370

 17 H s       :     0.919166  s :     0.919166

 18 H s       :     0.916112  s :     0.916112

 19 H s       :     0.932470  s :     0.932470

 20 H s       :     0.896626  s :     0.896626

 21 H s       :     0.919236  s :     0.919236

 22 H s       :     0.911357  s :     0.911357

 23 H s       :     0.919141  s :     0.919141


------------------------
MULLIKEN OVERLAP CHARGES
------------------------
B(  0-C ,  1-O ) :   0.5467 B(  0-C ,  2-C ) :  -0.0702 B(  0-C , 10-H ) :   0.7667 
B(  0-C , 11-H ) :   0.7602 B(  0-C , 12-H ) :   0.7661 B(  1-O ,  2-C ) :   0.7750 
B(  1-O ,  3-O ) :  -0.1646 B(  1-O ,  4-C ) :  -0.2437 B(  1-O , 10-H ) :  -0.0601 
B(  1-O , 11-H ) :  -0.0511 B(  1-O , 12-H ) :  -0.0603 B(  2-C ,  3-O ) :   1.3073 
B(  2-C ,  4-C ) :   0.5066 B(  2-C ,  5-C ) :  -0.0685 B(  2-C ,  9-C ) :  -0.0682 
B(  3-O ,  4-C ) :  -0.2104 B(  4-C ,  5-C ) :   0.7947 B(  4-C ,  6-C ) :  -0.1146 
B(  4-C ,  8-C ) :  -0.1152 B(  4-C ,  9-C ) :   0.7922 B(  4-C , 13-H ) :   0.5639 
B(  4-C , 14-H ) :  -0.0552 B(  4-C , 22-H ) :  -0.0543 B(  5-C ,  6-C ) :   0.8439 
B(  5-C ,  7-C ) :  -0.1143 B(  5-C ,  9-C ) :  -0.1516 B(  5-C , 14-H ) :   0.6747 
B(  5-C , 15-H ) :   0.6970 B(  6-C ,  7-C ) :   0.8885 B(  6-C ,  8-C ) :  -0.1121 
B(  6-C , 15-H ) :  -0.0552 B(  6-C , 16-H ) :   0.6880 B(  6-C , 17-H ) :   0.6704 
B(  6-C , 19-H ) :  -0.0627 B(  7-C ,  8-C ) :   0.8905 B(  7-C ,  9-C ) :  -0.1132 
B(  7-C , 18-H ) :   0.6728 B(  7-C , 19-H ) :   0.7079 B(  8-C ,  9-C ) :   0.8436 
B(  8-C , 19-H ) :  -0.0629 B(  8-C , 20-H ) :   0.6871 B(  8-C , 21-H ) :   0.6712 
B(  8-C , 23-H ) :  -0.0558 B(  9-C , 22-H ) :   0.6739 B(  9-C , 23-H ) :   0.6978 
B( 10-H , 11-H ) :  -0.0509 B( 10-H , 12-H ) :  -0.0659 B( 11-H , 12-H ) :  -0.0506 
B( 14-H , 15-H ) :  -0.0608 B( 16-H , 17-H ) :  -0.0543 B( 18-H , 19-H ) :  -0.0646 
B( 20-H , 21-H ) :  -0.0543 B( 22-H , 23-H ) :  -0.0608 


                     *******************************
                     * LOEWDIN POPULATION ANALYSIS *
                     *******************************

----------------------
LOEWDIN ATOMIC CHARGES
----------------------
   0 C :   -0.209233
   1 O :   -0.075760
   2 C :    0.052020
   3 O :   -0.151289
   4 C :   -0.165508
   5 C :   -0.206511
   6 C :   -0.234638
   7 C :   -0.224143
   8 C :   -0.234570
   9 C :   -0.206542
  10 H :    0.117868
  11 H :    0.119709
  12 H :    0.117853
  13 H :    0.127001
  14 H :    0.117715
  15 H :    0.117449
  16 H :    0.124576
  17 H :    0.114602
  18 H :    0.116423
  19 H :    0.108685
  20 H :    0.124590
  21 H :    0.114534
  22 H :    0.117738
  23 H :    0.117430

-------------------------------
LOEWDIN REDUCED ORBITAL CHARGES
-------------------------------
  0 C s       :     2.963502  s :     2.963502
      pz      :     1.053693  p :     3.130196
      px      :     0.923217
      py      :     1.153286
      dz2     :     0.009256  d :     0.115535
      dxz     :     0.038154
      dyz     :     0.027397
      dx2y2   :     0.029801
      dxy     :     0.010927

  1 O s       :     3.456347  s :     3.456347
      pz      :     1.637832  p :     4.586149
      px      :     1.255852
      py      :     1.692465
      dz2     :     0.004205  d :     0.033264
      dxz     :     0.014488
      dyz     :     0.002364
      dx2y2   :     0.007606
      dxy     :     0.004600

  2 C s       :     2.850057  s :     2.850057
      pz      :     1.035852  p :     2.803057
      px      :     0.940183
      py      :     0.827023
      dz2     :     0.068852  d :     0.294866
      dxz     :     0.129400
      dyz     :     0.047117
      dx2y2   :     0.024740
      dxy     :     0.024757

  3 O s       :     3.541861  s :     3.541861
      pz      :     1.460138  p :     4.577600
      px      :     1.726247
      py      :     1.391214
      dz2     :     0.017008  d :     0.031829
      dxz     :     0.006721
      dyz     :     0.007650
      dx2y2   :     0.000227
      dxy     :     0.000223

  4 C s       :     2.882301  s :     2.882301
      pz      :     1.063135  p :     3.182244
      px      :     1.053935
      py      :     1.065174
      dz2     :     0.018698  d :     0.100963
      dxz     :     0.029042
      dyz     :     0.010609
      dx2y2   :     0.019203
      dxy     :     0.023412

  5 C s       :     2.906244  s :     2.906244
      pz      :     1.085487  p :     3.211329
      px      :     1.068367
      py      :     1.057475
      dz2     :     0.019221  d :     0.088937
      dxz     :     0.025377
      dyz     :     0.008394
      dx2y2   :     0.010935
      dxy     :     0.025010

  6 C s       :     2.903961  s :     2.903961
      pz      :     1.085695  p :     3.242081
      px      :     1.084892
      py      :     1.071495
      dz2     :     0.019506  d :     0.088596
      dxz     :     0.025582
      dyz     :     0.008087
      dx2y2   :     0.011322
      dxy     :     0.024098

  7 C s       :     2.905244  s :     2.905244
      pz      :     1.094340  p :     3.229501
      px      :     1.072994
      py      :     1.062166
      dz2     :     0.013814  d :     0.089399
      dxz     :     0.028172
      dyz     :     0.008554
      dx2y2   :     0.016419
      dxy     :     0.022439

  8 C s       :     2.903926  s :     2.903926
      pz      :     1.086477  p :     3.242047
      px      :     1.084679
      py      :     1.070890
      dz2     :     0.018736  d :     0.088598
      dxz     :     0.025688
      dyz     :     0.008691
      dx2y2   :     0.011551
      dxy     :     0.023932

  9 C s       :     2.906274  s :     2.906274
      pz      :     1.086224  p :     3.211337
      px      :     1.068922
      py      :     1.056191
      dz2     :     0.019228  d :     0.088932
      dxz     :     0.025354
      dyz     :     0.009024
      dx2y2   :     0.010272
      dxy     :     0.025054

 10 H s       :     0.882132  s :     0.882132

 11 H s       :     0.880291  s :     0.880291

 12 H s       :     0.882147  s :     0.882147

 13 H s       :     0.872999  s :     0.872999

 14 H s       :     0.882285  s :     0.882285

 15 H s       :     0.882551  s :     0.882551

 16 H s       :     0.875424  s :     0.875424

 17 H s       :     0.885398  s :     0.885398

 18 H s       :     0.883577  s :     0.883577

 19 H s       :     0.891315  s :     0.891315

 20 H s       :     0.875410  s :     0.875410

 21 H s       :     0.885466  s :     0.885466

 22 H s       :     0.882262  s :     0.882262

 23 H s       :     0.882570  s :     0.882570


---------------------------------
LOEWDIN BOND ORDERS (THRESH 0.050000)
---------------------------------
B(  0-C ,  1-O ) :   1.1211 B(  0-C ,  2-C ) :   0.0791 B(  0-C , 10-H ) :   0.9450 
B(  0-C , 11-H ) :   0.9519 B(  0-C , 12-H ) :   0.9449 B(  1-O ,  2-C ) :   1.3786 
B(  1-O ,  3-O ) :   0.2052 B(  1-O ,  4-C ) :   0.0755 B(  2-C ,  3-O ) :   2.1988 
B(  2-C ,  4-C ) :   1.0143 B(  2-C ,  5-C ) :   0.0618 B(  2-C ,  9-C ) :   0.0617 
B(  3-O ,  4-C ) :   0.0890 B(  4-C ,  5-C ) :   1.0440 B(  4-C ,  9-C ) :   1.0440 
B(  4-C , 13-H ) :   0.8630 B(  5-C ,  6-C ) :   1.0940 B(  5-C ,  7-C ) :   0.0525 
B(  5-C , 14-H ) :   0.9024 B(  5-C , 15-H ) :   0.8963 B(  6-C ,  7-C ) :   1.0942 
B(  6-C ,  8-C ) :   0.0525 B(  6-C , 16-H ) :   0.8942 B(  6-C , 17-H ) :   0.9023 
B(  7-C ,  8-C ) :   1.0942 B(  7-C ,  9-C ) :   0.0525 B(  7-C , 18-H ) :   0.9047 
B(  7-C , 19-H ) :   0.9038 B(  8-C ,  9-C ) :   1.0939 B(  8-C , 20-H ) :   0.8942 
B(  8-C , 21-H ) :   0.9023 B(  9-C , 22-H ) :   0.9024 B(  9-C , 23-H ) :   0.8963 


------------------------------------------
LOEWDIN REDUCED ORBITAL POPULATIONS PER MO
-------------------------------------------
THRESHOLD FOR PRINTING IS 0.1%%
                      0         1         2         3         4         5   
                 -18.79730 -18.74055 -10.00496  -9.93928  -9.90268  -9.88883
                   2.00000   2.00000   2.00000   2.00000   2.00000   2.00000
                  --------  --------  --------  --------  --------  --------
 0 C  s               0.0       0.0       0.0      99.7       0.0       0.0
 1 O  s              99.9       0.0       0.0       0.0       0.0       0.0
 1 O  px              0.0       0.0       0.1       0.1       0.0       0.0
 2 C  s               0.0       0.0      99.3       0.0       0.0       0.0
 3 O  s               0.0      99.9       0.0       0.0       0.0       0.0
 3 O  pz              0.0       0.0       0.3       0.0       0.0       0.0
 4 C  s               0.0       0.0       0.0       0.0      99.6       0.0
 5 C  s               0.0       0.0       0.0       0.0       0.0      99.5

                      6         7         8         9        10        11   
                  -9.88877  -9.87623  -9.87417  -9.87411  -1.00683  -0.91776
                   2.00000   2.00000   2.00000   2.00000   2.00000   2.00000
                  --------  --------  --------  --------  --------  --------
 0 C  s               0.0       0.0       0.0       0.0       4.7       2.7
 0 C  pz              0.0       0.0       0.0       0.0       1.1       1.1
 0 C  px              0.0       0.0       0.0       0.0       4.4       1.1
 0 C  dxz             0.0       0.0       0.0       0.0       0.3       0.2
 0 C  dx2y2           0.0       0.0       0.0       0.0       0.2       0.1
 1 O  s               0.0       0.0       0.0       0.0      38.2      18.8
 1 O  pz              0.0       0.0       0.0       0.0       2.7       0.3
 1 O  px              0.0       0.0       0.0       0.0       0.5       0.4
 2 C  s               0.0       0.0       0.0       0.0      19.1       4.1
 2 C  pz              0.0       0.0       0.0       0.0       0.4      19.3
 2 C  px              0.0       0.0       0.0       0.0       4.5       4.6
 2 C  py              0.0       0.0       0.0       0.0       0.0       0.4
 2 C  dz2             0.0       0.0       0.0       0.0       0.2       1.7
 2 C  dxz             0.0       0.0       0.0       0.0       0.4       0.1
 2 C  dx2y2           0.0       0.0       0.0       0.0       0.4       0.2
 3 O  s               0.0       0.0       0.0       0.0      14.0      38.6
 3 O  pz              0.0       0.0       0.0       0.0       3.0       4.0
 3 O  px              0.0       0.0       0.0       0.0       0.1       0.0
 3 O  dz2             0.0       0.0       0.0       0.0       0.1       0.2
 4 C  s               0.0       0.0       0.0       0.0       1.0       0.2
 4 C  pz              0.0       0.0       0.0       0.0       0.6       0.5
 4 C  px              0.0       0.0       0.0       0.0       1.2       0.0
 6 C  s               0.0       0.0      98.5       1.1       0.0       0.0
 7 C  s               0.0      99.6       0.0       0.0       0.0       0.0
 8 C  s               0.0       0.0       1.1      98.5       0.0       0.0
 9 C  s              99.5       0.0       0.0       0.0       0.1       0.0
10 H  s               0.0       0.0       0.0       0.0       0.6       0.2
11 H  s               0.0       0.0       0.0       0.0       0.5       0.4
12 H  s               0.0       0.0       0.0       0.0       0.6       0.2
13 H  s               0.0       0.0       0.0       0.0       0.3       0.0

                     12        13        14        15        16        17   
                  -0.75875  -0.69020  -0.66546  -0.64889  -0.55714  -0.54012
                   2.00000   2.00000   2.00000   2.00000   2.00000   2.00000
                  --------  --------  --------  --------  --------  --------
 0 C  s               0.4       9.2       0.0      19.9       6.3       0.0
 0 C  pz              0.0       0.1       0.0       0.1       1.0       0.0
 0 C  px              0.0       0.1       0.0       0.5       3.0       0.0
 0 C  dxz             0.0       0.0       0.0       0.0       0.1       0.0
 1 O  s               0.0       0.0       0.0       0.9       2.0       0.0
 1 O  pz              0.1       0.4       0.0       0.3       0.1       0.0
 1 O  px              0.8      11.6       0.0      15.1       0.4       0.0
 1 O  py              0.0       0.0       0.0       0.0       0.0       0.1
 1 O  dxz             0.0       0.1       0.0       0.2       0.0       0.0
 2 C  s               1.0       4.7       0.0       1.3       2.7       0.0
 2 C  pz              3.2       6.3       0.0       0.9       3.0       0.0
 2 C  px              2.3       1.0       0.0       3.3       4.3       0.0
 2 C  py              0.1       0.1       0.3       0.0       0.1       0.8
 2 C  dxz             0.0       0.0       0.0       0.3       0.2       0.0
 3 O  s               1.0       0.9       0.0       0.1       0.6       0.0
 3 O  pz              0.1       0.3       0.0       0.1       0.4       0.0
 3 O  px              0.1       0.0       0.0       0.1       0.3       0.0
 4 C  s              15.4       9.4       0.0       4.9       5.4       0.0
 4 C  pz              0.3       0.0       0.2       0.1       0.2       0.2
 4 C  px              1.2       1.7       0.0       2.0       6.8       0.0
 4 C  py              0.0       0.0       7.8       0.0       0.0       9.7
 4 C  dxy             0.0       0.0       0.2       0.0       0.0       0.2
 5 C  s              11.4       0.1      14.8       2.9       4.9       6.7
 5 C  pz              0.6       0.8       0.7       0.5       0.0       3.7
 5 C  px              0.0       2.2       0.3       0.7       1.7       1.9
 5 C  py              1.4       0.7       0.5       0.6       1.6       0.0
 6 C  s               8.2       5.7      12.4       1.6       0.5       9.4
 6 C  pz              0.6       0.2       1.3       0.9       2.2       2.1
 6 C  px              0.1       0.8       0.5       1.3       1.8       1.2
 6 C  py              1.1       0.9       0.2       0.5       1.5       0.6
 7 C  s               7.4      12.3       0.0       8.2       7.4       0.0
 7 C  pz              0.1       0.0       0.1       0.1       0.4       0.2
 7 C  px              1.5       0.5       0.0       0.0       1.0       0.0
 7 C  py              0.0       0.0       5.8       0.0       0.0       9.4
 7 C  dxy             0.0       0.0       0.2       0.0       0.0       0.2
 8 C  s               8.2       5.7      12.4       1.6       0.5       9.4
 8 C  pz              1.1       0.0       1.0       0.5       1.1       2.6
 8 C  px              0.1       0.8       0.5       1.4       1.8       1.2
 8 C  py              0.6       1.1       0.5       0.8       2.5       0.1
 9 C  s              11.4       0.1      14.8       2.9       4.9       6.7
 9 C  pz              0.2       1.2       1.0       0.7       0.0       3.3
 9 C  px              0.0       2.2       0.3       0.7       1.7       1.9
 9 C  py              1.8       0.3       0.2       0.3       1.7       0.4
10 H  s               0.1       1.8       0.0       4.6       2.8       0.0
11 H  s               0.1       2.2       0.0       5.8       3.0       0.0
12 H  s               0.1       1.8       0.0       4.6       2.8       0.0
13 H  s               2.5       2.6       0.0       0.8       2.1       0.0
14 H  s               1.8       0.1       3.5       0.6       1.7       3.6
15 H  s               2.0       0.0       3.0       0.7       2.3       2.6
16 H  s               1.4       1.1       2.4       0.3       0.1       3.2
17 H  s               1.2       1.1       2.8       0.4       0.3       4.4
18 H  s               1.1       2.4       0.0       2.0       3.3       0.0
19 H  s               1.3       2.4       0.0       1.7       2.1       0.0
20 H  s               1.4       1.1       2.4       0.3       0.1       3.2
21 H  s               1.2       1.1       2.8       0.4       0.3       4.4
22 H  s               1.8       0.1       3.5       0.6       1.7       3.6
23 H  s               2.0       0.0       3.1       0.7       2.3       2.6

                     18        19        20        21        22        23   
                  -0.51063  -0.49482  -0.43737  -0.43658  -0.42940  -0.41288
                   2.00000   2.00000   2.00000   2.00000   2.00000   2.00000
                  --------  --------  --------  --------  --------  --------
 0 C  s               2.8       1.6       0.1       0.0       0.0       0.3
 0 C  pz              4.3      12.5       1.8       0.5       3.4       1.5
 0 C  px              3.1       1.2       2.8       0.0       1.7      13.6
 0 C  py              0.1       0.3       0.1      22.6       0.1       0.0
 0 C  dxz             0.2       0.3       0.0       0.0       0.0       0.2
 0 C  dx2y2           0.1       0.1       0.0       0.0       0.0       0.0
 0 C  dxy             0.0       0.0       0.0       0.1       0.0       0.0
 1 O  s               1.6       2.8       0.4       0.0       0.1       1.5
 1 O  pz              0.5       5.2       6.8       0.6       1.1      15.7
 1 O  px              7.2      15.2       0.0       0.0       0.3       4.7
 1 O  py              0.0       0.1       0.3      25.8       0.0       0.3
 1 O  dxz             0.0       0.1       0.0       0.0       0.0       0.0
 2 C  s               2.1       0.3       0.2       0.0       3.2       0.4
 2 C  pz              1.5       0.1       0.6       0.4       0.3       1.9
 2 C  px              0.0      10.4       0.3       0.0       5.0       0.3
 2 C  py              0.0       0.0       0.1      17.4       0.0       0.0
 2 C  dz2             0.0       0.0       0.2       0.0       0.0       0.2
 2 C  dxz             0.0       0.0       0.0       0.0       0.0       0.4
 2 C  dxy             0.0       0.0       0.0       0.1       0.0       0.0
 3 O  s               1.3       0.2       2.4       0.0       3.7       6.3
 3 O  pz              0.6       0.1       2.8       0.1       9.9      11.1
 3 O  px              0.0       4.6       0.3       0.0       2.0       0.5
 3 O  py              0.0       0.0       0.0       7.6       0.2       0.2
 3 O  dz2             0.0       0.0       0.0       0.0       0.1       0.1
 3 O  dyz             0.0       0.0       0.0       0.1       0.0       0.0
 4 C  s               1.1       1.0       0.1       0.0       2.3       0.3
 4 C  pz              3.7       2.0       5.0       0.1      15.7       0.1
 4 C  px              2.8       0.7       7.1       0.0       0.9       0.1
 4 C  py              0.1       0.0       0.1       1.4       0.3       0.0
 4 C  dxz             0.0       0.0       0.0       0.0       0.3       0.0
 4 C  dx2y2           0.0       0.0       0.0       0.0       0.0       0.1
 5 C  s               0.1       1.2       0.2       0.3       0.5       0.1
 5 C  pz              3.5       2.6       2.7       0.6       0.5       0.1
 5 C  px              0.0       1.0       0.3       1.7       0.2       3.2
 5 C  py              2.5       0.2       8.1       0.0       2.4       1.7
 6 C  s               3.8       0.7       0.1       0.0       0.7       0.0
 6 C  pz              0.2       1.8       0.1       0.8       4.7       1.1
 6 C  px              2.1       1.1       1.3       0.2       0.1       0.0
 6 C  py              2.8       0.0       6.7       0.0       0.1       1.6
 7 C  s               6.1       0.9       0.2       0.0       0.5       0.2
 7 C  pz              0.3       0.9       1.6       0.0       4.2       5.0
 7 C  px              3.9       1.8       5.5       0.0       3.1       2.5
 8 C  s               3.8       0.7       0.1       0.0       0.7       0.0
 8 C  pz              0.8       1.8       1.2       0.7       4.6       1.9
 8 C  px              2.2       1.1       1.2       0.3       0.1       0.0
 8 C  py              2.1       0.0       5.7       0.1       0.1       0.8
 9 C  s               0.1       1.2       0.2       0.3       0.5       0.1
 9 C  pz              5.0       2.1       0.6       0.5       1.2       0.0
 9 C  px              0.0       1.0       0.4       1.6       0.2       3.3
 9 C  py              1.0       0.8       9.9       0.4       1.7       1.7
10 H  s               2.7       3.7       0.1       5.8       0.4       0.1
11 H  s               1.1       0.0       2.2       0.0       1.9       7.2
12 H  s               2.7       3.7       0.1       5.8       0.4       0.1
13 H  s               1.2       0.0       3.4       0.0       8.6       0.0
14 H  s               0.1       0.5       3.5       0.0       0.9       2.0
15 H  s               0.8       2.5       0.5       1.1       0.1       0.2
16 H  s               2.9       2.0       0.1       0.5       2.6       0.1
17 H  s               1.8       0.1       2.8       0.0       0.2       0.3
18 H  s               2.7       0.3       2.2       0.0       0.0       3.6
19 H  s               4.7       1.9       0.3       0.0       3.9       0.0
20 H  s               2.9       2.0       0.1       0.5       2.6       0.1
21 H  s               1.8       0.1       2.8       0.0       0.2       0.3
22 H  s               0.1       0.5       3.5       0.0       0.9       2.0
23 H  s               0.8       2.5       0.4       1.2       0.1       0.2

                     24        25        26        27        28        29   
                  -0.39619  -0.38866  -0.37638  -0.35147  -0.33399  -0.33375
                   2.00000   2.00000   2.00000   2.00000   2.00000   2.00000
                  --------  --------  --------  --------  --------  --------
 0 C  pz              0.3       0.6       7.4       0.2       0.6       0.0
 0 C  px              0.0       0.2       9.4       0.0       0.0       0.0
 0 C  py             13.3       0.0       0.1      11.6       0.0       0.0
 0 C  dxz             0.0       0.0       0.2       0.0       0.0       0.0
 0 C  dyz             0.1       0.0       0.0       0.2       0.0       0.0
 1 O  s               0.0       0.3       0.0       0.0       0.5       0.0
 1 O  pz              0.1       0.4       0.3       0.0       0.4       0.0
 1 O  px              0.0       1.0       0.8       0.0       0.5       0.0
 1 O  py              3.1       0.0       0.0       1.0       0.0       0.0
 1 O  dxz             0.0       0.0       0.1       0.0       0.0       0.0
 1 O  dxy             0.0       0.0       0.0       0.1       0.0       0.0
 2 C  s               0.0       0.5       0.9       0.0       0.1       0.0
 2 C  pz              0.0       1.4       3.8       0.3       0.8       0.0
 2 C  px              0.0       0.1       1.8       0.0       0.7       0.0
 2 C  py              1.6       0.0       0.1      12.8       0.0       0.0
 2 C  dz2             0.0       0.0       0.0       0.0       0.1       0.0
 2 C  dxz             0.0       0.1       0.1       0.0       0.1       0.0
 2 C  dxy             0.1       0.0       0.0       0.0       0.0       0.0
 3 O  s               0.0       1.8       4.6       0.0       0.3       0.0
 3 O  pz              0.0       7.9      18.9       0.2       1.4       0.0
 3 O  px              0.0       0.4       0.6       0.0       1.9       0.0
 3 O  py              1.5       0.1       0.4      11.8       0.0       0.1
 3 O  dz2             0.0       0.1       0.2       0.0       0.0       0.0
 3 O  dyz             0.0       0.0       0.0       0.1       0.0       0.0
 4 C  s               0.0       1.2       0.4       0.0       0.1       0.0
 4 C  pz              0.1       3.6       1.7       0.1       9.1       0.0
 4 C  px              0.0       0.4       1.9       0.0       7.4       0.0
 4 C  py              4.0       0.1       0.0       5.1       0.2       0.1
 4 C  dz2             0.0       0.1       0.0       0.0       0.2       0.0
 4 C  dxz             0.0       0.0       0.0       0.0       0.2       0.0
 4 C  dx2y2           0.0       0.1       0.0       0.0       0.0       0.0
 4 C  dxy             0.0       0.0       0.0       0.0       0.0       0.2
 5 C  s               0.1       1.2       0.1       0.0       0.1       0.5
 5 C  pz              3.8       0.0       2.3       1.8       0.2       6.4
 5 C  px              9.5       3.4       0.1       0.0       1.2       5.4
 5 C  py              0.0       2.0       0.3       5.1       5.0       5.6
 5 C  dz2             0.0       0.0       0.0       0.0       0.0       0.2
 5 C  dxz             0.0       0.0       0.0       0.0       0.2       0.0
 5 C  dxy             0.0       0.2       0.0       0.1       0.1       0.0
 6 C  s               0.0       1.3       0.0       0.0       0.2       0.4
 6 C  pz              3.4       1.4       2.8       0.0       0.1       2.9
 6 C  px              5.8       3.8       0.1       7.0       0.4       7.0
 6 C  py              0.0       4.9       0.6       1.7       4.7       7.5
 6 C  dz2             0.0       0.0       0.0       0.0       0.0       0.2
 6 C  dxy             0.0       0.1       0.0       0.0       0.2       0.0
 7 C  s               0.0       1.2       0.0       0.0       0.6       0.0
 7 C  pz              0.0       6.6       8.5       0.2      10.3       0.0
 7 C  px              0.0       0.0       2.7       0.0       7.8       0.0
 7 C  py              1.7       0.1       0.2       8.7       0.2       0.2
 7 C  dxz             0.0       0.0       0.1       0.0       0.1       0.0
 7 C  dx2y2           0.0       0.2       0.0       0.0       0.0       0.0
 7 C  dxy             0.0       0.0       0.0       0.1       0.0       0.2
 8 C  s               0.0       1.3       0.0       0.0       0.2       0.3
 8 C  pz              3.3       0.3       2.0       0.0       0.9       5.7
 8 C  px              5.8       3.8       0.1       7.0       0.4       6.9
 8 C  py              0.1       6.1       1.4       1.7       4.0       4.7
 8 C  dz2             0.0       0.0       0.0       0.0       0.0       0.2
 8 C  dxy             0.0       0.2       0.0       0.0       0.1       0.0
 9 C  s               0.1       1.2       0.1       0.0       0.1       0.5
 9 C  pz              3.5       0.3       2.6       3.7       1.2       3.1
 9 C  px              9.4       3.5       0.1       0.0       1.2       5.6
 9 C  py              0.3       1.7       0.0       3.2       3.9       8.8
 9 C  dz2             0.0       0.0       0.0       0.0       0.0       0.2
 9 C  dxz             0.0       0.1       0.0       0.0       0.1       0.0
 9 C  dxy             0.0       0.1       0.0       0.1       0.2       0.0
10 H  s               3.9       0.2       1.2       4.4       0.1       0.0
11 H  s               0.0       0.0       9.3       0.0       0.1       0.0
12 H  s               3.9       0.2       1.3       4.3       0.2       0.0
13 H  s               0.0       4.0       0.0       0.0       9.0       0.0
14 H  s               0.7       4.7       0.0       1.8       2.8       6.4
15 H  s               5.4       0.1       1.2       0.7       1.4       0.1
16 H  s               3.7       0.4       0.5       0.9       0.0       0.1
17 H  s               0.5       7.1       0.4       0.1       2.1       6.6
18 H  s               0.0       4.4       1.2       0.0       8.5       0.0
19 H  s               0.0       0.4       4.7       0.0       0.8       0.0
20 H  s               3.7       0.4       0.5       0.9       0.0       0.1
21 H  s               0.5       7.1       0.4       0.1       2.1       6.6
22 H  s               0.7       4.8       0.0       1.8       2.8       6.5
23 H  s               5.4       0.1       1.2       0.7       1.4       0.1

                     30        31        32        33        34        35   
                  -0.32979  -0.32447  -0.30007  -0.29861  -0.28429  -0.26053
                   2.00000   2.00000   2.00000   2.00000   2.00000   2.00000
                  --------  --------  --------  --------  --------  --------
 0 C  s               0.0       0.0       0.3       0.0       0.0       0.0
 0 C  pz              6.8       0.1       8.9       0.0       0.1       0.1
 0 C  px              3.5       0.0       0.3       0.0       0.1       0.0
 0 C  py              0.1       4.7       0.2       0.0       0.0       3.3
 0 C  dxz             0.2       0.0       0.1       0.0       0.0       0.0
 0 C  dyz             0.0       0.1       0.0       0.0       0.0       0.7
 0 C  dx2y2           0.3       0.0       0.4       0.0       0.0       0.0
 0 C  dxy             0.0       0.0       0.0       0.0       0.0       0.3
 1 O  s               0.6       0.0       4.6       0.0       0.1       0.0
 1 O  pz              4.8       0.1      31.8       0.0       2.7       0.8
 1 O  px              0.9       0.0       0.2       0.0       0.2       0.0
 1 O  py              0.1       2.6       0.6       0.0       0.0      39.7
 1 O  dx2y2           0.0       0.0       0.2       0.0       0.0       0.0
 2 C  s               0.4       0.0       1.4       0.0       0.1       0.0
 2 C  pz              0.3       0.1       6.2       0.0       0.2       0.0
 2 C  px              6.6       0.0       0.5       0.0       0.2       0.0
 2 C  py              0.0       7.1       0.1       0.0       0.0       0.2
 2 C  dz2             0.1       0.0       0.4       0.0       0.1       0.1
 2 C  dxz             0.1       0.0       0.4       0.0       0.3       0.0
 2 C  dyz             0.0       0.4       0.0       0.1       0.0       1.6
 2 C  dxy             0.0       0.1       0.0       0.0       0.0       0.4
 3 O  s               0.2       0.0       1.2       0.0       0.2       0.0
 3 O  pz              1.2       0.3       9.3       0.1       0.1       0.6
 3 O  px              8.0       0.0       0.1       0.0       6.8       0.0
 3 O  py              0.0      14.9       0.2       2.8       0.0      28.1
 4 C  s               1.0       0.0       0.1       0.0       0.2       0.0
 4 C  pz              0.0       0.2       1.7       0.0       0.2       0.0
 4 C  px              5.5       0.0       4.7       0.0       0.1       0.0
 4 C  py              0.0      11.6       0.0       1.6       0.0       1.6
 4 C  dxz             0.2       0.0       0.2       0.0       0.1       0.0
 4 C  dyz             0.0       0.0       0.0       0.1       0.0       0.0
 4 C  dx2y2           0.1       0.0       0.1       0.0       0.0       0.0
 4 C  dxy             0.0       0.3       0.0       0.0       0.0       0.0
 5 C  s               0.1       0.1       0.0       0.1       0.2       0.0
 5 C  pz              4.9       1.1       1.4       9.3       1.9       0.0
 5 C  px              4.2       4.6       1.0       2.3       0.0       0.0
 5 C  py              0.5       5.7       0.2       0.2       0.1       1.3
 5 C  dz2             0.1       0.0       0.0       0.2       0.1       0.0
 5 C  dxz             0.1       0.0       0.0       0.3       0.1       0.0
 5 C  dx2y2           0.1       0.0       0.1       0.0       0.0       0.0
 6 C  s               0.0       0.1       0.0       0.0       0.1       0.0
 6 C  pz              0.3       5.4       0.0      10.5       5.0       0.0
 6 C  px              0.3       0.8       1.1       3.2       4.8       0.4
 6 C  py              1.7       3.3       0.3       0.4       0.6       1.8
 6 C  dz2             0.0       0.0       0.0       0.1       0.0       0.0
 6 C  dxz             0.0       0.0       0.0       0.3       0.5       0.0
 7 C  s               0.0       0.0       0.0       0.0       0.2       0.0
 7 C  pz              0.5       0.2       0.3       0.1       9.9       0.1
 7 C  px              6.9       0.0       3.1       0.0       6.9       0.0
 7 C  py              0.0       7.7       0.0       2.6       0.2       3.4
 7 C  dxz             0.0       0.0       0.0       0.0       0.7       0.0
 7 C  dyz             0.0       0.0       0.0       0.2       0.0       0.0
 7 C  dx2y2           0.0       0.0       0.0       0.0       0.2       0.0
 7 C  dxy             0.0       0.2       0.0       0.0       0.0       0.0
 8 C  s               0.0       0.1       0.0       0.0       0.1       0.0
 8 C  pz              0.0       3.0       0.0      10.7       5.5       0.2
 8 C  px              0.3       0.9       1.2       3.2       4.9       0.4
 8 C  py              1.9       5.7       0.3       0.1       0.0       1.6
 8 C  dz2             0.0       0.0       0.0       0.1       0.1       0.0
 8 C  dxz             0.0       0.0       0.0       0.3       0.5       0.0
 8 C  dx2y2           0.1       0.0       0.0       0.0       0.1       0.0
 9 C  s               0.1       0.1       0.0       0.1       0.2       0.0
 9 C  pz              3.6       2.9       1.0       9.2       2.0       0.1
 9 C  px              4.2       4.5       1.0       2.3       0.0       0.1
 9 C  py              1.9       4.0       0.6       0.2       0.0       1.2
 9 C  dz2             0.0       0.0       0.0       0.1       0.1       0.0
 9 C  dxz             0.1       0.0       0.0       0.3       0.1       0.0
10 H  s               1.8       2.0       2.3       0.0       0.1       4.0
11 H  s               7.2       0.0       3.0       0.0       0.1       0.0
12 H  s               1.8       2.0       2.3       0.0       0.1       3.9
13 H  s               0.1       0.0       0.7       0.0       0.0       0.0
14 H  s               0.1       0.1       0.0       0.6       0.2       1.0
15 H  s               5.7       0.0       1.6       8.5       1.9       0.0
16 H  s               0.0       0.5       0.2       9.8       9.6       0.1
17 H  s               0.4       0.5       0.0       0.4       0.8       0.7
18 H  s               0.3       0.0       0.1       0.0       2.1       0.0
19 H  s               2.4       0.0       1.6       0.0      15.5       0.0
20 H  s               0.0       0.5       0.2       9.7       9.6       0.1
21 H  s               0.3       0.5       0.0       0.4       0.8       0.6
22 H  s               0.1       0.1       0.0       0.6       0.2       1.1
23 H  s               5.7       0.0       1.6       8.4       1.9       0.0

                     36        37        38        39        40        41   
                  -0.25829  -0.25794  -0.21671  -0.02139   0.03307   0.05288
                   2.00000   2.00000   2.00000   0.00000   0.00000   0.00000
                  --------  --------  --------  --------  --------  --------
 0 C  s               0.0       0.0       0.1       0.0       1.3      10.1
 0 C  pz              0.2       0.0       0.1       0.0       0.4       4.2
 0 C  px              0.2       0.0       0.9       0.0       0.6       4.7
 0 C  py              0.0       1.1       0.0       0.2       0.0       0.1
 0 C  dxz             0.0       0.0       0.0       0.0       0.1       0.2
 0 C  dyz             0.0       0.2       0.0       0.4       0.0       0.0
 0 C  dx2y2           0.0       0.0       0.0       0.0       0.0       0.5
 0 C  dxy             0.0       0.1       0.0       0.1       0.0       0.0
 1 O  s               0.3       0.0       0.3       0.0       0.3       2.4
 1 O  pz              0.6       0.2       5.8       0.2       0.1       0.3
 1 O  px              0.2       0.0       2.6       0.0       0.0       0.2
 1 O  py              0.0      10.5       0.1      10.2       0.0       0.0
[...]
 7 C  dxz             0.0       0.3       0.1       0.3       0.0       0.0
 7 C  dyz             0.3       0.8       0.0       0.6       0.0       0.0
 7 C  dx2y2           0.0       0.0       0.1       0.0       0.0       0.0
 7 C  dxy             0.0      17.2       0.0      16.9       0.0       0.0
 8 C  s               0.3       0.7       0.0       0.0       0.0       0.0
 8 C  pz              1.0       0.1       0.1       0.5       0.0       0.0
 8 C  px              1.0       0.2       0.1       1.1       0.0       0.0
 8 C  py              0.2       1.3       0.0       1.0       0.0       0.0
 8 C  dz2             8.4       0.4       0.3       5.5       0.0       0.0
 8 C  dxz             6.0       0.0       0.5       4.2       0.1       0.1
 8 C  dyz             0.4       0.5       0.1       0.3       0.0       0.0
 8 C  dx2y2           2.3       0.9       0.1       2.4       0.0       0.0
 8 C  dxy             0.1       5.4       0.3       3.6       0.0       0.0
 9 C  s               0.4       0.7       0.1       0.0       0.1       0.0
 9 C  pz              1.1       0.0       0.1       0.9       0.0       0.0
 9 C  px              0.9       0.3       0.3       0.9       0.1       0.0
 9 C  py              0.0       1.5       0.1       0.2       0.1       0.0
 9 C  dz2             4.9       1.4       1.0       3.9       0.1       0.1
 9 C  dxz             6.0       0.3       0.0       2.3       0.0       0.2
 9 C  dyz             1.3       0.5       0.2       1.3       0.1       0.1
 9 C  dx2y2           2.3       1.9       0.0       1.3       0.2       0.0
 9 C  dxy             0.9       7.2       2.4       2.9       0.3       0.0
13 H  s               0.1       0.0       0.2       0.0       0.0       0.0
14 H  s               0.1       0.2       0.0       0.0       0.0       0.0
17 H  s               0.2       0.2       0.0       0.0       0.0       0.0
18 H  s               0.3       0.0       0.1       0.0       0.0       0.0
21 H  s               0.2       0.2       0.0       0.0       0.0       0.0
22 H  s               0.1       0.2       0.0       0.0       0.0       0.0

                    162       163       164       165       166       167   
                   2.85589   3.04988   3.12412   3.31756   3.51870   3.56558
                   0.00000   0.00000   0.00000   0.00000   0.00000   0.00000
                  --------  --------  --------  --------  --------  --------
 0 C  s               0.7       0.6       0.0       1.1       0.3       0.0
 0 C  pz              0.1       0.4       0.0       0.7       0.0       0.1
 0 C  px              0.7       0.5       0.0       1.2       0.4       0.0
 0 C  dz2             1.9       0.3       0.0       0.0       0.5       0.1
 0 C  dxz             0.0       1.9       0.0       4.4       0.1       0.3
 0 C  dyz             0.0       0.1       0.4       0.0       0.0       0.0
 0 C  dx2y2           4.1       0.5       0.0       1.2       0.4       0.0
 0 C  dxy             0.0       0.0       0.2       0.1       0.0       0.0
 1 O  s               0.5       7.7       0.0       0.1       0.9       0.1
 1 O  pz              1.6       0.9       0.0       0.0       0.2       0.1
 1 O  px              0.9       0.2       0.0       2.6       3.6       0.0
 1 O  dz2            42.3       0.0       0.0       4.2       6.4       2.6
 1 O  dxz             2.1       0.4       0.2      46.4      19.0       1.9
 1 O  dyz             3.6       1.1       0.0       0.0       0.0       0.0
 1 O  dx2y2           3.5      49.2       0.0       4.2      11.4       3.0
 1 O  dxy             0.0       0.0      12.0       1.0       0.3       0.0
 2 C  s               0.2       1.2       0.0       3.2       0.6       6.2
 2 C  pz              0.2       1.1       0.0       0.2       1.0       5.9
 2 C  px              0.4       2.1       0.0       1.4       1.0       0.1
 2 C  py              0.0       0.0       0.5       0.0       0.0       0.1
 2 C  dz2             7.7       1.7       1.1       2.1       0.7       7.5
 2 C  dxz             0.0       2.2       0.0       3.0      21.4       1.5
 2 C  dyz             0.1       0.2      18.2       0.0       0.0       0.4
 2 C  dx2y2           5.2       1.1       0.4       2.3       1.4       0.1
 2 C  dxy             0.0       0.1       1.0       0.1       0.4       0.0
 3 O  s               1.5       0.4       0.0       1.5       0.3       5.8
 3 O  pz              0.6       0.4       0.0       0.5       0.1       4.1
 3 O  px              0.2       0.3       0.0       0.3       1.0       0.0
 3 O  py              0.0       0.0       1.1       0.0       0.0       0.1
 3 O  dz2             2.1       2.4       3.5       5.7       0.4      55.4
 3 O  dxz            10.3      19.4       0.0      10.0      24.7       0.0
 3 O  dyz             0.4       0.1      57.1       0.4       0.0       3.3
 3 O  dx2y2           2.5       0.7       1.2       0.4       0.0       0.1
 3 O  dxy             0.2       0.4       0.0       0.2       0.5       0.0
 4 C  s               0.1       0.3       0.0       0.2       0.2       0.1
 4 C  pz              0.2       0.0       0.0       0.1       0.1       0.2
 4 C  px              0.0       0.2       0.0       0.0       0.4       0.0
 4 C  dz2             4.0       0.3       0.0       0.4       0.2       0.3
 4 C  dxz             0.4       0.5       0.0       0.4       0.9       0.1
 4 C  dyz             0.2       0.0       0.0       0.0       0.0       0.0
 4 C  dx2y2           0.3       0.7       0.0       0.0       0.7       0.1
 4 C  dxy             0.0       0.0       1.7       0.0       0.0       0.0
 5 C  dz2             0.1       0.0       0.0       0.0       0.0       0.0
 5 C  dx2y2           0.1       0.0       0.1       0.0       0.0       0.0
 5 C  dxy             0.0       0.0       0.1       0.0       0.0       0.0
 9 C  dyz             0.1       0.0       0.1       0.0       0.0       0.0
 9 C  dx2y2           0.1       0.0       0.1       0.0       0.0       0.0



                      *****************************
                      * MAYER POPULATION ANALYSIS *
                      *****************************

  NA   - Mulliken gross atomic population
  ZA   - Total nuclear charge
  QA   - Mulliken gross atomic charge
  VA   - Mayer's total valence
  BVA  - Mayer's bonded valence
  FA   - Mayer's free valence

  ATOM       NA         ZA         QA         VA         BVA        FA
  0 C      6.1122     6.0000    -0.1122     3.8908     3.8908    -0.0000
  1 O      8.2407     8.0000    -0.2407     2.2869     2.2869    -0.0000
  2 C      5.8651     6.0000     0.1349     4.3051     4.3051    -0.0000
  3 O      8.1941     8.0000    -0.1941     2.2914     2.2914    -0.0000
  4 C      6.1454     6.0000    -0.1454     4.0242     4.0242    -0.0000
  5 C      6.1317     6.0000    -0.1317     4.1060     4.1060     0.0000
  6 C      6.1543     6.0000    -0.1543     4.1284     4.1284    -0.0000
  7 C      6.1606     6.0000    -0.1606     4.1635     4.1635    -0.0000
  8 C      6.1531     6.0000    -0.1531     4.1284     4.1284    -0.0000
  9 C      6.1323     6.0000    -0.1323     4.1061     4.1061     0.0000
 10 H      0.8835     1.0000     0.1165     0.9640     0.9640    -0.0000
 11 H      0.8794     1.0000     0.1206     0.9550     0.9550    -0.0000
 12 H      0.8836     1.0000     0.1164     0.9644     0.9644    -0.0000
 13 H      0.9231     1.0000     0.0769     0.9676     0.9676    -0.0000
 14 H      0.9113     1.0000     0.0887     0.9444     0.9444     0.0000
 15 H      0.9193     1.0000     0.0807     0.9535     0.9535    -0.0000
 16 H      0.8964     1.0000     0.1036     0.9785     0.9785    -0.0000
 17 H      0.9192     1.0000     0.0808     0.9432     0.9432     0.0000
 18 H      0.9161     1.0000     0.0839     0.9441     0.9441    -0.0000
 19 H      0.9325     1.0000     0.0675     0.9524     0.9524    -0.0000
 20 H      0.8966     1.0000     0.1034     0.9787     0.9787    -0.0000
 21 H      0.9192     1.0000     0.0808     0.9432     0.9432    -0.0000
 22 H      0.9114     1.0000     0.0886     0.9444     0.9444    -0.0000
 23 H      0.9191     1.0000     0.0809     0.9534     0.9534     0.0000

  Mayer bond orders larger than 0.100000
B(  0-C ,  1-O ) :   0.9489 B(  0-C , 10-H ) :   0.9513 B(  0-C , 11-H ) :   0.9590 
B(  0-C , 12-H ) :   0.9511 B(  1-O ,  2-C ) :   1.2137 B(  2-C ,  3-O ) :   2.0200 
B(  2-C ,  4-C ) :   0.9476 B(  4-C ,  5-C ) :   1.0777 B(  4-C ,  9-C ) :   1.0773 
B(  4-C , 13-H ) :   0.8766 B(  5-C ,  6-C ) :   1.1292 B(  5-C , 14-H ) :   0.9196 
B(  5-C , 15-H ) :   0.9125 B(  6-C ,  7-C ) :   1.1340 B(  6-C , 16-H ) :   0.9016 
B(  6-C , 17-H ) :   0.9164 B(  7-C ,  8-C ) :   1.1346 B(  7-C , 18-H ) :   0.9188 
B(  7-C , 19-H ) :   0.9179 B(  8-C ,  9-C ) :   1.1292 B(  8-C , 20-H ) :   0.9013 
B(  8-C , 21-H ) :   0.9166 B(  9-C , 22-H ) :   0.9194 B(  9-C , 23-H ) :   0.9127 


-------
TIMINGS
-------

Total SCF time: 0 days 0 hours 0 min 5 sec 

Total time                  ....       5.876 sec
Sum of individual times     ....       5.836 sec  ( 99.3%)

SCF preparation             ....       0.062 sec  (  1.1%)
Fock matrix formation       ....       5.581 sec  ( 95.0%)
  Startup                   ....       0.007 sec  (  0.1% of F)
  Split-RI-J                ....       2.790 sec  ( 50.0% of F)
  XC integration            ....       2.700 sec  ( 48.4% of F)
    Basis function eval.    ....       1.132 sec  ( 41.9% of XC)
    Density eval.           ....       0.582 sec  ( 21.6% of XC)
    XC-Functional eval.     ....       0.172 sec  (  6.4% of XC)
    XC-Potential eval.      ....       0.628 sec  ( 23.3% of XC)
Diagonalization             ....       0.000 sec  (  0.0%)
Density matrix formation    ....       0.030 sec  (  0.5%)
Total Energy calculation    ....       0.002 sec  (  0.0%)
Population analysis         ....       0.053 sec  (  0.9%)
Orbital Transformation      ....       0.014 sec  (  0.2%)
Orbital Orthonormalization  ....       0.000 sec  (  0.0%)
DIIS solution               ....       0.076 sec  (  1.3%)
  MO trafo                  ....       0.000 sec  (  0.0 % of DIIS)
  Orb grad                  ....       0.000 sec  (  0.0 % of DIIS)
  Energy W gradient         ....       0.000 sec  (  0.0 % of DIIS)
  DIIS error                ....       0.005 sec  (  6.6 % of DIIS)
  DIIS work                 ....       0.061 sec  ( 81.2 % of DIIS)
  Form Q                    ....       0.000 sec  (  0.0 % of DIIS)
  Form QpQm                 ....       0.000 sec  (  0.0 % of DIIS)
  Exp/Cayley                ....       0.000 sec  (  0.0 % of DIIS)
  Orb update                ....       0.000 sec  (  0.0 % of DIIS)
  Wake-sleep                ....       0.002 sec  (  2.7 % of DIIS)
SOSCF solution              ....       0.018 sec  (  0.3%)
  MO trafo                  ....       0.011 sec  ( 60.3 % of SOSCF)
  Orb grad                  ....       0.000 sec  (  1.1 % of SOSCF)
  Rot update                ....       0.001 sec  (  8.0 % of SOSCF)
  Step                      ....       0.005 sec  ( 30.4 % of SOSCF)
Finished LeanSCF after   5.9 sec

Maximum memory used throughout the entire LEANSCF-calculation: 17.1 MB


-------------------------------------------------------------------------------
                          DFT DISPERSION CORRECTION                            
                                                                               
                                DFTD4 V3.4.0                                   
-------------------------------------------------------------------------------
The PBE functional is recognized
Active option DFTDOPT                   ...         5   

-------------------------   ----------------
Dispersion correction           -0.023589406
-------------------------   ----------------

------------------   -----------------
gCP correction             0.111855955
------------------   -----------------

-------------------------   --------------------
FINAL SINGLE POINT ENERGY      -462.705993051099
-------------------------   --------------------


------------------------------------------------------------------------------
                              ORCA PROPERTY CALCULATIONS
------------------------------------------------------------------------------

GBWName                                 ... sp.gbw
Number of atoms                         ...     24
Number of basis functions               ...    168
Max core memory                         ...   1024 MB

Electric properties:
Dipole moment                           ... YES
Quadrupole moment                       ...  NO
Static polarizability (Dipole/Dipole)   ...  NO
Static polarizability (Dipole/Quad.)    ...  NO
Static polarizability (Quad./Quad.)     ...  NO
Static polarizability (Velocity)        ...  NO

Atomic electric properties:
Dipole moment                           ...  NO
Quadrupole moment                       ...  NO
Static polarizability                   ...  NO

Choice of electric origin               ... Center of mass
Position of electric origin             ...     0.000025     0.000001    -0.000004

General magnetic properties:
Magnetizability                         ...  NO

EPR properties:
g-Tensor (aka g-matrix)                 ...  NO
Zero-Field splitting spin-orbit         ...  NO
Zero-field splitting spin-spin          ...  NO
Hyperfine couplings                     ...  NO (   0 nuclei)
Quadrupole couplings                    ...  NO (   0 nuclei)
Contact density                         ...  NO (   0 nuclei)

NMR properties:
Chemical shifts                         ...  NO (   0 nuclei)
Spin-rotation constants                 ...  NO (   0 nuclei)
Spin-spin couplings                     ...  NO (   0 nuclei,    0 pairs)

Choice of magnetic origin               ... GIAO
Position of magnetic origin             ...     0.000000     0.000000     0.000000

Properties with geometric perturbations:
SCF Hessian                             ...  NO
IR spectrum                             ...  NO
VCD spectrum                            ...  NO
X-ray spectroscopy properties:
SCF XES/XAS/RIXS spectra                ...  NO


-------------
DIPOLE MOMENT
-------------

Method             : SCF
Type of density    : Electron Density
Multiplicity       :   1
Irrep              :   0
Energy             :  -462.7942596002524169 Eh
Relativity type    : 
Basis              : AO
                                X                 Y                 Z
Electronic contribution:     -5.926917357      -0.061622928       0.203542618
Nuclear contribution   :      5.582457903       0.123573095      -0.663226853
                        -----------------------------------------
Total Dipole Moment    :     -0.344459454       0.061950167      -0.459684234
                        -----------------------------------------
Magnitude (a.u.)       :      0.577754043
Magnitude (Debye)      :      1.468534070



--------------------
Rotational spectrum 
--------------------
 
Rotational constants in cm-1:             0.089695             0.028384             0.027611 
Rotational constants in MHz :          2688.987718           850.920086           827.744771 

Dipole components along the rotational axes: 
x,y,z [a.u.] :    -0.359189     0.001981    -0.452525 
x,y,z [Debye]:    -0.912986     0.005036    -1.150228 

 

Dipole moment calculation done in   0.0 sec 

Maximum memory used throughout the entire PROP-calculation: 11.0 MB

--------------------------------
SUGGESTED CITATIONS FOR THIS RUN
--------------------------------

Below you find a list of papers that are relevant to this ORCA run
We neither can nor want to force you to cite these papers, but we appreciate if you do
You receive ORCA, which is the product of decades of hard work by many enthusiastic individuals, for free
The only thing we kindly ask in return is that you cite our papers,
We deeply appreciate it, if you show your appreciation for ORCA by not just citing the generic ORCA reference.

Please note that relegating all ORCA citations to the supporting information does *not* help us.
SI sections are not indexed - citations you put there will not count into any citation statistics
But we need these citations in order to attract the funding resources that allow us to do what we are doing

Therefore, if you are a happy ORCA user, please consider citing a few of the papers listed below in the main body of your paper

In addition to the list printed below, the program has created the file sp.bibtex that contains the list in bibtex format
You can import this file easily into all common literature databanks and citation aid programs


List of essential papers. We consider these as the minimum necessary citations

  1. Neese,F.
     Software update: the ORCA program system, version 5.0
     WIRES Comput. Molec. Sci., 2022 12(1)e1606
     doi.org/10.1002/wcms.1606

List of papers to cite with high priority. The work reported in these papers was absolutely
necessary for this run to complete.
Our perspective: the developers of density functionals and basis sets usually get cited in chemistry papers
Good! But without the algorithms to do something with them, the functionals or basis sets would not do anything.
Hence, in our opinion, the algorithm design and method developments papers are equally worthy of getting cited

  1. Neese,F.
     An improvement of the resolution of the identity approximation for the formation of the Coulomb matrix
     J. Comp. Chem., 2003 24(14)1740-1747
     doi.org/10.1002/jcc.10318
  2. Neese,F.
     The SHARK Integral Generation and Digestion System
     J. Comp. Chem., 2022  1-16
     doi.org/10.1002/jcc.26942
  3. Caldeweyher,E.; Bannwarth,C.; Grimme,S.
     Extension of the D3 dispersion coefficient model
     J. Chem. Phys., 2017 147 034112
     doi.org/10.1063/1.4993215
  4. Caldeweyher,E.; Ehlert,S.; Hansen,A.; Neugebauer,H.; Spicher,S.; Bannwarth,C.; Grimme,S.
     A generally applicable atomic-charge dependent London dispersion correction
     J. Chem. Phys., 2019 150 154122
     doi.org/10.1063/1.5090222
  5. Caldeweyher,E.; Mewes,J.; Ehlert,S.; Grimme,S.
     Extension and evaluation of the D4 London-dispersion model for periodic systems
     Phys. Chem. Chem. Phys., 2020 22(16)8499-8512
     doi.org/10.1039/D0CP00502A
  6. Wittmann,L.; Gordiy,I.; Friede,M.; Helmich-Paris,B.; Grimme,S.; Hansen,A.; Bursch,M.
     Extension of the D3 and D4 London Dispersion Corrections to the full Actinides Series
     Phys. Chem. Chem. Phys., 2024 26(32)21379-21394
     doi.org/https://doi.org/10.1039/D4CP01514B 

List of suggested additional citations. These are papers that are important in the 'surrounding' of 
of this run, or papers that preceded the highly important papers. If you like your results we are grateful for a citation.

  1. Neese,F.
     The ORCA program system
     WIRES Comput. Molec. Sci., 2012 2(1)73-78
     doi.org/10.1002/wcms.81
  2. Neese,F.
     Software update: the ORCA program system, version 4.0
     WIRES Comput. Molec. Sci., 2018 8(1)1-6
     doi.org/10.1002/wcms.1327
  3. Neese,F.; Wennmohs,F.; Becker,U.; Riplinger,C.
     The ORCA quantum chemistry program package
     J. Chem. Phys., 2020 152 Art. No. L224108
     doi.org/10.1063/5.0004608

List of optional additional citations

  1. Neese,F.
     Approximate second-order SCF convergence for spin unrestricted wavefunctions
     Chem. Phys. Lett., 2000 325(1-3)93-98
     doi.org/10.1016/s0009-2614(00)00662-x

Timings for individual modules:

Sum of individual times          ...        7.982 sec (=   0.133 min)
Startup calculation              ...        1.090 sec (=   0.018 min)  13.7 %
SCF iterations                   ...        6.809 sec (=   0.113 min)  85.3 %
Property calculations            ...        0.083 sec (=   0.001 min)   1.0 %
                             ****ORCA TERMINATED NORMALLY****
TOTAL RUN TIME: 0 days 0 hours 0 minutes 8 seconds 507 msec
