
                                 *****************
                                 * O   R   C   A *
                                 *****************

                                            #,                                       
                                            ###                                      
                                            ####                                     
                                            #####                                    
                                            ######                                   
                                           ########,                                 
                                     ,,################,,,,,                         
                               ,,#################################,,                 
                          ,,##########################################,,             
                       ,#########################################, ''#####,          
                    ,#############################################,,   '####,        
                  ,##################################################,,,,####,       
                ,###########''''           ''''###############################       
              ,#####''   ,,,,##########,,,,          '''####'''          '####       
            ,##' ,,,,###########################,,,                        '##       
           ' ,,###''''                  '''############,,,                           
         ,,##''                                '''############,,,,        ,,,,,,###''
      ,#''                                            '''#######################'''  
     '                                                          ''''####''''         
             ,#######,   #######,   ,#######,      ##                                
            ,#'     '#,  ##    ##  ,#'     '#,    #''#        ,####,   ,####,        
            ##       ##  ##   ,#'  ##            #'  '#       #'       #'  '#        
            ##       ##  #######   ##           ,######,      #####,   #    #        
            '#,     ,#'  ##    ##  '#,     ,#' ,#      #,     #,   #   #,  ,#        
             '#######'   ##     ##  '#######'  #'      '#     '####' # '####'        



                #########################################################
                #                        -***-                          #
                #          Department of theory and spectroscopy        #
                #                                                       #
                #                      Frank Neese                      #
                #                                                       #
                #     Directorship, Architecture, Infrastructure        #
                #                    SHARK, DRIVERS                     #
                #        Core code/Algorithms in most modules           #
                #                                                       #
                #        Max Planck Institute fuer Kohlenforschung      #
                #                Kaiser Wilhelm Platz 1                 #
                #                 D-45470 Muelheim/Ruhr                 #
                #                      Germany                          #
                #                                                       #
                #                  All rights reserved                  #
                #                        -***-                          #
                #########################################################


                         Program Version 6.0.1  -  RELEASE   -


 With contributions from (in alphabetic order):
[Max-Planck-Institut fuer Kohlenforschung]                               
  Daniel Aravena         : Magnetic Suceptibility                        
  Michael Atanasov       : Ab Initio Ligand Field Theory (pilot matlab implementation)
  Alexander A. Auer      : GIAO ZORA, VPT2 properties, NMR spectrum      
  Ute Becker             : All parallelization in ORCA, NUMFREQ, NUMCALC 
  Giovanni Bistoni       : ED, misc. LED, open-shell LED, HFLD           
  Martin Brehm           : Molecular dynamics                            
  Dmytro Bykov           : pre 5.0 version of the SCF Hessian            
  Marcos Casanova-Páez   : Triplet and SCS-CIS(D). UHF-(DLPNO)-IP/EA/STEOM-CCSD. UHF-CVS-IP/STEOM-CCSD   
  Vijay G. Chilkuri      : MRCI spin determinant printing, contributions to CSF-ICE 
  Pauline Colinet        : FMM embedding                                 
  Dipayan Datta          : RHF DLPNO-CCSD density                        
  Achintya Kumar Dutta   : EOM-CC, STEOM-CC                              
  Nicolas Foglia         : Exact transition moments, OPA infrastructure, MCD improvements    
  Dmitry Ganyushin       : Spin-Orbit,Spin-Spin,Magnetic field MRCI      
  Miquel Garcia-Rates    : C-PCM and meta-GGA Hessian, CCSD/C-PCM, Gaussian charge scheme 
  Tiago L. C. Gouveia    : GS-ROHF, GS-ROCIS                             
  Yang Guo               : DLPNO-NEVPT2, F12-NEVPT2, CIM, IAO-localization        
  Andreas Hansen         : Spin unrestricted coupled pair/coupled cluster methods 
  Ingolf Harden          : AUTO-CI MPn and infrastructure                
  Benjamin Helmich-Paris : MC-RPA, TRAH-(SCF,CASSCF), AVAS, COSX integrals, SCF dyn. polar. 
  Lee Huntington         : MR-EOM, pCC                                   
  Robert Izsak           : Overlap fitted RIJCOSX, COSX-SCS-MP3, EOM     
  Riya Kayal             : Wick's Theorem for AUTO-CI, AUTO-CI UHF-CCSDT 
  Emily Kempfer          : AUTO-CI, RHF CISDT and CCSDT                  
  Christian Kollmar      : KDIIS, OOCD, Brueckner-CCSD(T), CCSD density, CASPT2, CASPT2-K, improved NEVPT2 
  Axel Koslowski         : Symmetry handling                             
  Simone Kossmann        : meta-GGA functionals, TD-DFT gradient, OOMP2, (MP2 Hessian; deprecated post 5.0) 
  Lucas Lang             : DCDCAS                                        
  Marvin Lechner         : AUTO-CI (C++ implementation), FIC-MRCC        
  Spencer Leger          : CASSCF response                               
  Dagmar Lenk            : GEPOL surface, SMD, ORCA-2-JSON               
  Dimitrios Liakos       : Extrapolation schemes; Compound Job, initial MDCI parallelization 
  Dimitrios Manganas     : Further ROCIS development; embedding schemes. LFT, Crystal Embedding 
  Dimitrios Pantazis     : SARC Basis sets                               
  Anastasios Papadopoulos: AUTO-CI, single reference methods and gradients 
  Taras Petrenko         : pre 6.0 DFT Hessian and TD-DFT gradient, (ASA, deprecated), ECA, 1-Electron XAS/XES, NRVS 
  Peter Pinski           : DLPNO-MP2, DLPNO-MP2 Gradient                 
  Christoph Reimann      : Effective Core Potentials                     
  Marius Retegan         : Local ZFS, SOC                                
  Christoph Riplinger    : Optimizer, TS searches, QM/MM, DLPNO-CCSD(T), (RO)-DLPNO pert. Triples 
  Michael Roemelt        : Original ROCIS implementation                 
  Masaaki Saitow         : Open-shell DLPNO-CCSD energy and density      
  Barbara Sandhoefer     : DKH picture change effects                    
  Kantharuban Sivalingam : CASSCF convergence/infrastructure, NEVPT2 and variants, FIC-MRCI 
  Bernardo de Souza      : ESD, SOC TD-DFT                               
  Georgi L. Stoychev     : AutoAux, RI-MP2 NMR, DLPNO-MP2 response, X2C  
  Van Anh Tran           : RI-MP2 g-tensors                              
  Willem Van den Heuvel  : Paramagnetic NMR                              
  Zikuan Wang            : NOTCH, Electric field optimization            
  Frank Wennmohs         : Technical directorship and infrastructure     
  Hang Xu                : AUTO-CI-Response properties                   
                                                                         
[FACCTs GmbH]                                                            
  Markus Bursch, Miquel Garcia-Rates, Christoph Riplinger, Bernardo de Souza, Georgi L. Stoychev 
                                                                 
  APM, Basis sets (HGBS, AHGBS, def-TZVP (Ac-Lr), def2-XVPD (La-Lu)), CI-OPT, improved COSX, DLPNO-Multilevel,           
  DOCKER, DRACO, updates on ESD, GOAT, IRC, LR-CPCM, MBIS, meta-GGA TD-DFT gradient, ML-optimized integration grids, 
  MM, NACMEs, nearIR, NEB, NEB-TS, NL-DFT gradient (VV10), 2- and 3-layer-ONIOM, interface openCOSMO-RS, QMMM,   
  Crystal-QMMM, SF, symmetry and pop. for TD-DFT, r2SCAN hybrids, SOLVATOR                                   
                                                                         
[Other institutions]                                                     
  V. Asgeirsson          : NEB                                           
  Christoph Bannwarth    : sTDA-DFT, sTD-DFT, PBEh-3c, B97-3c, D3        
  Sebastian Ehlert       : rSCAN, r2SCAN, r2SCAN-3c, D4, dhf basis sets  
  Marvin Friede          : D4 for Fr, Ra, Ac-Lr                          
  Lars Goerigk           : TD-DFT with DH, B97 family of functionals     
  Stefan Grimme          : VdW corrections, initial TS optimization, DFT functionals, gCP, sTDA/sTD-DF 
  Waldemar Hujo          : DFT-NL                                        
  H. Jonsson             : NEB                                           
  Holger Kruse           : gCP                                           
  Marcel Mueller         : wB97X-3c, vDZP basis set                      
  Hagen Neugebauer       : wr2SCAN                                       
  Tobias Risthaus        : range-separated hybrid DFT                    
  Lukas Wittmann         : regularized MP2, r2SCAN double-hybrids, wr2SCAN        
                                                                         
We gratefully acknowledge several colleagues who have allowed us to      
interface, adapt or use parts of their codes:                            
  Ed Valeev, F. Pavosevic, A. Kumar             : LibInt (2-el integral package), F12 methods 
  Garnet Chan, S. Sharma, J. Yang, R. Olivares  : DMRG                   
  Ulf Ekstrom                                   : XCFun DFT Library      
  Mihaly Kallay                                 : mrcc  (arbitrary order and MRCC methods)
  Frank Weinhold                                : gennbo (NPA and NBO analysis)           
  Simon Mueller                                 : openCOSMO-RS                            
  Christopher J. Cramer and Donald G. Truhlar   : smd solvation model                     
  S Lehtola, MJT Oliveira, MAL Marques          : LibXC Library                           
  Liviu Ungur et al                             : ANISO software                          


 Your calculation uses the libint2 library for the computation of 2-el integrals
 For citations please refer to: http://libint.valeyev.net

 Your ORCA version has been built with support for libXC version: 6.2.2
 For citations please refer to: https://libxc.gitlab.io

 This ORCA versions uses:
   CBLAS   interface :  Fast vector & matrix operations
   LAPACKE interface :  Fast linear algebra routines
   SCALAPACK package :  Parallel linear algebra routines
   Shared memory     :  Shared parallel matrices
   BLAS/LAPACK       :  OpenBLAS 0.3.27  USE64BITINT DYNAMIC_ARCH NO_AFFINITY Zen SINGLE_THREADED
        Core in use  :  Zen
   Copyright (c) 2011-2014, The OpenBLAS Project


Your calculation utilizes the geometrical counterpoise correction gCP
Please cite in your paper:
H.Kruse, S. Grimme J.Chem.Phys., 136, (2012), 154101 
   

Your calculation utilizes the atom-pairwise dispersion correction
based on EEQ partial charges (D4)


================================================================================

----- Orbital basis set information -----
Your calculation utilizes the basis: def2-mTZVPP
   Stefan Grimme, Andreas Hansen, Sebastian Ehlert, and Jan-Michael Mewes 
   J. Chem. Phys. 154, 064103 (2021). DOI: 10.1063/5.0040021

----- AuxJ basis set information -----
Your calculation utilizes the auxiliary basis: def2/J
   F. Weigend, Phys. Chem. Chem. Phys. 8, 1057 (2006).

================================================================================
                                        WARNINGS
                       Please study these warnings very carefully!
================================================================================



WARNING: SCAN, rSCAN, or r2SCAN functional requested.
  ===> : libXC variant has now been activated.



================================================================================
                                       INPUT FILE
================================================================================
NAME = sp.inp
|  1> ! r2scan-3c def2/J RI DEFGRID2 scfconv6 printgap
|  2> %output
|  3>     printlevel normal
|  4> end
|  5> * xyz 0 1
|  6> C -1.5027946405 1.1831862526 -0.568547169
|  7> C -0.8037213824 0.16648726 0.0740363495
|  8> C -1.5070801332 -0.8432365649 0.7220712761
|  9> C -2.8919109271 -0.8407355738 0.7166072365
| 10> C -3.6004157313 0.167044825 0.0624600772
| 11> C -2.8875420129 1.1799250238 -0.5782818365
| 12> Cl -3.7343153409 2.4367033343 -1.3879369585
| 13> Cl -5.315355467 0.1628770356 0.0498110666
| 14> Cl -3.7450781101 -2.091876396 1.5269310905
| 15> C 0.6705539669 0.1862072925 0.0784808999
| 16> C 1.3370667059 1.3387320457 0.4810037451
| 17> C 2.7201277264 1.3932488503 0.5048286133
| 18> C 3.4736949966 0.2865282694 0.1147615704
| 19> C 2.8173565661 -0.8698761875 -0.3058692968
| 20> C 1.4237946319 -0.9196019001 -0.3227348679
| 21> Cl 0.653900946 -2.3429130378 -0.9012004167
| 22> Cl 3.7329950829 -2.2292773514 -0.8067769017
| 23> Cl 5.1852229968 0.3423383923 0.1429668671
| 24> Cl 3.5107735008 2.8273531451 1.017205809
| 25> H -0.9709146805 1.9687365427 -1.0806856664
| 26> H -0.9839130964 -1.625151228 1.2475818995
| 27> H 0.7673558269 2.1978778134 0.7965337905
| 28> *
| 29> 
| 30>                          ****END OF INPUT****
================================================================================

                       ****************************
                       * Single Point Calculation *
                       ****************************

---------------------------------
CARTESIAN COORDINATES (ANGSTROEM)
---------------------------------
  C     -1.502795    1.183186   -0.568547
  C     -0.803721    0.166487    0.074036
  C     -1.507080   -0.843237    0.722071
  C     -2.891911   -0.840736    0.716607
  C     -3.600416    0.167045    0.062460
  C     -2.887542    1.179925   -0.578282
  Cl    -3.734315    2.436703   -1.387937
  Cl    -5.315355    0.162877    0.049811
  Cl    -3.745078   -2.091876    1.526931
  C      0.670554    0.186207    0.078481
  C      1.337067    1.338732    0.481004
  C      2.720128    1.393249    0.504829
  C      3.473695    0.286528    0.114762
  C      2.817357   -0.869876   -0.305869
  C      1.423795   -0.919602   -0.322735
  Cl     0.653901   -2.342913   -0.901200
  Cl     3.732995   -2.229277   -0.806777
  Cl     5.185223    0.342338    0.142967
  Cl     3.510774    2.827353    1.017206
  H     -0.970915    1.968737   -1.080686
  H     -0.983913   -1.625151    1.247582
  H      0.767356    2.197878    0.796534

----------------------------
CARTESIAN COORDINATES (A.U.)
----------------------------
  NO LB      ZA    FRAG     MASS         X           Y           Z
   0 C     6.0000    0    12.011   -2.839870    2.235898   -1.074398
   1 C     6.0000    0    12.011   -1.518813    0.314615    0.139908
   2 C     6.0000    0    12.011   -2.847969   -1.593486    1.364517
   3 C     6.0000    0    12.011   -5.464920   -1.588760    1.354191
   4 C     6.0000    0    12.011   -6.803800    0.315669    0.118032
   5 C     6.0000    0    12.011   -5.456664    2.229735   -1.092794
   6 Cl   17.0000    0    35.453   -7.056833    4.604702   -2.622821
   7 Cl   17.0000    0    35.453  -10.044566    0.307793    0.094129
   8 Cl   17.0000    0    35.453   -7.077172   -3.953073    2.885482
   9 C     6.0000    0    12.011    1.267163    0.351881    0.148307
  10 C     6.0000    0    12.011    2.526690    2.529837    0.908965
  11 C     6.0000    0    12.011    5.140296    2.632859    0.953988
  12 C     6.0000    0    12.011    6.564332    0.541460    0.216868
  13 C     6.0000    0    12.011    5.324032   -1.643828   -0.578009
  14 C     6.0000    0    12.011    2.690582   -1.737796   -0.609881
  15 Cl   17.0000    0    35.453    1.235694   -4.427464   -1.703022
  16 Cl   17.0000    0    35.453    7.054338   -4.212724   -1.524587
  17 Cl   17.0000    0    35.453    9.798651    0.646926    0.270168
  18 Cl   17.0000    0    35.453    6.634400    5.342923    1.922240
  19 H     1.0000    0     1.008   -1.834763    3.720373   -2.042200
  20 H     1.0000    0     1.008   -1.859326   -3.071091    2.357588
  21 H     1.0000    0     1.008    1.450092    4.153387    1.505231

--------------------------------
INTERNAL COORDINATES (ANGSTROEM)
--------------------------------
 C      0   0   0     0.000000000000     0.00000000     0.00000000
 C      1   0   0     1.391148388919     0.00000000     0.00000000
 C      2   1   0     1.390756988475   119.45191012     0.00000000
 C      3   2   1     1.384843831780   120.17107989     0.55061446
 C      4   3   2     1.394815004149   120.73756829     0.13799491
 C      1   2   3     1.384785429131   120.26680835   359.12798472
 Cl     6   1   2     1.718155466579   119.63118647   180.50340732
 Cl     5   4   3     1.714991447506   120.64011594   179.65496977
 Cl     4   3   2     1.717519242246   119.57497843   180.23537112
 C      2   1   3     1.474413930775   119.60947318   181.03319011
 C     10   2   1     1.390890786114   119.41346667    51.27755984
 C     11  10   2     1.384340092880   121.08896725   179.67880727
 C     12  11  10     1.394577489013   120.25105343     0.38078546
 C     13  12  11     1.394626017874   119.21520745     0.37114041
 C     14  13  12     1.394550808839   120.23182882   359.39279563
 Cl    15  14  13     1.718479931055   118.76998012   177.82954315
 Cl    14  13  12     1.713847673076   119.63137180   179.21467053
 Cl    13  12  11     1.712669963551   120.63241372   180.10463248
 Cl    12  11  10     1.715898091267   119.89444634   180.42384609
 H      1   2   3     1.078086912380   120.26713071   180.41961764
 H      3   2   1     1.077615749732   120.56410948   181.62597423
 H     11  10   2     1.078082160764   119.46000537     0.78865798

---------------------------
INTERNAL COORDINATES (A.U.)
---------------------------
 C      0   0   0     0.000000000000     0.00000000     0.00000000
 C      1   0   0     2.628889466703     0.00000000     0.00000000
 C      2   1   0     2.628149827054   119.45191012     0.00000000
 C      3   2   1     2.616975580314   120.17107989     0.55061446
 C      4   3   2     2.635818365327   120.73756829     0.13799491
 C      1   2   3     2.616865215302   120.26680835   359.12798472
 Cl     6   1   2     3.246843287335   119.63118647   180.50340732
 Cl     5   4   3     3.240864157804   120.64011594   179.65496977
 Cl     4   3   2     3.245640997585   119.57497843   180.23537112
 C      2   1   3     2.786238537203   119.60947318   181.03319011
 C     10   2   1     2.628402667949   119.41346667    51.27755984
 C     11  10   2     2.616023651750   121.08896725   179.67880727
 C     12  11  10     2.635369526766   120.25105343     0.38078546
 C     13  12  11     2.635461233023   119.21520745     0.37114041
 C     14  13  12     2.635319108544   120.23182882   359.39279563
 Cl    15  14  13     3.247456436333   118.76998012   177.82954315
 Cl    14  13  12     3.238702737371   119.63137180   179.21467053
 Cl    13  12  11     3.236477188904   120.63241372   180.10463248
 Cl    12  11  10     3.242577466213   119.89444634   180.42384609
 H      1   2   3     2.037289012963   120.26713071   180.41961764
 H      3   2   1     2.036398644594   120.56410948   181.62597423
 H     11  10   2     2.037280033710   119.46000537     0.78865798

---------------------
BASIS SET INFORMATION
---------------------
There are 3 groups of distinct atoms

 Group   1 Type C   : 11s6p1d contracted to 5s3p1d pattern {62111/411/1}
 Group   2 Type Cl  : 14s9p2d contracted to 5s4p2d pattern {73211/6111/11}
 Group   3 Type H   : 4s1p contracted to 2s1p pattern {31/1}

Atom   0C    basis set group =>   1
Atom   1C    basis set group =>   1
Atom   2C    basis set group =>   1
Atom   3C    basis set group =>   1
Atom   4C    basis set group =>   1
Atom   5C    basis set group =>   1
Atom   6Cl   basis set group =>   2
Atom   7Cl   basis set group =>   2
Atom   8Cl   basis set group =>   2
Atom   9C    basis set group =>   1
Atom  10C    basis set group =>   1
Atom  11C    basis set group =>   1
Atom  12C    basis set group =>   1
Atom  13C    basis set group =>   1
Atom  14C    basis set group =>   1
Atom  15Cl   basis set group =>   2
Atom  16Cl   basis set group =>   2
Atom  17Cl   basis set group =>   2
Atom  18Cl   basis set group =>   2
Atom  19H    basis set group =>   3
Atom  20H    basis set group =>   3
Atom  21H    basis set group =>   3
---------------------------------
AUXILIARY/J BASIS SET INFORMATION
---------------------------------
There are 3 groups of distinct atoms

 Group   1 Type C   : 12s5p4d2f1g contracted to 6s4p3d1f1g pattern {711111/2111/211/2/1}
 Group   2 Type Cl  : 14s5p5d2f1g contracted to 8s4p3d1f1g pattern {71111111/2111/311/2/1}
 Group   3 Type H   : 5s2p1d contracted to 3s1p1d pattern {311/2/1}

Atom   0C    basis set group =>   1
Atom   1C    basis set group =>   1
Atom   2C    basis set group =>   1
Atom   3C    basis set group =>   1
Atom   4C    basis set group =>   1
Atom   5C    basis set group =>   1
Atom   6Cl   basis set group =>   2
Atom   7Cl   basis set group =>   2
Atom   8Cl   basis set group =>   2
Atom   9C    basis set group =>   1
Atom  10C    basis set group =>   1
Atom  11C    basis set group =>   1
Atom  12C    basis set group =>   1
Atom  13C    basis set group =>   1
Atom  14C    basis set group =>   1
Atom  15Cl   basis set group =>   2
Atom  16Cl   basis set group =>   2
Atom  17Cl   basis set group =>   2
Atom  18Cl   basis set group =>   2
Atom  19H    basis set group =>   3
Atom  20H    basis set group =>   3
Atom  21H    basis set group =>   3

Checking for AutoStart:
The File: sp.gbw exists
Trying to determine its content:
     ... Fine, the file contains calculation information
     ... Fine, the calculation information was read
     ... Fine, the file contains a basis set
     ... Fine, the basis set was read
     ... Fine, the file contains a geometry
     ... Fine, the geometry was read
     ... Fine, the file contains a set of orbitals
     ... Fine, the orbitals can be read
     => possible old guess file was deleted
     => GBW file was renamed to GES file
     => GES file is set as startup file
     => Guess is set to MORead
     ... now leaving AutoStart

------------------------------------------------------------------------------
                             ORCA STARTUP CALCULATIONS
                           -- RI-GTO INTEGRALS CHOSEN --
------------------------------------------------------------------------------
------------------------------------------------------------------------------
                   ___                                                        
                  /   \      - P O W E R E D   B Y -                         
                 /     \                                                     
                 |  |  |   _    _      __       _____    __    __             
                 |  |  |  | |  | |    /  \     |  _  \  |  |  /  |          
                  \  \/   | |  | |   /    \    | | | |  |  | /  /          
                 / \  \   | |__| |  /  /\  \   | |_| |  |  |/  /          
                |  |  |   |  __  | /  /__\  \  |    /   |      \           
                |  |  |   | |  | | |   __   |  |    \   |  |\   \          
                \     /   | |  | | |  |  |  |  | |\  \  |  | \   \       
                 \___/    |_|  |_| |__|  |__|  |_| \__\ |__|  \__/        
                                                                              
                      - O R C A' S   B I G   F R I E N D -                    
                                      &                                       
                       - I N T E G R A L  F E E D E R -                       
                                                                              
 v1 FN, 2020, v2 2021, v3 2022-2024                                           
------------------------------------------------------------------------------


----------------------
SHARK INTEGRAL PACKAGE
----------------------

Number of atoms                             ...     22
Number of basis functions                   ...    432
Number of shells                            ...    194
Maximum angular momentum                    ...      2
Integral batch strategy                     ... SHARK/LIBINT Hybrid
RI-J (if used) integral strategy            ... SPLIT-RIJ (Revised 2003 algorithm where possible)
Printlevel                                  ...      1
Contraction scheme used                     ... SEGMENTED contraction
Prescreening option                         ... SCHWARTZ
   Thresh                                   ... 1.000e-10
   Tcut                                     ... 1.000e-11
   Tpresel                                  ... 1.000e-11 
Coulomb Range Separation                    ... NOT USED
Exchange Range Separation                   ... NOT USED
Multipole approximations                    ... NOT USED
Finite Nucleus Model                        ... NOT USED
CABS basis                                  ... NOT available
Auxiliary Coulomb fitting basis             ... AVAILABLE
   # of basis functions in Aux-J            ...    978
   # of shells in Aux-J                     ...    314
   Maximum angular momentum in Aux-J        ...      4
Auxiliary J/K fitting basis                 ... NOT available
Auxiliary Correlation fitting basis         ... NOT available
Auxiliary 'external' fitting basis          ... NOT available

Checking pre-screening integrals            ... done (  0.0 sec) Dimension = 194
Check shell pair data                       ... done (  0.0 sec)
Shell pair information
Shell pair cut-off parameter TPreSel        ...   1.0e-11
Total number of shell pairs                 ...     18915
Shell pairs after pre-screening             ...     13117
Total number of primitive shell pairs       ...     83174
Primitive shell pairs kept                  ...     34219
          la=0 lb=0:   3262 shell pairs
          la=1 lb=0:   4876 shell pairs
          la=1 lb=1:   1803 shell pairs
          la=2 lb=0:   1681 shell pairs
          la=2 lb=1:   1267 shell pairs
          la=2 lb=2:    228 shell pairs

Calculating one electron integrals          ... done (  0.1 sec)
Calculating RI/J V-Matrix + Cholesky decomp.... done (  0.0 sec)
Calculating Nuclear repulsion               ... done (  0.0 sec) ENN=   2290.195129213824 Eh

Diagonalization of the overlap matrix:
Smallest eigenvalue                        ... 1.087e-05
Time for diagonalization                   ...    0.021 sec
Threshold for overlap eigenvalues          ... 1.000e-07
Number of eigenvalues below threshold      ... 0
Time for construction of square roots      ...    0.013 sec
Total time needed                          ...    0.034 sec

-------------------
DFT GRID GENERATION
-------------------

General Integration Accuracy     IntAcc      ... 4.388
Radial Grid Type                 RadialGrid  ... OptM3 with GC (2021)
Angular Grid (max. ang.)         AngularGrid ... 4 (Lebedev-302)
Angular grid pruning method      GridPruning ... 4 (adaptive)
Weight generation scheme         WeightScheme... mBecke (2022)
Basis function cutoff            BFCut       ... 1.0000e-10
Integration weight cutoff        WCut        ... 1.0000e-14
Partially contracted basis set               ... off
Rotationally invariant grid construction     ... off
Angular grids for H and He will be reduced by one unit

Total number of grid points                  ...   132259
Total number of batches                      ...     2078
Average number of points per batch           ...       63
Average number of grid points per atom       ...     6012
Initializing property integral containers    ... done (  0.0 sec)

SHARK setup successfully completed in   1.7 seconds

Maximum memory used throughout the entire STARTUP-calculation: 70.9 MB
-------------------------------------------------------------------------------
                                 ORCA GUESS
                   Start orbitals & Density for SCF / CASSCF
-------------------------------------------------------------------------------

------------
SCF SETTINGS
------------
Hamiltonian:
 Density Functional     Method          .... DFT(GTOs)
  Functional kind                       .... Exchange
  Functional name                       .... Re-regularized SCAN exchange by Furness et al
  Functional family                     .... MGGA
  Functional refs                              
    [ 0] J. W. Furness, A. D. Kaplan, J. Ning, J. P. Perdew, and J. Sun.,  J. Phys. Chem. Lett. 11, 8208-8215 (2020), doi: 10.1021/acs.jpclett.0c02405
    [ 1] J. W. Furness, A. D. Kaplan, J. Ning, J. P. Perdew, and J. Sun.,  J. Phys. Chem. Lett. 11, 9248-9248 (2020), doi: 10.1021/acs.jpclett.0c03077
  Functional external parameters        .... 6
    Parameter  0 _c1        =  6.670000e-01 : c1 parameter        
    Parameter  1 _c2        =  8.000000e-01 : c2 parameter        
    Parameter  2 _d         =  1.240000e+00 : d parameter         
    Parameter  3 _k1        =  6.500000e-02 : k1 parameter        
    Parameter  4 _eta       =  1.000000e-03 : eta parameter       
    Parameter  5 _dp2       =  3.610000e-01 : dp2 parameter       
  Functional kind                       .... Correlation
  Functional name                       .... Re-regularized SCAN correlation by Furness et al
  Functional family                     .... MGGA
  Functional refs                              
    [ 0] J. W. Furness, A. D. Kaplan, J. Ning, J. P. Perdew, and J. Sun.,  J. Phys. Chem. Lett. 11, 8208-8215 (2020), doi: 10.1021/acs.jpclett.0c02405
    [ 1] J. W. Furness, A. D. Kaplan, J. Ning, J. P. Perdew, and J. Sun.,  J. Phys. Chem. Lett. 11, 9248-9248 (2020), doi: 10.1021/acs.jpclett.0c03077
  Functional external parameters        .... 1
    Parameter  0 _eta       =  1.000000e-03 : Regularization parameter
 Gradients option       PostSCFGGA      .... off
 RI-approximation to the Coulomb term is turned on
   Number of AuxJ basis functions       .... 978


General Settings:
 Integral files         IntName         .... sp
 Hartree-Fock type      HFTyp           .... RHF
 Total Charge           Charge          ....    0
 Multiplicity           Mult            ....    1
 Number of Electrons    NEL             ....  194
 Basis Dimension        Dim             ....  432
 Nuclear Repulsion      ENuc            ....   2290.1951292138 Eh

Convergence Acceleration:
 AO-DIIS                CNVDIIS         .... on
   Start iteration      DIISMaxIt       ....    12
   Startup error        DIISStart       ....  0.200000
   # of expansion vecs  DIISMaxEq       ....     5
   Bias factor          DIISBfac        ....   1.050
   Max. coefficient     DIISMaxC        ....  10.000
 MO-DIIS                CNVKDIIS        .... off
 Trust-Rad. Augm. Hess. CNVTRAH         .... auto
   Auto Start mean grad. ratio tolernc. ....  1.125000
   Auto Start start iteration           ....     1
   Auto Start num. interpolation iter.  ....    10
   Max. Number of Micro iterations      ....    24
   Max. Number of Macro iterations      .... Maxiter - #DIIS iter
   Number of Davidson start vectors     ....     2
   Converg. threshold    (grad. norm)   ....   3.330e-04
   Grad. Scal. Fac. for Micro threshold ....   0.100
   Minimum threshold for Micro iter.    ....   1.000e-02
   NR start threshold (gradient norm)   ....   1.000e-04
   Initial trust radius                 ....   0.400
   Minimum AH scaling param. (alpha)    ....   1.000
   Maximum AH scaling param. (alpha)    .... 1000.000
   Quad. conv. algorithm                .... NR
   White noise on init. David. guess    .... on
   Maximum white noise                  ....   0.010
   Pseudo random numbers                .... off
   Inactive MOs                         .... canonical
   Orbital update algorithm             .... Taylor
   Preconditioner                       .... Diag
   Full preconditioner red. dimension   ....   250
   COSX micro iterations for RIJONX calc.... off
 SOSCF                  CNVSOSCF        .... on
   Start iteration      SOSCFMaxIt      ....   150
   Startup grad/error   SOSCFStart      ....  0.003300
   Hessian update       SOSCFHessUp     .... L-BFGS
 Level Shifting         CNVShift        .... on
   Level shift para.    LevelShift      ....    0.2500
   Turn off err/grad.   ShiftErr        ....    0.0010
 Zerner damping         CNVZerner       .... off
 Static damping         CNVDamp         .... on
   Fraction old density DampFac         ....    0.7000
   Max. Damping (<1)    DampMax         ....    0.9800
   Min. Damping (>=0)   DampMin         ....    0.0000
   Turn off err/grad.   DampErr         ....    0.1000

SCF Procedure:
 Maximum # iterations   MaxIter         ....   125
 SCF integral mode      SCFMode         .... Direct
   Integral package                     .... SHARK and LIBINT hybrid scheme
 Reset frequency        DirectResetFreq ....    20
 Integral Threshold     Thresh          ....  1.000e-10 Eh
 Primitive CutOff       TCut            ....  1.000e-11 Eh

Convergence Tolerance:
 Convergence Check Mode ConvCheckMode   .... Total+1el-Energy
 Convergence forced     ConvForced      .... 0
 Energy Change          TolE            ....  1.000e-06 Eh
 1-El. energy change                    ....  1.000e-03 Eh
 Orbital Gradient       TolG            ....  3.330e-04
 Orbital Rotation angle TolX            ....  3.330e-04
 DIIS Error             TolErr          ....  1.000e-06

---------------------
INITIAL GUESS: MOREAD
---------------------
Guess MOs are being read from file: sp.ges
Input Geometry matches current geometry (good)
Atom 0: N(Shells)= 9 and 6 - projection required
Input basis set needs projection
NBasis(read)= 300
NBasis(calc)= 432
Basis set overlap was calculated
Using GuessMode=FMatrix for the initial guess
C*T matrix was formed
Effective Fockian was calculated
Effective Fockian was diagonalized
Initial density was built
                      ------------------
                      INITIAL GUESS DONE (   0.1 sec)
                      ------------------
             **** ENERGY FILE WAS UPDATED (sp.en.tmp) ****
Finished Guess after   0.2 sec
Maximum memory used throughout the entire GUESS-calculation: 42.8 MB

-------------------------------------------------------------------------------------------
                                      ORCA LEAN-SCF
                              memory conserving SCF solver
-------------------------------------------------------------------------------------------

----------------------------------------D-I-I-S--------------------------------------------
Iteration    Energy (Eh)           Delta-E    RMSDP     MaxDP     DIISErr   Damp  Time(sec)
-------------------------------------------------------------------------------------------
               ***  Starting incremental Fock matrix formation  ***
    1    -3679.8594573280988698     0.00e+00  1.84e-02  1.14e+00  5.36e-01  0.700   5.4
    2    -3679.9657051744661658    -1.06e-01  1.32e-02  7.84e-01  3.76e-01  0.700   4.6
    3    -3680.0406791139603229    -7.50e-02  9.27e-03  5.44e-01  2.63e-01  0.700   4.6
                               ***Turning on AO-DIIS***
    4    -3680.0932700909725099    -5.26e-02  6.50e-03  3.80e-01  1.84e-01  0.700   4.5
    5    -3680.1301307833791725    -3.69e-02  4.56e-03  2.67e-01  1.29e-01  0.700   4.4
    6    -3680.1559695080350139    -2.58e-02  3.19e-03  1.86e-01  9.02e-02  0.700   4.3
    7    -3680.1740751505240041    -1.81e-02  7.44e-03  4.34e-01  6.31e-02  0.000   4.2
                              *** Initializing SOSCF ***
---------------------------------------S-O-S-C-F--------------------------------------
Iteration    Energy (Eh)           Delta-E    RMSDP     MaxDP     MaxGrad    Time(sec)
--------------------------------------------------------------------------------------
    8    -3680.2163715398473869    -4.23e-02  4.29e-05  2.87e-03  2.31e-04     4.5
               *** Restarting incremental Fock matrix formation ***
    9    -3680.2163719654690794    -4.26e-07  6.83e-05  4.43e-03  1.35e-04     5.4
   10    -3680.2163688216733135     3.14e-06  3.37e-05  2.49e-03  3.04e-04     3.7
   11    -3680.2163726748758563    -3.85e-06  1.43e-05  7.64e-04  3.56e-05     3.6
                  *** Gradient check signals convergence ***

               *****************************************************
               *                     SUCCESS                       *
               *           SCF CONVERGED AFTER  11 CYCLES          *
               *****************************************************

             **** ENERGY FILE WAS UPDATED (sp.en.tmp) ****

----------------
TOTAL SCF ENERGY
----------------

Total Energy       :      -3680.21637267487586 Eh         -100143.77871 eV

Components:
Nuclear Repulsion  :       2290.19512921382375 Eh           62319.37772 eV
Electronic Energy  :      -5970.41150188869869 Eh         -162463.15643 eV
One Electron Energy:      -9630.07831640940640 Eh         -262047.75324 eV
Two Electron Energy:       3659.66681452070725 Eh           99584.59681 eV

Virial components:
Potential Energy   :      -7351.39368153748910 Eh         -200041.59199 eV
Kinetic Energy     :       3671.17730886261279 Eh           99897.81328 eV
Virial Ratio       :          2.00246217032080

DFT components:
N(Alpha)           :       96.999940877640 electrons
N(Beta)            :       96.999940877640 electrons
N(Total)           :      193.999881755279 electrons
E(X)               :     -256.525728484812 Eh       
E(C)               :       -7.174346492506 Eh       
E(XC)              :     -263.700074977317 Eh       

---------------
SCF CONVERGENCE
---------------

  Last Energy change         ...    3.8532e-06  Tolerance :   1.0000e-06
  Last MAX-Density change    ...    7.6448e-04  Tolerance :   1.0000e-05
  Last RMS-Density change    ...    1.4287e-05  Tolerance :   1.0000e-06
  Last DIIS Error            ...    2.3101e-04  Tolerance :   1.0000e-06
  Last Orbital Gradient      ...    3.5571e-05  Tolerance :   3.3300e-04
  Last Orbital Rotation      ...    1.7558e-04  Tolerance :   3.3300e-04


----------------
ORBITAL ENERGIES
----------------

  NO   OCC          E(Eh)            E(eV) 
   0   2.0000    -101.247591     -2755.0870 
   1   2.0000    -101.247330     -2755.0799 
   2   2.0000    -101.246494     -2755.0572 
   3   2.0000    -101.246285     -2755.0515 
   4   2.0000    -101.242234     -2754.9412 
   5   2.0000    -101.241997     -2754.9348 
   6   2.0000    -101.241170     -2754.9123 
   7   2.0000     -10.142841      -276.0007 
   8   2.0000     -10.141495      -275.9641 
   9   2.0000     -10.138526      -275.8833 
  10   2.0000     -10.137366      -275.8517 
  11   2.0000     -10.134105      -275.7630 
  12   2.0000     -10.133129      -275.7365 
  13   2.0000     -10.132660      -275.7237 
  14   2.0000     -10.097993      -274.7804 
  15   2.0000     -10.090163      -274.5673 
  16   2.0000     -10.083295      -274.3804 
  17   2.0000     -10.076570      -274.1974 
  18   2.0000     -10.075385      -274.1652 
  19   2.0000      -9.403375      -255.8788 
  20   2.0000      -9.403159      -255.8730 
  21   2.0000      -9.402519      -255.8555 
  22   2.0000      -9.402171      -255.8461 
  23   2.0000      -9.398009      -255.7328 
  24   2.0000      -9.397912      -255.7302 
  25   2.0000      -9.397097      -255.7080 
  26   2.0000      -7.150059      -194.5630 
  27   2.0000      -7.149836      -194.5569 
  28   2.0000      -7.149053      -194.5356 
  29   2.0000      -7.148681      -194.5255 
  30   2.0000      -7.144648      -194.4158 
  31   2.0000      -7.144395      -194.4089 
  32   2.0000      -7.143580      -194.3867 
  33   2.0000      -7.139708      -194.2813 
  34   2.0000      -7.139505      -194.2758 
  35   2.0000      -7.138856      -194.2581 
  36   2.0000      -7.138602      -194.2512 
  37   2.0000      -7.138433      -194.2466 
  38   2.0000      -7.138372      -194.2450 
  39   2.0000      -7.137842      -194.2305 
  40   2.0000      -7.137645      -194.2252 
  41   2.0000      -7.134359      -194.1358 
  42   2.0000      -7.134194      -194.1313 
  43   2.0000      -7.133393      -194.1095 
  44   2.0000      -7.133385      -194.1093 
  45   2.0000      -7.133267      -194.1061 
  46   2.0000      -7.132568      -194.0871 
  47   2.0000      -0.933467       -25.4009 
  48   2.0000      -0.919231       -25.0135 
  49   2.0000      -0.887770       -24.1574 
  50   2.0000      -0.868817       -23.6417 
  51   2.0000      -0.867692       -23.6111 
  52   2.0000      -0.843788       -22.9606 
  53   2.0000      -0.833550       -22.6821 
  54   2.0000      -0.826431       -22.4883 
  55   2.0000      -0.808624       -22.0038 
  56   2.0000      -0.753123       -20.4935 
  57   2.0000      -0.728842       -19.8328 
  58   2.0000      -0.719910       -19.5897 
  59   2.0000      -0.705667       -19.2022 
  60   2.0000      -0.631531       -17.1848 
  61   2.0000      -0.613590       -16.6966 
  62   2.0000      -0.601223       -16.3601 
  63   2.0000      -0.579522       -15.7696 
  64   2.0000      -0.523711       -14.2509 
  65   2.0000      -0.520118       -14.1531 
  66   2.0000      -0.500103       -13.6085 
  67   2.0000      -0.493265       -13.4224 
  68   2.0000      -0.473914       -12.8959 
  69   2.0000      -0.459086       -12.4924 
  70   2.0000      -0.446185       -12.1413 
  71   2.0000      -0.442949       -12.0533 
  72   2.0000      -0.441300       -12.0084 
  73   2.0000      -0.434641       -11.8272 
  74   2.0000      -0.426323       -11.6008 
  75   2.0000      -0.413702       -11.2574 
  76   2.0000      -0.398582       -10.8460 
  77   2.0000      -0.384815       -10.4714 
  78   2.0000      -0.381122       -10.3709 
  79   2.0000      -0.379036       -10.3141 
  80   2.0000      -0.362751        -9.8709 
  81   2.0000      -0.359445        -9.7810 
  82   2.0000      -0.340623        -9.2688 
  83   2.0000      -0.329924        -8.9777 
  84   2.0000      -0.327027        -8.8989 
  85   2.0000      -0.323973        -8.8157 
  86   2.0000      -0.321157        -8.7391 
  87   2.0000      -0.319103        -8.6832 
  88   2.0000      -0.310493        -8.4489 
  89   2.0000      -0.308001        -8.3811 
  90   2.0000      -0.305283        -8.3072 
  91   2.0000      -0.286893        -7.8068 
  92   2.0000      -0.286763        -7.8032 
  93   2.0000      -0.261218        -7.1081 
  94   2.0000      -0.249743        -6.7958 
  95   2.0000      -0.248810        -6.7705 
  96   2.0000      -0.237437        -6.4610 
  97   0.0000      -0.094852        -2.5811 
  98   0.0000      -0.079667        -2.1678 
  99   0.0000      -0.072175        -1.9640 
 100   0.0000      -0.060622        -1.6496 
 101   0.0000      -0.054127        -1.4729 
 102   0.0000      -0.045237        -1.2310 
 103   0.0000      -0.005128        -0.1395 
 104   0.0000       0.018128         0.4933 
 105   0.0000       0.029707         0.8084 
 106   0.0000       0.033758         0.9186 
 107   0.0000       0.038732         1.0539 
*Only the first 10 virtual orbitals were printed.

                    ********************************
                    * MULLIKEN POPULATION ANALYSIS *
                    ********************************

-----------------------
MULLIKEN ATOMIC CHARGES
-----------------------
   0 C :   -0.271036
   1 C :    0.189099
   2 C :   -0.248495
   3 C :    0.099646
   4 C :    0.043952
   5 C :    0.105255
   6 Cl:   -0.091742
   7 Cl:   -0.067860
   8 Cl:   -0.090035
   9 C :    0.176996
  10 C :   -0.317815
  11 C :    0.113120
  12 C :    0.077451
  13 C :    0.033276
  14 C :   -0.011991
  15 Cl:   -0.059396
  16 Cl:   -0.058820
  17 Cl:   -0.057597
  18 Cl:   -0.086361
  19 H :    0.171909
  20 H :    0.176418
  21 H :    0.174026
Sum of atomic charges:    0.0000000

--------------------------------
MULLIKEN REDUCED ORBITAL CHARGES
--------------------------------
  0 C s       :     3.204651  s :     3.204651
      pz      :     1.008101  p :     3.030061
      px      :     0.988859
      py      :     1.033101
      dz2     :     0.004319  d :     0.036323
      dxz     :     0.007406
      dyz     :     0.004766
      dx2y2   :     0.010300
      dxy     :     0.009532

  1 C s       :     3.136878  s :     3.136878
      pz      :     0.929254  p :     2.625418
      px      :     0.739431
      py      :     0.956733
      dz2     :     0.006890  d :     0.048605
      dxz     :     0.009134
      dyz     :     0.006966
      dx2y2   :     0.013452
      dxy     :     0.012164

  2 C s       :     3.177480  s :     3.177480
      pz      :     0.998252  p :     3.034518
      px      :     1.000384
      py      :     1.035882
      dz2     :     0.004331  d :     0.036496
      dxz     :     0.007468
      dyz     :     0.005051
      dx2y2   :     0.010234
      dxy     :     0.009412

  3 C s       :     3.205755  s :     3.205755
      pz      :     0.927783  p :     2.639891
      px      :     0.900967
      py      :     0.811141
      dz2     :     0.007445  d :     0.054707
      dxz     :     0.010960
      dyz     :     0.007564
      dx2y2   :     0.013488
      dxy     :     0.015250

  4 C s       :     3.260352  s :     3.260352
      pz      :     0.979677  p :     2.642465
      px      :     0.742552
      py      :     0.920236
      dz2     :     0.006821  d :     0.053231
      dxz     :     0.011316
      dyz     :     0.006686
      dx2y2   :     0.013627
      dxy     :     0.014781

  5 C s       :     3.202795  s :     3.202795
      pz      :     0.934623  p :     2.637292
      px      :     0.897830
      py      :     0.804839
      dz2     :     0.007383  d :     0.054658
      dxz     :     0.010945
      dyz     :     0.007563
      dx2y2   :     0.013557
      dxy     :     0.015210

  6 Cls       :     5.946255  s :     5.946255
      pz      :     3.761999  p :    11.087918
      px      :     3.779261
      py      :     3.546658
      dz2     :     0.010551  d :     0.057568
      dxz     :     0.009243
      dyz     :     0.012703
      dx2y2   :     0.010874
      dxy     :     0.014197

  7 Cls       :     5.948775  s :     5.948775
      pz      :     3.916808  p :    11.058953
      px      :     3.208896
      py      :     3.933249
      dz2     :     0.006368  d :     0.060132
      dxz     :     0.017730
      dyz     :     0.002425
      dx2y2   :     0.019011
      dxy     :     0.014599

  8 Cls       :     5.946407  s :     5.946407
      pz      :     3.761387  p :    11.086167
      px      :     3.776210
      py      :     3.548570
      dz2     :     0.010397  d :     0.057461
      dxz     :     0.009391
      dyz     :     0.012621
      dx2y2   :     0.010913
      dxy     :     0.014139

  9 C s       :     3.158372  s :     3.158372
      pz      :     0.976566  p :     2.616949
      px      :     0.753092
      py      :     0.887290
      dz2     :     0.005004  d :     0.047683
      dxz     :     0.007649
      dyz     :     0.007064
      dx2y2   :     0.013627
      dxy     :     0.014340

 10 C s       :     3.225371  s :     3.225371
      pz      :     0.998338  p :     3.055866
      px      :     1.008145
      py      :     1.049383
      dz2     :     0.003776  d :     0.036578
      dxz     :     0.006572
      dyz     :     0.004304
      dx2y2   :     0.011366
      dxy     :     0.010560

 11 C s       :     3.192269  s :     3.192269
      pz      :     0.995778  p :     2.639827
      px      :     0.902222
      py      :     0.741827
      dz2     :     0.005420  d :     0.054784
      dxz     :     0.009110
      dyz     :     0.008063
      dx2y2   :     0.015124
      dxy     :     0.017067

 12 C s       :     3.257122  s :     3.257122
      pz      :     1.020988  p :     2.611711
      px      :     0.731699
      py      :     0.859024
      dz2     :     0.005299  d :     0.053716
      dxz     :     0.009904
      dyz     :     0.007139
      dx2y2   :     0.015078
      dxy     :     0.016296

 13 C s       :     3.296687  s :     3.296687
      pz      :     1.017858  p :     2.616229
      px      :     0.818174
      py      :     0.780197
      dz2     :     0.005620  d :     0.053808
      dxz     :     0.008992
      dyz     :     0.008126
      dx2y2   :     0.015720
      dxy     :     0.015352

 14 C s       :     3.276648  s :     3.276648
      pz      :     1.005010  p :     2.681468
      px      :     0.875490
      py      :     0.800968
      dz2     :     0.005636  d :     0.053874
      dxz     :     0.008787
      dyz     :     0.008068
      dx2y2   :     0.016632
      dxy     :     0.014752

 15 Cls       :     5.949881  s :     5.949881
      pz      :     3.821693  p :    11.048649
      px      :     3.786577
      py      :     3.440379
      dz2     :     0.009529  d :     0.060866
      dxz     :     0.006860
      dyz     :     0.015029
      dx2y2   :     0.014666
      dxy     :     0.014782

 16 Cls       :     5.949634  s :     5.949634
      pz      :     3.846157  p :    11.048996
      px      :     3.731102
      py      :     3.471737
      dz2     :     0.008601  d :     0.060190
      dxz     :     0.007873
      dyz     :     0.013120
      dx2y2   :     0.013166
      dxy     :     0.017429

 17 Cls       :     5.948627  s :     5.948627
      pz      :     3.908281  p :    11.048557
      px      :     3.203666
      py      :     3.936610
      dz2     :     0.006466  d :     0.060414
      dxz     :     0.019073
      dyz     :     0.001761
      dx2y2   :     0.019800
      dxy     :     0.013314

 18 Cls       :     5.946246  s :     5.946246
      pz      :     3.852546  p :    11.082293
      px      :     3.800082
      py      :     3.429666
      dz2     :     0.008149  d :     0.057822
      dxz     :     0.006597
      dyz     :     0.014434
      dx2y2   :     0.012793
      dxy     :     0.015849

 19 H s       :     0.808079  s :     0.808079
      pz      :     0.006116  p :     0.020012
      px      :     0.005369
      py      :     0.008527

 20 H s       :     0.803510  s :     0.803510
      pz      :     0.006028  p :     0.020073
      px      :     0.005356
      py      :     0.008688

 21 H s       :     0.805908  s :     0.805908
      pz      :     0.004906  p :     0.020067
      px      :     0.005759
      py      :     0.009402


------------------------
MULLIKEN OVERLAP CHARGES
------------------------
B(  0-C ,  1-C ) :   0.1998 B(  0-C ,  2-C ) :  -0.3312 B(  0-C ,  3-C ) :  -0.2065 
B(  0-C ,  4-C ) :  -0.0534 B(  0-C ,  6-Cl) :  -0.1422 B(  0-C ,  9-C ) :  -0.1077 
B(  0-C , 10-C ) :  -0.0750 B(  0-C , 14-C ) :   0.1279 B(  0-C , 19-H ) :   0.8059 
B(  1-C ,  2-C ) :   0.1746 B(  1-C ,  3-C ) :   0.2348 B(  1-C ,  4-C ) :  -0.1260 
B(  1-C ,  5-C ) :   0.2129 B(  1-C ,  9-C ) :  -0.3742 B(  1-C , 10-C ) :  -0.0794 
B(  1-C , 13-C ) :   0.0624 B(  1-C , 14-C ) :  -0.3296 B(  1-C , 19-H ) :  -0.0906 
B(  1-C , 20-H ) :  -0.1044 B(  2-C ,  3-C ) :  -0.1181 B(  2-C ,  4-C ) :  -0.0588 
B(  2-C ,  5-C ) :  -0.2123 B(  2-C ,  8-Cl) :  -0.1445 B(  2-C ,  9-C ) :  -0.1469 
B(  2-C , 10-C ) :   0.0876 B(  2-C , 20-H ) :   0.8016 B(  3-C ,  5-C ) :   0.1006 
B(  3-C ,  7-Cl) :  -0.2751 B(  3-C ,  8-Cl) :   0.6957 B(  4-C ,  5-C ) :   0.0648 
B(  4-C ,  6-Cl) :  -0.2483 B(  4-C ,  7-Cl) :   0.8863 B(  4-C ,  8-Cl) :  -0.2525 
B(  5-C ,  6-Cl) :   0.6905 B(  5-C ,  7-Cl) :  -0.2800 B(  9-C , 10-C ) :  -0.1459 
B(  9-C , 11-C ) :   0.3508 B(  9-C , 12-C ) :  -0.4947 B(  9-C , 13-C ) :   0.4038 
B(  9-C , 14-C ) :  -0.6713 B(  9-C , 15-Cl) :  -0.3810 B(  9-C , 21-H ) :  -0.0582 
B( 10-C , 11-C ) :  -0.2559 B( 10-C , 12-C ) :   0.3266 B( 10-C , 13-C ) :  -0.6505 
B( 10-C , 14-C ) :  -0.0555 B( 10-C , 18-Cl) :  -0.1227 B( 10-C , 21-H ) :   0.7904 
B( 11-C , 12-C ) :  -0.2528 B( 11-C , 13-C ) :   0.4282 B( 11-C , 14-C ) :  -0.3580 
B( 11-C , 17-Cl) :  -0.2942 B( 11-C , 18-Cl) :   0.7076 B( 12-C , 13-C ) :  -0.9116 
B( 12-C , 14-C ) :   0.3454 B( 12-C , 16-Cl) :  -0.3252 B( 12-C , 17-Cl) :   0.9568 
B( 12-C , 18-Cl) :  -0.2705 B( 13-C , 14-C ) :  -1.4179 B( 13-C , 15-Cl) :  -0.3311 
B( 13-C , 16-Cl) :   0.9968 B( 13-C , 17-Cl) :  -0.3155 B( 14-C , 15-Cl) :   1.0163 
B( 14-C , 16-Cl) :  -0.3302 


                     *******************************
                     * LOEWDIN POPULATION ANALYSIS *
                     *******************************

----------------------
LOEWDIN ATOMIC CHARGES
----------------------
   0 C :   -0.148511
   1 C :   -0.068583
   2 C :   -0.150127
   3 C :   -0.175103
   4 C :   -0.198383
   5 C :   -0.175051
   6 Cl:    0.170942
   7 Cl:    0.184728
   8 Cl:    0.172472
   9 C :   -0.070345
  10 C :   -0.141809
  11 C :   -0.179979
  12 C :   -0.196022
  13 C :   -0.189823
  14 C :   -0.164214
  15 Cl:    0.198901
  16 Cl:    0.191702
  17 Cl:    0.191877
  18 Cl:    0.175389
  19 H :    0.189414
  20 H :    0.190256
  21 H :    0.192270

-------------------------------
LOEWDIN REDUCED ORBITAL CHARGES
-------------------------------
  0 C s       :     2.894125  s :     2.894125
      pz      :     1.034704  p :     3.173367
      px      :     1.064494
      py      :     1.074168
      dz2     :     0.008146  d :     0.081019
      dxz     :     0.015925
      dyz     :     0.009650
      dx2y2   :     0.024372
      dxy     :     0.022926

  1 C s       :     2.847257  s :     2.847257
      pz      :     1.013194  p :     3.120034
      px      :     1.032064
      py      :     1.074777
      dz2     :     0.012912  d :     0.101292
      dxz     :     0.018083
      dyz     :     0.014289
      dx2y2   :     0.029618
      dxy     :     0.026390

  2 C s       :     2.896702  s :     2.896702
      pz      :     1.031064  p :     3.172283
      px      :     1.067765
      py      :     1.073454
      dz2     :     0.008192  d :     0.081142
      dxz     :     0.016045
      dyz     :     0.010180
      dx2y2   :     0.024192
      dxy     :     0.022532

  3 C s       :     2.892148  s :     2.892148
      pz      :     1.026066  p :     3.164802
      px      :     1.107787
      py      :     1.030949
      dz2     :     0.014338  d :     0.118153
      dxz     :     0.022408
      dyz     :     0.016810
      dx2y2   :     0.030647
      dxy     :     0.033951

  4 C s       :     2.894615  s :     2.894615
      pz      :     1.068121  p :     3.187382
      px      :     1.025098
      py      :     1.094164
      dz2     :     0.013499  d :     0.116385
      dxz     :     0.023684
      dyz     :     0.013711
      dx2y2   :     0.031190
      dxy     :     0.034302

  5 C s       :     2.892229  s :     2.892229
      pz      :     1.025605  p :     3.164814
      px      :     1.108114
      py      :     1.031094
      dz2     :     0.014167  d :     0.118009
      dxz     :     0.022346
      dyz     :     0.016768
      dx2y2   :     0.030863
      dxy     :     0.033865

  6 Cls       :     5.638822  s :     5.638822
      pz      :     3.751869  p :    11.070686
      px      :     3.759902
      py      :     3.558916
      dz2     :     0.018686  d :     0.119550
      dxz     :     0.019127
      dyz     :     0.028293
      dx2y2   :     0.021206
      dxy     :     0.032238

  7 Cls       :     5.637768  s :     5.637768
      pz      :     3.888633  p :    11.053329
      px      :     3.263463
      py      :     3.901233
      dz2     :     0.015260  d :     0.124175
      dxz     :     0.030882
      dyz     :     0.004537
      dx2y2   :     0.048058
      dxy     :     0.025438

  8 Cls       :     5.638433  s :     5.638433
      pz      :     3.751047  p :    11.069639
      px      :     3.757335
      py      :     3.561257
      dz2     :     0.018367  d :     0.119456
      dxz     :     0.019417
      dyz     :     0.028150
      dx2y2   :     0.021270
      dxy     :     0.032252

  9 C s       :     2.848999  s :     2.848999
      pz      :     0.998628  p :     3.121018
      px      :     1.045997
      py      :     1.076393
      dz2     :     0.009262  d :     0.100328
      dxz     :     0.014190
      dyz     :     0.013860
      dx2y2   :     0.030692
      dxy     :     0.032323

 10 C s       :     2.892950  s :     2.892950
      pz      :     1.013422  p :     3.167369
      px      :     1.066830
      py      :     1.087116
      dz2     :     0.006799  d :     0.081490
      dxz     :     0.013091
      dyz     :     0.008045
      dx2y2   :     0.027329
      dxy     :     0.026227

 11 C s       :     2.890848  s :     2.890848
      pz      :     1.028171  p :     3.170602
      px      :     1.110530
      py      :     1.031901
      dz2     :     0.010448  d :     0.118530
      dxz     :     0.017464
      dyz     :     0.016302
      dx2y2   :     0.035253
      dxy     :     0.039063

 12 C s       :     2.892862  s :     2.892862
      pz      :     1.055785  p :     3.185722
      px      :     1.028212
      py      :     1.101725
      dz2     :     0.010594  d :     0.117438
      dxz     :     0.019304
      dyz     :     0.013793
      dx2y2   :     0.034821
      dxy     :     0.038926

 13 C s       :     2.892569  s :     2.892569
      pz      :     1.044381  p :     3.179696
      px      :     1.086398
      py      :     1.048917
      dz2     :     0.010970  d :     0.117558
      dxz     :     0.017451
      dyz     :     0.016402
      dx2y2   :     0.037264
      dxy     :     0.035472

 14 C s       :     2.884988  s :     2.884988
      pz      :     1.045720  p :     3.162195
      px      :     1.073280
      py      :     1.043195
      dz2     :     0.010961  d :     0.117031
      dxz     :     0.017141
      dyz     :     0.016329
      dx2y2   :     0.038731
      dxy     :     0.033869

 15 Cls       :     5.633202  s :     5.633202
      pz      :     3.810989  p :    11.042237
      px      :     3.765602
      py      :     3.465647
      dz2     :     0.018491  d :     0.125659
      dxz     :     0.012448
      dyz     :     0.030544
      dx2y2   :     0.029435
      dxy     :     0.034741

 16 Cls       :     5.636863  s :     5.636863
      pz      :     3.827547  p :    11.045997
      px      :     3.723018
      py      :     3.495432
      dz2     :     0.017435  d :     0.125438
      dxz     :     0.014988
      dyz     :     0.025747
      dx2y2   :     0.025160
      dxy     :     0.042108

 17 Cls       :     5.636720  s :     5.636720
      pz      :     3.881845  p :    11.046410
      px      :     3.260246
      py      :     3.904318
      dz2     :     0.015554  d :     0.124994
      dxz     :     0.033219
      dyz     :     0.002964
      dx2y2   :     0.050070
      dxy     :     0.023187

 18 Cls       :     5.637832  s :     5.637832
      pz      :     3.832312  p :    11.066394
      px      :     3.777939
      py      :     3.456143
      dz2     :     0.016740  d :     0.120385
      dxz     :     0.012426
      dyz     :     0.028126
      dx2y2   :     0.026638
      dxy     :     0.036454

 19 H s       :     0.764214  s :     0.764214
      pz      :     0.014110  p :     0.046372
      px      :     0.012167
      py      :     0.020095

 20 H s       :     0.763204  s :     0.763204
      pz      :     0.014031  p :     0.046540
      px      :     0.012150
      py      :     0.020359

 21 H s       :     0.761267  s :     0.761267
      pz      :     0.011179  p :     0.046463
      px      :     0.013160
      py      :     0.022124


---------------------------------
LOEWDIN BOND ORDERS (THRESH 0.050000)
---------------------------------
B(  0-C ,  1-C ) :   1.4070 B(  0-C ,  2-C ) :   0.0843 B(  0-C ,  3-C ) :   0.1060 
B(  0-C ,  4-C ) :   0.0920 B(  0-C ,  5-C ) :   1.4283 B(  0-C ,  6-Cl) :   0.1605 
B(  0-C ,  9-C ) :   0.0888 B(  0-C , 19-H ) :   0.8531 B(  1-C ,  2-C ) :   1.4003 
B(  1-C ,  3-C ) :   0.0954 B(  1-C ,  4-C ) :   0.1005 B(  1-C ,  5-C ) :   0.0954 
B(  1-C ,  9-C ) :   1.0383 B(  1-C , 10-C ) :   0.0890 B(  1-C , 14-C ) :   0.0808 
B(  1-C , 19-H ) :   0.0504 B(  2-C ,  3-C ) :   1.4330 B(  2-C ,  4-C ) :   0.0921 
B(  2-C ,  5-C ) :   0.1072 B(  2-C ,  8-Cl) :   0.1617 B(  2-C ,  9-C ) :   0.0858 
B(  2-C , 15-Cl) :   0.0548 B(  2-C , 20-H ) :   0.8525 B(  3-C ,  4-C ) :   1.3373 
B(  3-C ,  5-C ) :   0.0928 B(  3-C ,  7-Cl) :   0.1483 B(  3-C ,  8-Cl) :   1.4326 
B(  3-C , 20-H ) :   0.0520 B(  4-C ,  5-C ) :   1.3437 B(  4-C ,  6-Cl) :   0.1506 
B(  4-C ,  7-Cl) :   1.4396 B(  4-C ,  8-Cl) :   0.1499 B(  5-C ,  6-Cl) :   1.4320 
B(  5-C ,  7-Cl) :   0.1497 B(  5-C , 19-H ) :   0.0522 B(  6-Cl,  7-Cl) :   0.0582 
B(  7-Cl,  8-Cl) :   0.0582 B(  9-C , 10-C ) :   1.4050 B(  9-C , 11-C ) :   0.0950 
B(  9-C , 12-C ) :   0.0970 B(  9-C , 13-C ) :   0.0922 B(  9-C , 14-C ) :   1.3346 
B(  9-C , 15-Cl) :   0.1427 B(  9-C , 21-H ) :   0.0505 B( 10-C , 11-C ) :   1.4264 
B( 10-C , 12-C ) :   0.0931 B( 10-C , 13-C ) :   0.1026 B( 10-C , 14-C ) :   0.0890 
B( 10-C , 18-Cl) :   0.1605 B( 10-C , 21-H ) :   0.8499 B( 11-C , 12-C ) :   1.3369 
B( 11-C , 13-C ) :   0.0927 B( 11-C , 14-C ) :   0.0967 B( 11-C , 17-Cl) :   0.1490 
B( 11-C , 18-Cl) :   1.4356 B( 11-C , 21-H ) :   0.0519 B( 12-C , 13-C ) :   1.3403 
B( 12-C , 14-C ) :   0.0922 B( 12-C , 16-Cl) :   0.1509 B( 12-C , 17-Cl) :   1.4417 
B( 12-C , 18-Cl) :   0.1501 B( 13-C , 14-C ) :   1.3458 B( 13-C , 15-Cl) :   0.1522 
B( 13-C , 16-Cl) :   1.4376 B( 13-C , 17-Cl) :   0.1506 B( 14-C , 15-Cl) :   1.4134 
B( 14-C , 16-Cl) :   0.1515 B( 15-Cl, 16-Cl) :   0.0656 B( 16-Cl, 17-Cl) :   0.0623 
B( 17-Cl, 18-Cl) :   0.0577 

------------------------------------------
LOEWDIN REDUCED ORBITAL POPULATIONS PER MO
-------------------------------------------
THRESHOLD FOR PRINTING IS 0.1%%
                      0         1         2         3         4         5   
                 -101.24759 -101.24733 -101.24649 -101.24629 -101.24223 -101.24200
                   2.00000   2.00000   2.00000   2.00000   2.00000   2.00000
                  --------  --------  --------  --------  --------  --------
 6 Cl s               0.0       0.0       0.0       0.0       0.0     100.0
 7 Cl s               0.0       0.0       0.0       0.0     100.0       0.0
15 Cl s               0.0       0.0     100.0       0.0       0.0       0.0
16 Cl s               0.0     100.0       0.0       0.0       0.0       0.0
17 Cl s             100.0       0.0       0.0       0.0       0.0       0.0
18 Cl s               0.0       0.0       0.0     100.0       0.0       0.0

                      6         7         8         9        10        11   
                 -101.24117 -10.14284 -10.14149 -10.13853 -10.13737 -10.13410
                   2.00000   2.00000   2.00000   2.00000   2.00000   2.00000
                  --------  --------  --------  --------  --------  --------
 3 C  s               0.0       0.0       0.0       0.0       0.0       2.1
 4 C  s               0.0       0.0       0.0       0.0       0.0      92.8
 5 C  s               0.0       0.0       0.0       0.0       0.0       4.7
 8 Cl s             100.0       0.0       0.0       0.0       0.0       0.0
10 C  px              0.0       0.0       0.0       0.0       0.1       0.0
11 C  s               0.0       0.0       0.3       0.0      99.3       0.0
12 C  s               0.0       2.5      96.8       0.0       0.3       0.0
13 C  s               0.0      96.8       2.5       0.3       0.0       0.0
13 C  px              0.0       0.0       0.0       0.1       0.0       0.0
14 C  s               0.0       0.3       0.0      99.3       0.0       0.0
14 C  px              0.0       0.1       0.0       0.0       0.0       0.0

                     12        13        14        15        16        17   
                 -10.13313 -10.13266 -10.09799 -10.09016 -10.08329 -10.07657
                   2.00000   2.00000   2.00000   2.00000   2.00000   2.00000
                  --------  --------  --------  --------  --------  --------
 0 C  s               0.0       0.0       0.0       0.0       0.0      99.6
 0 C  px              0.1       0.0       0.0       0.0       0.0       0.0
 1 C  s               0.0       0.0       0.0      99.5       0.0       0.0
 1 C  px              0.0       0.0       0.1       0.0       0.0       0.0
 2 C  px              0.0       0.1       0.0       0.0       0.0       0.0
 3 C  s               1.0      96.5       0.0       0.0       0.0       0.0
 4 C  s               4.2       2.6       0.0       0.0       0.0       0.0
 5 C  s              94.4       0.5       0.0       0.0       0.0       0.0
 5 C  px              0.0       0.0       0.0       0.0       0.0       0.1
 9 C  s               0.0       0.0      99.5       0.0       0.0       0.0
 9 C  px              0.0       0.0       0.0       0.1       0.0       0.0
10 C  s               0.0       0.0       0.0       0.0      99.6       0.0
11 C  px              0.0       0.0       0.0       0.0       0.1       0.0

                     18        19        20        21        22        23   
                 -10.07539  -9.40337  -9.40316  -9.40252  -9.40217  -9.39801
                   2.00000   2.00000   2.00000   2.00000   2.00000   2.00000
                  --------  --------  --------  --------  --------  --------
 2 C  s              99.6       0.0       0.0       0.0       0.0       0.0
 3 C  px              0.1       0.0       0.0       0.0       0.0       0.0
 4 C  px              0.0       0.0       0.0       0.0       0.0       0.2
 7 Cl s               0.0       0.0       0.0       0.0       0.0      99.7
11 C  py              0.0       0.0       0.0       0.0       0.1       0.0
12 C  px              0.0       0.2       0.0       0.0       0.0       0.0
13 C  py              0.0       0.0       0.1       0.0       0.0       0.0
14 C  py              0.0       0.0       0.0       0.1       0.0       0.0
15 Cl s               0.0       0.0       0.0      99.8       0.0       0.0
16 Cl s               0.0       0.0      99.8       0.0       0.0       0.0
17 Cl s               0.0      99.8       0.0       0.0       0.0       0.0
18 Cl s               0.0       0.0       0.0       0.0      99.8       0.0

                     24        25        26        27        28        29   
                  -9.39791  -9.39710  -7.15006  -7.14984  -7.14905  -7.14868
                   2.00000   2.00000   2.00000   2.00000   2.00000   2.00000
                  --------  --------  --------  --------  --------  --------
 6 Cl s              99.7       0.0       0.0       0.0       0.0       0.0
 8 Cl s               0.0      99.8       0.0       0.0       0.0       0.0
15 Cl pz              0.0       0.0       0.0       0.0      12.0       0.0
15 Cl px              0.0       0.0       0.0       0.0      20.1       0.0
15 Cl py              0.0       0.0       0.0       0.0      67.9       0.0
16 Cl pz              0.0       0.0       0.0       8.5       0.0       0.0
16 Cl px              0.0       0.0       0.0      28.4       0.0       0.0
16 Cl py              0.0       0.0       0.0      63.1       0.0       0.0
17 Cl px              0.0       0.0      99.8       0.0       0.0       0.0
17 Cl py              0.0       0.0       0.1       0.0       0.0       0.0
18 Cl pz              0.0       0.0       0.0       0.0       0.0       9.0
18 Cl px              0.0       0.0       0.0       0.0       0.0      20.0
18 Cl py              0.0       0.0       0.0       0.0       0.0      71.0

                     30        31        32        33        34        35   
                  -7.14465  -7.14440  -7.14358  -7.13971  -7.13950  -7.13886
                   2.00000   2.00000   2.00000   2.00000   2.00000   2.00000
                  --------  --------  --------  --------  --------  --------
 6 Cl pz              0.0      22.5       0.0       0.0       0.0       0.0
 6 Cl px              0.0      22.9       0.0       0.0       0.0       0.0
 6 Cl py              0.0      54.5       0.0       0.0       0.0       0.0
 7 Cl px            100.0       0.0       0.0       0.0       0.0       0.0
 8 Cl pz              0.0       0.0      22.6       0.0       0.0       0.0
 8 Cl px              0.0       0.0      23.3       0.0       0.0       0.0
 8 Cl py              0.0       0.0      54.1       0.0       0.0       0.0
15 Cl pz              0.0       0.0       0.0       0.0       0.0      85.5
15 Cl py              0.0       0.0       0.0       0.0       0.0      14.5
16 Cl pz              0.0       0.0       0.0       0.0      88.2       0.0
16 Cl py              0.0       0.0       0.0       0.0      11.8       0.0
17 Cl pz              0.0       0.0       0.0      88.8       0.0       0.0
17 Cl py              0.0       0.0       0.0      11.2       0.0       0.0

                     36        37        38        39        40        41   
                  -7.13860  -7.13843  -7.13837  -7.13784  -7.13764  -7.13436
                   2.00000   2.00000   2.00000   2.00000   2.00000   2.00000
                  --------  --------  --------  --------  --------  --------
 7 Cl pz              0.0       0.0       0.0       0.0       0.0      71.0
 7 Cl py              0.0       0.0       0.0       0.0       0.0      29.0
15 Cl pz              0.0       0.0       0.0       2.6       0.0       0.0
15 Cl px              0.0       0.0       0.0      79.8       0.0       0.0
15 Cl py              0.0       0.0       0.0      17.6       0.0       0.0
16 Cl pz              0.0       0.0       3.3       0.0       0.0       0.0
16 Cl px              0.0       0.0      71.6       0.0       0.0       0.0
16 Cl py              0.0       0.0      25.1       0.0       0.0       0.0
17 Cl pz             11.2       0.0       0.0       0.0       0.0       0.0
17 Cl px              0.2       0.0       0.0       0.0       0.0       0.0
17 Cl py             88.6       0.0       0.0       0.0       0.0       0.0
18 Cl pz              0.0      88.7       0.0       0.0       2.3       0.0
18 Cl px              0.0       0.0       0.0       0.0      80.0       0.0
18 Cl py              0.0      11.3       0.0       0.0      17.7       0.0

                     42        43        44        45        46        47   
                  -7.13419  -7.13339  -7.13339  -7.13327  -7.13257  -0.93347
                   2.00000   2.00000   2.00000   2.00000   2.00000   2.00000
                  --------  --------  --------  --------  --------  --------
 0 C  s               0.0       0.0       0.0       0.0       0.0       0.5
 1 C  s               0.0       0.0       0.0       0.0       0.0       1.5
 1 C  px              0.0       0.0       0.0       0.0       0.0       0.4
 2 C  s               0.0       0.0       0.0       0.0       0.0       0.6
 3 C  s               0.0       0.0       0.0       0.0       0.0       0.5
 4 C  s               0.0       0.0       0.0       0.0       0.0       0.5
 5 C  s               0.0       0.0       0.0       0.0       0.0       0.5
 6 Cl s               0.0       0.0       0.0       0.0       0.0       0.1
 6 Cl pz             70.9       6.6       0.0       0.0       0.0       0.0
 6 Cl px              0.0      77.1       0.0       0.0       0.0       0.0
 6 Cl py             29.1      16.4       0.0       0.0       0.0       0.0
 7 Cl s               0.0       0.0       0.0       0.0       0.0       0.2
 7 Cl pz              0.0       0.0       0.0      29.0       0.0       0.0
 7 Cl py              0.0       0.0       0.0      71.0       0.0       0.0
 8 Cl s               0.0       0.0       0.0       0.0       0.0       0.2
 8 Cl pz              0.0       0.0      70.9       0.0       6.5       0.0
 8 Cl px              0.0       0.0       0.0       0.0      76.7       0.0
 8 Cl py              0.0       0.0      29.1       0.0      16.8       0.0
 9 C  s               0.0       0.0       0.0       0.0       0.0       5.7
 9 C  px              0.0       0.0       0.0       0.0       0.0       1.0
 9 C  py              0.0       0.0       0.0       0.0       0.0       0.2
10 C  s               0.0       0.0       0.0       0.0       0.0       4.6
10 C  px              0.0       0.0       0.0       0.0       0.0       0.9
10 C  py              0.0       0.0       0.0       0.0       0.0       0.7
11 C  s               0.0       0.0       0.0       0.0       0.0       9.7
11 C  px              0.0       0.0       0.0       0.0       0.0       0.2
11 C  py              0.0       0.0       0.0       0.0       0.0       0.5
12 C  s               0.0       0.0       0.0       0.0       0.0      14.6
12 C  dz2             0.0       0.0       0.0       0.0       0.0       0.1
13 C  s               0.0       0.0       0.0       0.0       0.0      15.4
13 C  dz2             0.0       0.0       0.0       0.0       0.0       0.1
14 C  s               0.0       0.0       0.0       0.0       0.0      11.2
14 C  px              0.0       0.0       0.0       0.0       0.0       0.6
15 Cl s               0.0       0.0       0.0       0.0       0.0       4.7
15 Cl pz              0.0       0.0       0.0       0.0       0.0       0.1
15 Cl px              0.0       0.0       0.0       0.0       0.0       0.3
15 Cl py              0.0       0.0       0.0       0.0       0.0       0.6
16 Cl s               0.0       0.0       0.0       0.0       0.0       6.9
16 Cl pz              0.0       0.0       0.0       0.0       0.0       0.1
16 Cl px              0.0       0.0       0.0       0.0       0.0       0.4
16 Cl py              0.0       0.0       0.0       0.0       0.0       0.9
16 Cl dxy             0.0       0.0       0.0       0.0       0.0       0.1
17 Cl s               0.0       0.0       0.0       0.0       0.0       6.4
17 Cl px              0.0       0.0       0.0       0.0       0.0       1.3
17 Cl dz2             0.0       0.0       0.0       0.0       0.0       0.1
17 Cl dx2y2           0.0       0.0       0.0       0.0       0.0       0.2
18 Cl s               0.0       0.0       0.0       0.0       0.0       3.7
18 Cl px              0.0       0.0       0.0       0.0       0.0       0.1
18 Cl py              0.0       0.0       0.0       0.0       0.0       0.6
21 H  s               0.0       0.0       0.0       0.0       0.0       0.4

                     48        49        50        51        52        53   
                  -0.91923  -0.88777  -0.86882  -0.86769  -0.84379  -0.83355
                   2.00000   2.00000   2.00000   2.00000   2.00000   2.00000
                  --------  --------  --------  --------  --------  --------
 0 C  s               4.8       0.0       0.7       2.4       4.6       0.1
 0 C  pz              0.1       0.0       0.2       0.1       0.2       0.0
 0 C  px              1.6       0.1       0.5       1.5       0.1       0.1
 0 C  py              0.3       0.0       0.3       0.2       0.6       0.0
 1 C  s               3.1       0.6       3.8       0.0       7.0       0.0
 1 C  pz              0.0       0.0       0.0       0.3       0.0       0.0
 1 C  px              1.4       0.3       0.6       0.0       0.4       0.2
 1 C  py              0.0       0.2       0.0       0.7       0.0       0.1
 2 C  s               4.7       0.1       1.1       1.9       4.4       0.1
 2 C  pz              0.1       0.1       0.2       0.1       0.2       0.0
 2 C  px              1.6       0.3       0.4       1.8       0.0       0.2
 2 C  py              0.3       0.0       0.2       0.3       0.6       0.0
 3 C  s              13.2       0.0       0.0       9.9       0.7       0.3
 3 C  pz              0.1       0.0       0.0       1.4       0.1       0.2
 3 C  px              0.5       0.1       0.6       0.7       2.6       0.0
 3 C  py              0.3       0.0       0.0       3.4       0.3       0.5
 3 C  dyz             0.1       0.0       0.0       0.1       0.0       0.0
 4 C  s              18.3       0.3       0.7       0.0       3.0       0.5
 4 C  pz              0.0       0.0       0.0       2.3       0.0       0.0
 4 C  px              0.0       0.1       0.7       0.0      10.3       1.7
 4 C  py              0.0       0.0       0.0       5.7       0.0       0.0
 4 C  dyz             0.1       0.0       0.0       0.0       0.0       0.0
 4 C  dx2y2           0.0       0.0       0.0       0.0       0.2       0.0
 5 C  s              13.4       0.1       0.1       9.6       0.6       0.3
 5 C  pz              0.1       0.0       0.0       1.5       0.1       0.2
 5 C  px              0.5       0.1       0.8       0.4       2.8       0.0
 5 C  py              0.3       0.0       0.0       3.5       0.3       0.4
 5 C  dyz             0.1       0.0       0.0       0.1       0.0       0.0
 6 Cl s               6.6       0.2       0.6      23.2       0.4       1.6
 6 Cl pz              0.3       0.0       0.0       0.3       0.0       0.0
 6 Cl px              0.2       0.0       0.0       0.4       0.1       0.0
 6 Cl py              0.7       0.0       0.0       0.7       0.0       0.0
 6 Cl dyz             0.1       0.0       0.0       0.1       0.0       0.0
 6 Cl dxy             0.1       0.0       0.0       0.2       0.0       0.0
 7 Cl s               9.8       0.4       2.1       0.0      26.4       5.5
 7 Cl px              1.8       0.0       0.1       0.0       0.8       0.1
 7 Cl py              0.0       0.0       0.0       0.1       0.0       0.0
 7 Cl dz2             0.1       0.0       0.0       0.0       0.1       0.0
 7 Cl dx2y2           0.3       0.0       0.0       0.0       0.2       0.0
 8 Cl s               6.5       0.1       0.0      23.7       0.7       2.0
 8 Cl pz              0.3       0.0       0.0       0.3       0.0       0.0
 8 Cl px              0.2       0.0       0.0       0.4       0.1       0.0
 8 Cl py              0.7       0.0       0.0       0.7       0.0       0.0
 8 Cl dyz             0.1       0.0       0.0       0.1       0.0       0.0
 8 Cl dxy             0.1       0.0       0.0       0.2       0.0       0.0
 9 C  s               0.1       1.7       6.6       0.1       0.9       0.2
 9 C  pz              0.0       0.3       0.0       0.0       0.0       0.1
 9 C  px              0.8       0.0       0.1       0.0       1.6       0.0
 9 C  py              0.0       2.1       0.1       0.0       0.1       0.4
10 C  s               0.0       0.6       5.5       0.0       0.0       0.2
10 C  px              0.3       2.3       0.1       0.0       0.8       0.3
10 C  py              0.0       0.7       0.3       0.0       0.2       0.2
11 C  s               0.5       9.4       4.1       0.0       0.9       0.9
11 C  pz              0.0       0.2       0.3       0.0       0.2       0.3
11 C  px              0.1       1.8       0.7       0.0       0.0       0.1
11 C  py              0.0       1.2       2.3       0.0       1.7       2.5
12 C  s               0.9       4.4       2.1       0.0       0.8       1.9
[...]
20 H  s               5.9       0.0       0.5       0.5       4.1       0.0
20 H  pz              5.5       0.0       0.4       0.3       2.4       0.0
20 H  px              4.6       0.2       0.4       0.3       2.8       0.0
20 H  py             11.7       0.0       0.8       0.7       5.0       0.0
21 H  s               0.0       0.4       6.2       2.1       0.9       0.0
21 H  pz              0.0       0.1       1.5       0.5       0.2       0.0
21 H  px              0.0       0.6       5.4       1.5       0.8       0.0
21 H  py              0.0       0.6      11.0       4.1       1.4       0.0

                    414       415       416       417       418       419   
                  21.27512  21.69659  21.77994  21.81840  21.90494  22.04169
                   0.00000   0.00000   0.00000   0.00000   0.00000   0.00000
                  --------  --------  --------  --------  --------  --------
 0 C  s               6.2       5.4       1.1       7.6       9.0       3.3
 1 C  s               4.7      18.2       4.1       0.1       4.8       6.8
 2 C  s               6.5       1.8       1.8      11.5       9.8       2.3
 3 C  s              17.8       2.3       0.7      38.6       0.1       7.4
 4 C  s              21.9       9.5       3.5       0.2      20.6      24.2
 4 C  py              0.0       0.0       0.0       0.2       0.0       0.0
 5 C  s              17.7       1.3       0.1      41.0       0.3       6.2
 9 C  s               1.3      19.3       2.2       0.1       2.4      13.9
10 C  s               1.9       0.8       9.8       0.1      10.2       0.2
11 C  s               5.0      11.1      27.3       0.1       5.0      11.8
12 C  s               6.3      17.5       0.5       0.0      22.1      16.4
12 C  py              0.0       0.0       0.2       0.0       0.0       0.0
13 C  s               6.3       0.6      32.8       0.0       4.8       1.5
13 C  px              0.0       0.1       0.0       0.0       0.0       0.0
14 C  s               4.1      11.5      15.5       0.1      10.3       5.4

                    420       421       422       423       424       425   
                  22.08700  22.15030  22.18865  22.26306  22.31145  25.12687
                   0.00000   0.00000   0.00000   0.00000   0.00000   0.00000
                  --------  --------  --------  --------  --------  --------
 0 C  s               6.7       6.0      29.2       1.4      19.8       0.0
 1 C  s               0.0      15.8       2.2      19.9      18.1       0.1
 1 C  py              0.0       0.0       0.1       0.0       0.0       0.0
 2 C  s               6.3       0.1      32.8       7.2      16.4       0.0
 3 C  s               2.8       6.8      11.0       0.8       6.9       0.0
 4 C  s               0.0       8.4       0.4       0.6       5.1       0.1
 5 C  s               2.2      15.6       3.3       0.0       7.3       0.0
 6 Cl s               0.0       0.0       0.0       0.0       0.0      10.0
 7 Cl s               0.0       0.0       0.0       0.0       0.0      17.3
 8 Cl s               0.0       0.0       0.0       0.0       0.0       9.9
 9 C  s               0.0      11.2       2.4      33.3       4.4       0.0
10 C  s              29.0       4.1       5.3      20.2      10.1       0.0
11 C  s               2.6      13.3       1.3       5.1       3.8       0.0
12 C  s               6.9       8.6       0.1       4.0       1.7       0.1
13 C  s              21.3       8.8       2.4       2.2       2.7       0.1
14 C  s              21.8       0.8       9.1       4.8       3.2       0.0
15 Cl s               0.0       0.0       0.0       0.0       0.0       7.8
16 Cl s               0.0       0.0       0.0       0.0       0.0      21.1
17 Cl s               0.0       0.0       0.0       0.0       0.0      23.3
18 Cl s               0.0       0.0       0.0       0.0       0.0       9.7

                    426       427       428       429       430       431   
                  25.25544  25.36047  25.41265  25.54192  25.58928  25.64890
                   0.00000   0.00000   0.00000   0.00000   0.00000   0.00000
                  --------  --------  --------  --------  --------  --------
 1 C  s               0.1       0.0       0.0       0.0       0.0       0.0
 1 C  px              0.2       0.0       0.0       0.0       0.0       0.0
 3 C  py              0.0       0.0       0.2       0.0       0.1       0.0
 4 C  s               0.1       0.0       0.0       0.0       0.1       0.0
 4 C  px              0.1       0.0       0.0       0.0       0.4       0.0
 5 C  py              0.0       0.0       0.2       0.0       0.1       0.0
 6 Cl s              14.9       0.4      48.7       0.9      23.9       0.1
 7 Cl s              31.3       0.1       0.0       0.0      49.6       0.7
 8 Cl s              14.6       0.0      50.1       0.2      23.9       0.3
 9 C  s               0.1       0.0       0.0       0.0       0.0       0.0
 9 C  px              0.2       0.0       0.0       0.1       0.0       0.0
11 C  py              0.0       0.2       0.0       0.2       0.0       0.0
12 C  px              0.1       0.0       0.0       0.2       0.0       0.2
13 C  px              0.0       0.0       0.0       0.0       0.0       0.1
13 C  py              0.0       0.1       0.0       0.0       0.0       0.2
14 C  py              0.0       0.1       0.0       0.1       0.0       0.2
15 Cl s               1.2      22.6       0.2      34.8       0.0      32.1
16 Cl s              11.6      24.4       0.0       0.4       0.3      41.3
17 Cl s              19.2       5.3       0.0      30.6       1.0      19.6
18 Cl s               6.0      46.4       0.0      31.9       0.1       4.8



                      *****************************
                      * MAYER POPULATION ANALYSIS *
                      *****************************

  NA   - Mulliken gross atomic population
  ZA   - Total nuclear charge
  QA   - Mulliken gross atomic charge
  VA   - Mayer's total valence
  BVA  - Mayer's bonded valence
  FA   - Mayer's free valence

  ATOM       NA         ZA         QA         VA         BVA        FA
  0 C      6.2710     6.0000    -0.2710     3.7882     3.7882     0.0000
  1 C      5.8109     6.0000     0.1891     3.4744     3.4744    -0.0000
  2 C      6.2485     6.0000    -0.2485     3.8093     3.8093    -0.0000
  3 C      5.9004     6.0000     0.0996     3.6268     3.6268    -0.0000
  4 C      5.9560     6.0000     0.0440     3.5753     3.5753     0.0000
  5 C      5.8947     6.0000     0.1053     3.6088     3.6088     0.0000
  6 Cl    17.0917    17.0000    -0.0917     1.1996     1.1996     0.0000
  7 Cl    17.0679    17.0000    -0.0679     1.2453     1.2453     0.0000
  8 Cl    17.0900    17.0000    -0.0900     1.2011     1.2011    -0.0000
  9 C      5.8230     6.0000     0.1770     3.2578     3.2578    -0.0000
 10 C      6.3178     6.0000    -0.3178     3.7657     3.7657    -0.0000
 11 C      5.8869     6.0000     0.1131     3.6038     3.6038    -0.0000
 12 C      5.9225     6.0000     0.0775     3.4316     3.4316     0.0000
 13 C      5.9667     6.0000     0.0333     3.2865     3.2865     0.0000
 14 C      6.0120     6.0000    -0.0120     3.5938     3.5938     0.0000
 15 Cl    17.0594    17.0000    -0.0594     1.2638     1.2638    -0.0000
 16 Cl    17.0588    17.0000    -0.0588     1.2601     1.2601    -0.0000
 17 Cl    17.0576    17.0000    -0.0576     1.2598     1.2598     0.0000
 18 Cl    17.0864    17.0000    -0.0864     1.2058     1.2058    -0.0000
 19 H      0.8281     1.0000     0.1719     0.9625     0.9625     0.0000
 20 H      0.8236     1.0000     0.1764     0.9587     0.9587     0.0000
 21 H      0.8260     1.0000     0.1740     0.9627     0.9627    -0.0000

  Mayer bond orders larger than 0.100000
B(  0-C ,  1-C ) :   1.3574 B(  0-C ,  5-C ) :   1.3408 B(  0-C , 19-H ) :   0.9297 
B(  1-C ,  2-C ) :   1.3473 B(  1-C ,  9-C ) :   0.7484 B(  2-C ,  3-C ) :   1.3586 
B(  2-C , 20-H ) :   0.9193 B(  3-C ,  4-C ) :   1.2085 B(  3-C ,  8-Cl) :   1.0774 
B(  4-C ,  5-C ) :   1.2199 B(  4-C ,  7-Cl) :   1.2086 B(  5-C ,  6-Cl) :   1.0743 
B(  9-C , 10-C ) :   1.3614 B(  9-C , 14-C ) :   1.2487 B( 10-C , 11-C ) :   1.3165 
B( 10-C , 21-H ) :   0.9264 B( 11-C , 12-C ) :   1.2121 B( 11-C , 18-Cl) :   1.0859 
B( 12-C , 13-C ) :   1.0949 B( 12-C , 17-Cl) :   1.2525 B( 13-C , 14-C ) :   1.0984 
B( 13-C , 16-Cl) :   1.2750 B( 14-C , 15-Cl) :   1.2935 

-------
TIMINGS
-------

Total SCF time: 0 days 0 hours 0 min 54 sec 

Total time                  ....      54.769 sec
Sum of individual times     ....      54.721 sec  ( 99.9%)

SCF preparation             ....       0.958 sec  (  1.7%)
Fock matrix formation       ....      48.421 sec  ( 88.4%)
  Startup                   ....       0.017 sec  (  0.0% of F)
  Split-RI-J                ....      16.673 sec  ( 34.4% of F)
  XC integration            ....      31.553 sec  ( 65.2% of F)
    Basis function eval.    ....       5.026 sec  ( 15.9% of XC)
    Density eval.           ....      12.505 sec  ( 39.6% of XC)
    XC-Functional eval.     ....       2.424 sec  (  7.7% of XC)
    XC-Potential eval.      ....      11.035 sec  ( 35.0% of XC)
Diagonalization             ....       0.000 sec  (  0.0%)
Density matrix formation    ....       0.087 sec  (  0.2%)
Total Energy calculation    ....       0.009 sec  (  0.0%)
Population analysis         ....       4.571 sec  (  8.3%)
Orbital Transformation      ....       0.079 sec  (  0.1%)
Orbital Orthonormalization  ....       0.000 sec  (  0.0%)
DIIS solution               ....       0.467 sec  (  0.9%)
  MO trafo                  ....       0.000 sec  (  0.0 % of DIIS)
  Orb grad                  ....       0.000 sec  (  0.0 % of DIIS)
  Energy W gradient         ....       0.000 sec  (  0.0 % of DIIS)
  DIIS error                ....       0.066 sec  ( 14.1 % of DIIS)
  DIIS work                 ....       0.358 sec  ( 76.7 % of DIIS)
  Form Q                    ....       0.000 sec  (  0.0 % of DIIS)
  Form QpQm                 ....       0.000 sec  (  0.0 % of DIIS)
  Exp/Cayley                ....       0.000 sec  (  0.0 % of DIIS)
  Orb update                ....       0.000 sec  (  0.0 % of DIIS)
  Wake-sleep                ....       0.003 sec  (  0.7 % of DIIS)
SOSCF solution              ....       0.127 sec  (  0.2%)
  MO trafo                  ....       0.073 sec  ( 57.4 % of SOSCF)
  Orb grad                  ....       0.001 sec  (  0.6 % of SOSCF)
  Rot update                ....       0.006 sec  (  4.3 % of SOSCF)
  Step                      ....       0.048 sec  ( 37.5 % of SOSCF)
Finished LeanSCF after  59.4 sec

Maximum memory used throughout the entire LEANSCF-calculation: 52.6 MB


-------------------------------------------------------------------------------
                          DFT DISPERSION CORRECTION                            
                                                                               
                                DFTD4 V3.4.0                                   
-------------------------------------------------------------------------------
The R2SCAN3C composite method is recognized
Using three-body term ABC
Active option DFTDOPT                   ...         5   

-------------------------   ----------------
Dispersion correction           -0.015281513
-------------------------   ----------------

------------------   -----------------
gCP correction             0.013536149
------------------   -----------------

-------------------------   --------------------
FINAL SINGLE POINT ENERGY     -3680.218118038814
-------------------------   --------------------


------------------------------------------------------------------------------
                              ORCA PROPERTY CALCULATIONS
------------------------------------------------------------------------------

GBWName                                 ... sp.gbw
Number of atoms                         ...     22
Number of basis functions               ...    432
Max core memory                         ...   1024 MB

Electric properties:
Dipole moment                           ... YES
Quadrupole moment                       ...  NO
Static polarizability (Dipole/Dipole)   ...  NO
Static polarizability (Dipole/Quad.)    ...  NO
Static polarizability (Quad./Quad.)     ...  NO
Static polarizability (Velocity)        ...  NO

Atomic electric properties:
Dipole moment                           ...  NO
Quadrupole moment                       ...  NO
Static polarizability                   ...  NO

Choice of electric origin               ... Center of mass
Position of electric origin             ...    -0.000001     0.000001     0.000000

General magnetic properties:
Magnetizability                         ...  NO

EPR properties:
g-Tensor (aka g-matrix)                 ...  NO
Zero-Field splitting spin-orbit         ...  NO
Zero-field splitting spin-spin          ...  NO
Hyperfine couplings                     ...  NO (   0 nuclei)
Quadrupole couplings                    ...  NO (   0 nuclei)
Contact density                         ...  NO (   0 nuclei)

NMR properties:
Chemical shifts                         ...  NO (   0 nuclei)
Spin-rotation constants                 ...  NO (   0 nuclei)
Spin-spin couplings                     ...  NO (   0 nuclei,    0 pairs)

Choice of magnetic origin               ... GIAO
Position of magnetic origin             ...     0.000000     0.000000     0.000000

Properties with geometric perturbations:
SCF Hessian                             ...  NO
IR spectrum                             ...  NO
VCD spectrum                            ...  NO
X-ray spectroscopy properties:
SCF XES/XAS/RIXS spectra                ...  NO


-------------
DIPOLE MOMENT
-------------

Method             : SCF
Type of density    : Electron Density
Multiplicity       :   1
Irrep              :   0
Energy             : -3680.2163726748758563 Eh
Relativity type    : 
Basis              : AO
                                X                 Y                 Z
Electronic contribution:      1.721852593      -3.366702896      -1.283703976
Nuclear contribution   :     -1.500808653       3.585345349       1.385720658
                        -----------------------------------------
Total Dipole Moment    :      0.221043940       0.218642453       0.102016681
                        -----------------------------------------
Magnitude (a.u.)       :      0.327219115
Magnitude (Debye)      :      0.831724892



--------------------
Rotational spectrum 
--------------------
 
Rotational constants in cm-1:             0.011824             0.003394             0.002883 
Rotational constants in MHz :           354.476704           101.755084            86.431885 

Dipole components along the rotational axes: 
x,y,z [a.u.] :     0.221044     0.218642     0.102017 
x,y,z [Debye]:     0.561849     0.555745     0.259306 

 

Dipole moment calculation done in   1.1 sec 

Maximum memory used throughout the entire PROP-calculation: 37.7 MB

--------------------------------
SUGGESTED CITATIONS FOR THIS RUN
--------------------------------

Below you find a list of papers that are relevant to this ORCA run
We neither can nor want to force you to cite these papers, but we appreciate if you do
You receive ORCA, which is the product of decades of hard work by many enthusiastic individuals, for free
The only thing we kindly ask in return is that you cite our papers,
We deeply appreciate it, if you show your appreciation for ORCA by not just citing the generic ORCA reference.

Please note that relegating all ORCA citations to the supporting information does *not* help us.
SI sections are not indexed - citations you put there will not count into any citation statistics
But we need these citations in order to attract the funding resources that allow us to do what we are doing

Therefore, if you are a happy ORCA user, please consider citing a few of the papers listed below in the main body of your paper

In addition to the list printed below, the program has created the file sp.bibtex that contains the list in bibtex format
You can import this file easily into all common literature databanks and citation aid programs


List of essential papers. We consider these as the minimum necessary citations

  1. Neese,F.
     Software update: the ORCA program system, version 5.0
     WIRES Comput. Molec. Sci., 2022 12(1)e1606
     doi.org/10.1002/wcms.1606
  2. Grimme,S.; Hansen,A.; Ehlert,S.; Mewes,J.
     r2SCAN-3c: A 'Swiss army knife' composite electronic-structure method
     J. Chem. Phys., 2021 154 064103
     doi.org/10.1063/5.0040021

List of papers to cite with high priority. The work reported in these papers was absolutely
necessary for this run to complete.
Our perspective: the developers of density functionals and basis sets usually get cited in chemistry papers
Good! But without the algorithms to do something with them, the functionals or basis sets would not do anything.
Hence, in our opinion, the algorithm design and method developments papers are equally worthy of getting cited

  1. Neese,F.
     An improvement of the resolution of the identity approximation for the formation of the Coulomb matrix
     J. Comp. Chem., 2003 24(14)1740-1747
     doi.org/10.1002/jcc.10318
  2. Neese,F.
     The SHARK Integral Generation and Digestion System
     J. Comp. Chem., 2022  1-16
     doi.org/10.1002/jcc.26942
  3. Lehtola,S.; Steigemann,C.; Oliveira,M.; Marques,M.
     Recent developments in Libxc - A comprehensive library of functionals for density functional theory
     Software X, 2018 7 
     doi.org/10.1016/j.softx.2017.11.002
  4. Caldeweyher,E.; Bannwarth,C.; Grimme,S.
     Extension of the D3 dispersion coefficient model
     J. Chem. Phys., 2017 147 034112
     doi.org/10.1063/1.4993215
  5. Caldeweyher,E.; Ehlert,S.; Hansen,A.; Neugebauer,H.; Spicher,S.; Bannwarth,C.; Grimme,S.
     A generally applicable atomic-charge dependent London dispersion correction
     J. Chem. Phys., 2019 150 154122
     doi.org/10.1063/1.5090222
  6. Caldeweyher,E.; Mewes,J.; Ehlert,S.; Grimme,S.
     Extension and evaluation of the D4 London-dispersion model for periodic systems
     Phys. Chem. Chem. Phys., 2020 22(16)8499-8512
     doi.org/10.1039/D0CP00502A
  7. Wittmann,L.; Gordiy,I.; Friede,M.; Helmich-Paris,B.; Grimme,S.; Hansen,A.; Bursch,M.
     Extension of the D3 and D4 London Dispersion Corrections to the full Actinides Series
     Phys. Chem. Chem. Phys., 2024 26(32)21379-21394
     doi.org/https://doi.org/10.1039/D4CP01514B 

List of suggested additional citations. These are papers that are important in the 'surrounding' of 
of this run, or papers that preceded the highly important papers. If you like your results we are grateful for a citation.

  1. Neese,F.
     The ORCA program system
     WIRES Comput. Molec. Sci., 2012 2(1)73-78
     doi.org/10.1002/wcms.81
  2. Neese,F.
     Software update: the ORCA program system, version 4.0
     WIRES Comput. Molec. Sci., 2018 8(1)1-6
     doi.org/10.1002/wcms.1327
  3. Neese,F.; Wennmohs,F.; Becker,U.; Riplinger,C.
     The ORCA quantum chemistry program package
     J. Chem. Phys., 2020 152 Art. No. L224108
     doi.org/10.1063/5.0004608

List of optional additional citations

  1. Neese,F.
     Approximate second-order SCF convergence for spin unrestricted wavefunctions
     Chem. Phys. Lett., 2000 325(1-3)93-98
     doi.org/10.1016/s0009-2614(00)00662-x

Timings for individual modules:

Sum of individual times          ...       62.482 sec (=   1.041 min)
Startup calculation              ...        1.769 sec (=   0.029 min)   2.8 %
SCF iterations                   ...       59.579 sec (=   0.993 min)  95.4 %
Property calculations            ...        1.134 sec (=   0.019 min)   1.8 %
                             ****ORCA TERMINATED NORMALLY****
TOTAL RUN TIME: 0 days 0 hours 1 minutes 6 seconds 173 msec
