13
 energy: -13.917902065969 gnorm: 0.018241785146 xtb: 6.7.1 (edcfbbe)
C           -1.58522888920536        0.13117842811387       -0.51456937516271
C           -0.67163974275756       -0.48341922092433        0.54386179174049
C            0.69705292810387        0.20376428510883        0.64266740973488
N            1.54359559658771        0.14585045625092       -0.55578738613883
H           -1.15768568969644        0.03714761140782       -1.51837641021863
H           -2.56243496694478       -0.36027220469757       -0.53140610610931
H           -1.74973747712661        1.19684750643952       -0.31822030875019
H           -0.52181924811956       -1.55100957571015        0.33143192359992
H           -1.16098516658581       -0.42952384413384        1.52561902430361
H            0.55236644141129        1.26240760419176        0.89744029621477
H            1.26170622040950       -0.23767537243624        1.47379803056902
H            1.65786029833725       -0.82002845658266       -0.84672653914024
H            1.08649672697362        0.61986364513120       -1.32669366593923
13
 energy: -13.918468785710 gnorm: 0.006772202666 xtb: 6.7.1 (edcfbbe)
C           -1.57849336629076        0.13321590782239       -0.51440892969181
C           -0.67122063871917       -0.48753517938452        0.53972042663941
C            0.69123654182567        0.21046792312946        0.64290526821839
N            1.52805531536494        0.14327831328437       -0.54743165628053
H           -1.14851288774141        0.03805829665610       -1.51197164125751
H           -2.54867141846769       -0.36194190863241       -0.52206910563080
H           -1.73673738935548        1.19237804824469       -0.30900405977606
H           -0.51990229206154       -1.54899334424102        0.31341620486691
H           -1.15962429673504       -0.42810885270939        1.51682331942198
H            0.54797870554521        1.27021015688446        0.88070981736390
H            1.26236624884308       -0.24065402774109        1.46139675970115
H            1.65046174831115       -0.82561934727580       -0.82823207726693
H            1.07261076086817        0.62037487612190       -1.31881564160452
13
 energy: -13.918525347898 gnorm: 0.002202009822 xtb: 6.7.1 (edcfbbe)
C           -1.57890504504787        0.13512714447404       -0.51353735164518
C           -0.67235680925851       -0.48847822346509        0.54066907313212
C            0.69108459123078        0.21064462035852        0.64128882121521
N            1.52372124662417        0.14193702268354       -0.54661714766870
H           -1.14755140171912        0.04011848500407       -1.50850837188123
H           -2.54742788070331       -0.35939000759084       -0.52085545554587
H           -1.73370542066002        1.19192174170557       -0.30532897260927
H           -0.51568557276903       -1.54582414003670        0.30771166748659
H           -1.16033415057319       -0.43223167471435        1.51604195271615
H            0.54221659870429        1.26886957830053        0.87327155937961
H            1.26216981255143       -0.23838550619778        1.45962541353029
H            1.65632227941354       -0.82723726686624       -0.82117321861868
H            1.06999878359397        0.61805908850386       -1.31954928478749
13
 energy: -13.918535717213 gnorm: 0.000805867018 xtb: 6.7.1 (edcfbbe)
C           -1.58037752451996        0.13634009622763       -0.51251737487105
C           -0.67249523617888       -0.49019122855772        0.54014137966252
C            0.69108474200980        0.21185501683980        0.63999729624627
N            1.52325721733534        0.14103789952066       -0.54670848465853
H           -1.14927515156763        0.04213905188249       -1.50744830970534
H           -2.54920519090941       -0.35719521712216       -0.51983938354568
H           -1.73336928050118        1.19274778985123       -0.30206861995293
H           -0.51436023863079       -1.54621890488669        0.30383697035337
H           -1.15968034986845       -0.43685384328503        1.51547405568484
H            0.53938357545275        1.26977932615368        0.87033718200202
H            1.26083362789726       -0.23458627295932        1.46042114407582
H            1.66280603120688       -0.82800296853910       -0.81685053400311
H            1.07094480966141        0.61428011703364       -1.32173663658463
13
 energy: -13.918541681723 gnorm: 0.001040068014 xtb: 6.7.1 (edcfbbe)
C           -1.58319235600851        0.13780915959673       -0.51091928996494
C           -0.67260801925003       -0.49197475776479        0.53846066874707
C            0.69096561915630        0.21305283215455        0.63816787364404
N            1.52488852752832        0.14027551971251       -0.54635727366166
H           -1.15403436466572        0.04535807497727       -1.50709557782200
H           -2.55303127345184       -0.35428796980845       -0.51743184702304
H           -1.73411927896777        1.19414099980802       -0.29733520276129
H           -0.51287216172495       -1.54665514288891        0.29748583354432
H           -1.15812146799637       -0.44360895132282        1.51483945136532
H            0.53564665943596        1.27119305934365        0.86604603820139
H            1.25896128033305       -0.22915843921740        1.46233387105754
H            1.67369501395250       -0.82846927512017       -0.81028230170519
H            1.07336885304620        0.60745575268895       -1.32487355891799
13
 energy: -13.918544802160 gnorm: 0.000638654128 xtb: 6.7.1 (edcfbbe)
C           -1.58425205865452        0.13857334952179       -0.51001600672229
C           -0.67228138871735       -0.49242062831051        0.53691449393293
C            0.69039211541218        0.21360305306626        0.63758237646357
N            1.52640341924583        0.14022966590332       -0.54561788446888
H           -1.15702827236394        0.04748676255944       -1.50724558240853
H           -2.55421159622798       -0.35348687566318       -0.51555288052913
H           -1.73517346748520        1.19476433186338       -0.29519841844940
H           -0.51189316206229       -1.54668454405250        0.29394498931834
H           -1.15700338960391       -0.44652032111688        1.51400357396335
H            0.53415283648978        1.27212030107272        0.86391484039964
H            1.25784775454539       -0.22710278295250        1.46303667710170
H            1.67860305433325       -0.82872652151258       -0.80660029303274
H            1.07399118647589        0.60329507178039       -1.32612720086500
13
 energy: -13.918547488460 gnorm: 0.000197375573 xtb: 6.7.1 (edcfbbe)
C           -1.58526709287538        0.13946259226050       -0.50911633627948
C           -0.67173820936530       -0.49255841046503        0.53525680603740
C            0.68973220395065        0.21434206677436        0.63729680489437
N            1.52783572292970        0.14027642880013       -0.54476861115837
H           -1.15990821337062        0.05043909892141       -1.50731812962244
H           -2.55505851960816       -0.35290906268073       -0.51385065094154
H           -1.73627991147469        1.19520165616096       -0.29239254052840
H           -0.51027696747085       -1.54605377961875        0.28947625960095
H           -1.15602400193608       -0.45003677448826        1.51283339573586
H            0.53264210690003        1.27315802546384        0.86148056201701
H            1.25685294369103       -0.22472619150366        1.46378755094205
H            1.68367574939893       -0.82924708561388       -0.80202545625872
H            1.07336122061789        0.59778229814823       -1.32762096973514
13
 energy: -13.918548705388 gnorm: 0.000213981532 xtb: 6.7.1 (edcfbbe)
C           -1.58594629317719        0.14042835722768       -0.50835952747295
C           -0.67133055694899       -0.49310763301375        0.53417316800451
C            0.68918238283604        0.21511108349103        0.63689906524681
N            1.52871992052885        0.14009381407745       -0.54431784737937
H           -1.16150851830963        0.05327507822563       -1.50709166179158
H           -2.55537234670108       -0.35256536908766       -0.51300344614917
H           -1.73750530571142        1.19572375865650       -0.28988785256003
H           -0.50881663664150       -1.54600069812399        0.28635488067440
H           -1.15535010927647       -0.45296694903091        1.51198148289338
H            0.53126410573910        1.27414470753665        0.85947070191201
H            1.25594549181288       -0.22255149546644        1.46429363110916
H            1.68734374343636       -0.82984715567291       -0.79854329758943
H            1.07292115380018        0.59339336333985       -1.32893061219419
13
 energy: -13.918549374919 gnorm: 0.000178633534 xtb: 6.7.1 (edcfbbe)
C           -1.58658392982984        0.14080917171212       -0.50798867637972
C           -0.67114086481032       -0.49318421213072        0.53361005179479
C            0.68912079553952        0.21550287888142        0.63667671355186
N            1.52926643974920        0.13975976137317       -0.54410275837297
H           -1.16222573546487        0.05542289052876       -1.50690075476070
H           -2.55568756804058       -0.35283733393158       -0.51308411584148
H           -1.73872872668850        1.19565900710143       -0.28787959800091
H           -0.50816765188878       -1.54566466802465        0.28448831508851
H           -1.15494584696078       -0.45443847991861        1.51155465334979
H            0.53060783311846        1.27466413310254        0.85815965900733
H            1.25567691255917       -0.22112395347508        1.46475473293996
H            1.68933222370687       -0.83037259535243       -0.79659498419456
H            1.07302315039759        0.59093426229276       -1.32965455347832
13
 energy: -13.918549937753 gnorm: 0.000098100141 xtb: 6.7.1 (edcfbbe)
C           -1.58699859258493        0.14117240535047       -0.50762342717813
C           -0.67109389280909       -0.49330371570991        0.53336651432365
C            0.68904051414819        0.21581011239929        0.63630973769787
N            1.52964441599085        0.13927139593822       -0.54404294940913
H           -1.16227738689931        0.05770309292759       -1.50653105753435
H           -2.55553064279531       -0.35357055202344       -0.51363666907238
H           -1.74034578984610        1.19551923777946       -0.28599465447221
H           -0.50778308001396       -1.54551769014420        0.28344719182823
H           -1.15466505666965       -0.45537382619423        1.51142805952240
H            0.53012045526309        1.27507585031656        0.85693260972846
H            1.25530041887196       -0.21999322447970        1.46500437577955
H            1.69054585061346       -0.83100943063960       -0.79533648161183
H            1.07358981811794        0.58934720663861       -1.33028456489856
13
 energy: -13.918550532113 gnorm: 0.000074967307 xtb: 6.7.1 (edcfbbe)
C           -1.58752404520355        0.14152258323846       -0.50720250795772
C           -0.67099454468982       -0.49333157961605        0.53305849558721
C            0.68904401822311        0.21614819005897        0.63594935077769
N            1.53007271568445        0.13849377378190       -0.54395628463359
H           -1.16197846566433        0.06074716798242       -1.50597981156345
H           -2.55517627169148       -0.35494997048173       -0.51480498699195
H           -1.74290916133478        1.19517577965199       -0.28365985551031
H           -0.50745560882118       -1.54538222702928        0.28258542755181
H           -1.15424997812656       -0.45601499058299        1.51127619738756
H            0.52983488891652        1.27559213662105        0.85553308989575
H            1.25500534687286       -0.21878122804449        1.46531421244511
H            1.69132112152796       -0.83197779929713       -0.79420357153013
H            1.07455701569393        0.58788902587600       -1.33087107075442
13
 energy: -13.918551068770 gnorm: 0.000081057284 xtb: 6.7.1 (edcfbbe)
C           -1.58799371974929        0.14188063065069       -0.50672695850180
C           -0.67098308465749       -0.49324264305904        0.53288640119201
C            0.68897141685967        0.21650419570741        0.63543124428742
N            1.53068118313062        0.13756331300792       -0.54388296152605
H           -1.16142560080352        0.06454045962974       -1.50536556731518
H           -2.55447826090250       -0.35685317073359       -0.51630357042178
H           -1.74605922636440        1.19462787280287       -0.28078454180827
H           -0.50718484013404       -1.54509847308799        0.28170752732321
H           -1.15389450757300       -0.45667756700867        1.51133420262060
H            0.52955054047693        1.27616943646256        0.85378044931363
H            1.25454532082270       -0.21744566264578        1.46557760457963
H            1.69196794175262       -0.83316690626439       -0.79307118838397
H            1.07584986852884        0.58632937669739       -1.33154395665589
13
 energy: -13.918551395308 gnorm: 0.000053999216 xtb: 6.7.1 (edcfbbe)
C           -1.58846928962451        0.14224015767264       -0.50628703259468
C           -0.67083301955410       -0.49321423421118        0.53253960969791
C            0.68895463755613        0.21682780270436        0.63512578099424
N            1.53112763244733        0.13676540388772       -0.54375658353346
H           -1.16106360637014        0.06772294091015       -1.50475456471194
H           -2.55397369598498       -0.35834913330177       -0.51755520034753
H           -1.74873001234923        1.19422971827597       -0.27843653583050
H           -0.50678395500063       -1.54490687022082        0.28082117853131
H           -1.15344388976031       -0.45728993292029        1.51114106125967
H            0.52929798065083        1.27668969378465        0.85230626549264
H            1.25424443703909       -0.21622017721968        1.46594426369786
H            1.69248105726791       -0.83422336898256       -0.79197955022204
H            1.07673875506975        0.58485886177996       -1.33207000772991
13
 energy: -13.918551552583 gnorm: 0.000035562876 xtb: 6.7.1 (edcfbbe)
C           -1.58874343630321        0.14245716884562       -0.50602792387123
C           -0.67076351350894       -0.49321768725116        0.53233941247075
C            0.68887848811160        0.21708675939707        0.63490086424608
N            1.53147367890964        0.13632555251219       -0.54365403249100
H           -1.16100024153102        0.06958429513541       -1.50447927361382
H           -2.55373161306533       -0.35910204274096       -0.51812223669255
H           -1.75015328062398        1.19400145216171       -0.27696512865602
H           -0.50651094732108       -1.54476412412610        0.28010230431947
H           -1.15321238155653       -0.45787742408427        1.51105433365906
H            0.52907275212154        1.27706880694565        0.85137934628704
H            1.25399594324666       -0.21539942495947        1.46611962596251
H            1.69298829404998       -0.83482483475799       -0.79117695985952
H            1.07725328885782        0.58379236508144       -1.33243164705720
13
 energy: -13.918551645194 gnorm: 0.000028301296 xtb: 6.7.1 (edcfbbe)
C           -1.58894191917372        0.14263030013777       -0.50584897912932
C           -0.67070492025321       -0.49326353299966        0.53215353849257
C            0.68882290371295        0.21721563792757        0.63477400423779
N            1.53169906615019        0.13614067633730       -0.54357161400924
H           -1.16117501761075        0.07051131690408       -1.50433489033802
H           -2.55371509702700       -0.35932668369075       -0.51822519041416
H           -1.75078372102517        1.19397199917583       -0.27619473522077
H           -0.50625530820995       -1.54468417292267        0.27951913159075
H           -1.15305744492375       -0.45837742668648        1.51093259861160
H            0.52882114725096        1.27725859850469        0.85078855113345
H            1.25381793146265       -0.21486893044720        1.46628515966438
H            1.69354722339369       -0.83509829887443       -0.79055321424322
H            1.07747218764024        0.58302137879308       -1.33268567567226
