      -----------------------------------------------------------      
     |                   =====================                   |     
     |                           x T B                           |     
     |                   =====================                   |     
     |                         S. Grimme                         |     
     |          Mulliken Center for Theoretical Chemistry        |     
     |                    University of Bonn                     |     
      -----------------------------------------------------------      

   * xtb version 6.7.1 (edcfbbe) compiled by 'albert@albert-system' on 2024-07-22

   xtb is free software: you can redistribute it and/or modify it under
   the terms of the GNU Lesser General Public License as published by
   the Free Software Foundation, either version 3 of the License, or
   (at your option) any later version.
   
   xtb is distributed in the hope that it will be useful,
   but WITHOUT ANY WARRANTY; without even the implied warranty of
   MERCHANTABILITY or FITNESS FOR A PARTICULAR PURPOSE.  See the
   GNU Lesser General Public License for more details.
   
   Cite this work as:
   * C. Bannwarth, E. Caldeweyher, S. Ehlert, A. Hansen, P. Pracht,
     J. Seibert, S. Spicher, S. Grimme, WIREs Comput. Mol. Sci., 2020, 11,
     e01493. DOI: 10.1002/wcms.1493
   
   for GFN2-xTB:
   * C. Bannwarth, S. Ehlert and S. Grimme., J. Chem. Theory Comput., 2019,
     15, 1652-1671. DOI: 10.1021/acs.jctc.8b01176
   for GFN1-xTB:
   * S. Grimme, C. Bannwarth, P. Shushkov, J. Chem. Theory Comput., 2017,
     13, 1989-2009. DOI: 10.1021/acs.jctc.7b00118
   for GFN0-xTB:
   * P. Pracht, E. Caldeweyher, S. Ehlert, S. Grimme, ChemRxiv, 2019, preprint.
     DOI: 10.26434/chemrxiv.8326202.v1
   for GFN-FF:
   * S. Spicher and S. Grimme, Angew. Chem. Int. Ed., 2020, 59, 15665-15673.
     DOI: 10.1002/anie.202004239
   
   for ALPB and GBSA implicit solvation:
   * S. Ehlert, M. Stahn, S. Spicher, S. Grimme, J. Chem. Theory Comput.,
     2021, 17, 4250-4261. DOI: 10.1021/acs.jctc.1c00471
   
   for ddCOSMO and CPCM-X implicit solvation:
   * M. Stahn, S. Ehlert, S. Grimme, J. Phys. Chem. A,
     2023, XX, XXXX-XXXX. DOI: 10.1021/acs.jpca.3c04382
   
   for DFT-D4:
   * E. Caldeweyher, C. Bannwarth and S. Grimme, J. Chem. Phys., 2017,
     147, 034112. DOI: 10.1063/1.4993215
   * E. Caldeweyher, S. Ehlert, A. Hansen, H. Neugebauer, S. Spicher,
     C. Bannwarth and S. Grimme, J. Chem. Phys., 2019, 150, 154122.
     DOI: 10.1063/1.5090222
   * E. Caldeweyher, J.-M. Mewes, S. Ehlert and S. Grimme, Phys. Chem. Chem. Phys.
     2020, 22, 8499-8512. DOI: 10.1039/D0CP00502A
   
   for sTDA-xTB:
   * S. Grimme and C. Bannwarth, J. Chem. Phys., 2016, 145, 054103.
     DOI: 10.1063/1.4959605
   
   in the mass-spec context:
   * V. Asgeirsson, C. Bauer and S. Grimme, Chem. Sci., 2017, 8, 4879.
     DOI: 10.1039/c7sc00601b
   * J. Koopman and S. Grimme, ACS Omega 2019, 4, 12, 15120-15133.
     DOI: 10.1021/acsomega.9b02011
   
   for metadynamics refer to:
   * S. Grimme, J. Chem. Theory Comput., 2019, 155, 2847-2862
     DOI: 10.1021/acs.jctc.9b00143
   
   for SPH calculations refer to:
   * S. Spicher and S. Grimme, J. Chem. Theory Comput., 2021, 17, 1701-1714
     DOI: 10.1021/acs.jctc.0c01306
   
   for ONIOM refer to:
   * C. Plett, A. Katbashev, S. Ehlert, S. Grimme, M. Bursch,
     Phys. Chem. Chem. Phys., 2023, 25, 17860-17868. DOI: 10.1039/D3CP02178E
   
   for DIPRO refer to:
   * J. Kohn, N. Gildemeister, S. Grimme, D. Fazzi, A. Hansen,
     J. Chem. Phys., 2023, just accepted.
   
   for PTB refer to:
   * S. Grimme, M. Mueller, A. Hansen, J. Chem. Phys., 2023, 158, 124111.
     DOI: 10.1063/5.0137838
   
   with help from (in alphabetical order)
   P. Atkinson, C. Bannwarth, F. Bohle, G. Brandenburg, E. Caldeweyher
   M. Checinski, S. Dohm, S. Ehlert, S. Ehrlich, I. Gerasimov, C. Hölzer
   A. Katbashev, J. Kohn, J. Koopman, C. Lavigne, S. Lehtola, F. März, M. Müller,
   F. Musil, H. Neugebauer, J. Pisarek, C. Plett, P. Pracht, F. Pultar,
   J. Seibert, P. Shushkov, S. Spicher, M. Stahn, M. Steiner, T. Strunk,
   J. Stückrath, T. Rose, and J. Unsleber
   
 * started run on 2025/04/15 at 20:02:50.689     
   ID    Z sym.   atoms
    1    6 C      1-8, 11, 12
    2    8 O      9
    3    7 N      10
    4    1 H      13-25

           -------------------------------------------------
          |                Calculation Setup                |
           -------------------------------------------------

          program call               : /software/projects/pawsey0265/mwang1/xtb/bin/xtb xtb_rrho.coord --gfn2 --ohess vtight --chrg 0 --enso --norestart -I rrho-xcontrol-inp --parallel 1
          hostname                   : nid002793
          coordinate file            : xtb_rrho.coord
          omp threads                :                     1


           -------------------------------------------------
          |                 G F N 2 - x T B                 |
           -------------------------------------------------

        Reference                      10.1021/acs.jctc.8b01176
      * Hamiltonian:
        H0-scaling (s, p, d)           1.850000    2.230000    2.230000
        zeta-weighting                 0.500000
      * Dispersion:
        s8                             2.700000
        a1                             0.520000
        a2                             5.000000
        s9                             5.000000
      * Repulsion:
        kExp                           1.500000    1.000000
        rExp                           1.000000
      * Coulomb:
        alpha                          2.000000
        third order                    shell-resolved
        anisotropic                    true
        a3                             3.000000
        a5                             4.000000
        cn-shift                       1.200000
        cn-exp                         4.000000
        max-rad                        5.000000


          ...................................................
          :                      SETUP                      :
          :.................................................:
          :  # basis functions                  61          :
          :  # atomic orbitals                  61          :
          :  # shells                           37          :
          :  # electrons                        64          :
          :  max. iterations                   250          :
          :  Hamiltonian                  GFN2-xTB          :
          :  restarted?                      false          :
          :  GBSA solvation                  false          :
          :  PC potential                    false          :
          :  electronic temp.          300.0000000     K    :
          :  accuracy                    1.0000000          :
          :  -> integral cutoff          0.2500000E+02      :
          :  -> integral neglect         0.1000000E-07      :
          :  -> SCF convergence          0.1000000E-05 Eh   :
          :  -> wf. convergence          0.1000000E-03 e    :
          :  Broyden damping             0.4000000          :
          :  net charge                          0          :
          :  unpaired electrons                  0          :
          ...................................................

 iter      E             dE          RMSdq      gap      omega  full diag
   1    -35.4817041 -0.354817E+02  0.390E+00    3.46       0.0  T
   2    -35.5465041 -0.647999E-01  0.226E+00    3.42       1.0  T
   3    -35.5483199 -0.181582E-02  0.112E+00    3.65       1.0  T
   4    -35.5508948 -0.257489E-02  0.303E-01    3.62       1.0  T
   5    -35.5527650 -0.187025E-02  0.946E-02    3.66       1.0  T
   6    -35.5528645 -0.995074E-04  0.401E-02    3.67       1.0  T
   7    -35.5528679 -0.335011E-05  0.206E-02    3.66       1.0  T
   8    -35.5528720 -0.410516E-05  0.556E-03    3.66       3.6  T
   9    -35.5528721 -0.139149E-06  0.283E-03    3.66       7.1  T
  10    -35.5528723 -0.123276E-06  0.119E-03    3.66      16.8  T
  11    -35.5528723 -0.655763E-08  0.535E-04    3.66      37.4  T
  12    -35.5528723 -0.122881E-08  0.146E-04    3.66     137.0  T

   *** convergence criteria satisfied after 12 iterations ***

         #    Occupation            Energy/Eh            Energy/eV
      -------------------------------------------------------------
         1        2.0000           -0.6827339             -18.5781
       ...           ...                  ...                  ...
        26        2.0000           -0.4606675             -12.5354
        27        2.0000           -0.4387325             -11.9385
        28        2.0000           -0.4221879             -11.4883
        29        2.0000           -0.4054637             -11.0332
        30        2.0000           -0.3975323             -10.8174
        31        2.0000           -0.3856161             -10.4931
        32        2.0000           -0.3794362             -10.3250 (HOMO)
        33                         -0.2448810              -6.6636 (LUMO)
        34                         -0.2261078              -6.1527
        35                         -0.1857718              -5.0551
        36                         -0.0954714              -2.5979
        37                         -0.0081145              -0.2208
       ...                                ...                  ...
        61                          0.6410271              17.4432
      -------------------------------------------------------------
                  HL-Gap            0.1345553 Eh            3.6614 eV
             Fermi-level           -0.3121586 Eh           -8.4943 eV

 SCC (total)                   0 d,  0 h,  0 min,  0.057 sec
 SCC setup                      ...        0 min,  0.000 sec (  0.604%)
 Dispersion                     ...        0 min,  0.000 sec (  0.444%)
 classical contributions        ...        0 min,  0.000 sec (  0.132%)
 integral evaluation            ...        0 min,  0.004 sec (  7.644%)
 iterations                     ...        0 min,  0.040 sec ( 69.564%)
 molecular gradient             ...        0 min,  0.012 sec ( 21.225%)
 printout                       ...        0 min,  0.000 sec (  0.347%)

         :::::::::::::::::::::::::::::::::::::::::::::::::::::
         ::                     SUMMARY                     ::
         :::::::::::::::::::::::::::::::::::::::::::::::::::::
         :: total energy             -35.035018367766 Eh    ::
         :: gradient norm              0.023814244505 Eh/a0 ::
         :: HOMO-LUMO gap              3.661434940741 eV    ::
         ::.................................................::
         :: SCC energy               -35.552857891577 Eh    ::
         :: -> isotropic ES            0.039687967152 Eh    ::
         :: -> anisotropic ES          0.004813096955 Eh    ::
         :: -> anisotropic XC          0.017942593380 Eh    ::
         :: -> dispersion             -0.021256344757 Eh    ::
         :: repulsion energy           0.517839523811 Eh    ::
         :: add. restraining           0.000000000000 Eh    ::
         :: total charge               0.000000000000 e     ::
         :::::::::::::::::::::::::::::::::::::::::::::::::::::

      ----------------------------------------------------------- 
     |                   =====================                   |
     |                        A N C O P T                        |
     |                   =====================                   |
     |               Approximate Normal Coordinate               |
     |                Rational Function Optimizer                |
      ----------------------------------------------------------- 
      ----------------------------------------------------------- 
     |                   =====================                   |
     |                        A N C O P T                        |
     |                   =====================                   |
     |               Approximate Normal Coordinate               |
     |                Rational Function Optimizer                |
      ----------------------------------------------------------- 

          ...................................................
          :                      SETUP                      :
          :.................................................:
          :   optimization level         verytight          :
          :   max. optcycles                   500          :
          :   ANC micro-cycles                  20          :
          :   degrees of freedom                69          :
          :.................................................:
          :   RF solver                   davidson          :
          :   write xtbopt.log                true          :
          :   linear?                        false          :
          :   energy convergence         0.1000000E-06 Eh   :
          :   grad. convergence          0.2000000E-03 Eh/α :
          :   maxmium RF displ.          1.0000000          :
          :   Hlow (freq-cutoff)         0.1000000E-01      :
          :   Hmax (freq-cutoff)         5.0000000          :
          :   S6 in model hess.         20.0000000          :
          ...................................................

generating ANC from exact Hessian ...
Using Lindh-Hessian (1995)
 Shifting diagonal of input Hessian by   9.063530622175566E-003
 Lowest  eigenvalues of input Hessian
    0.000000    0.000000    0.000000    0.000000    0.000000    0.000000
    0.010000    0.010693    0.011351    0.014157    0.017425    0.019069
    0.019198    0.022308    0.023368    0.024219    0.025109    0.030588
 Highest eigenvalues
    1.545991    1.791811    1.853942    1.917579    2.000364    2.242920
 

........................................................................
.............................. CYCLE    1 ..............................
........................................................................

 iter      E             dE          RMSdq      gap      omega  full diag
   1    -35.5528723 -0.355529E+02  0.450E-05    3.66       0.0  T
   2    -35.5528723 -0.399325E-11  0.254E-05    3.66     787.5  T
   3    -35.5528723  0.703437E-12  0.151E-05    3.66    1328.8  T
     SCC iter.                  ...        0 min,  0.003 sec
     gradient                   ...        0 min,  0.012 sec
 * total energy  :   -35.0350184 Eh     change       -0.3074661E-09 Eh
   gradient norm :     0.0238148 Eh/α   predicted     0.0000000E+00 (-100.00%)
   displ. norm   :     0.1550986 α      lambda       -0.2033962E-02
   maximum displ.:     0.0618302 α      in ANC's #18, #15, #13, ...

........................................................................
.............................. CYCLE    2 ..............................
........................................................................

 iter      E             dE          RMSdq      gap      omega  full diag
   1    -35.5729156 -0.355729E+02  0.104E-01    3.70       0.0  T
   2    -35.5729420 -0.264026E-04  0.646E-02    3.70       1.0  T
   3    -35.5729409  0.109663E-05  0.265E-02    3.71       1.0  T
   4    -35.5729455 -0.455857E-05  0.491E-03    3.71       4.1  T
   5    -35.5729458 -0.388493E-06  0.215E-03    3.71       9.3  T
   6    -35.5729459 -0.452954E-07  0.106E-03    3.71      18.8  T
   7    -35.5729459 -0.576643E-08  0.371E-04    3.71      54.0  T
   8    -35.5729459 -0.908813E-09  0.157E-04    3.71     127.1  T
     SCC iter.                  ...        0 min,  0.007 sec
     gradient                   ...        0 min,  0.012 sec
 * total energy  :   -35.0363057 Eh     change       -0.1287370E-02 Eh
   gradient norm :     0.0063003 Eh/α   predicted    -0.1041455E-02 ( -19.10%)
   displ. norm   :     0.1120912 α      lambda       -0.3474783E-03
   maximum displ.:     0.0464440 α      in ANC's #4, #15, #13, ...

........................................................................
.............................. CYCLE    3 ..............................
........................................................................

 iter      E             dE          RMSdq      gap      omega  full diag
   1    -35.5800164 -0.355800E+02  0.596E-02    3.73       0.0  T
   2    -35.5800280 -0.115741E-04  0.360E-02    3.73       1.0  T
   3    -35.5800284 -0.341312E-06  0.166E-02    3.73       1.2  T
   4    -35.5800293 -0.920274E-06  0.341E-03    3.73       5.9  T
   5    -35.5800296 -0.295953E-06  0.102E-03    3.73      19.6  T
   6    -35.5800296 -0.634135E-08  0.535E-04    3.73      37.4  T
   7    -35.5800296 -0.936595E-09  0.184E-04    3.73     108.6  T
     SCC iter.                  ...        0 min,  0.007 sec
     gradient                   ...        0 min,  0.012 sec
 * total energy  :   -35.0365375 Eh     change       -0.2317252E-03 Eh
   gradient norm :     0.0031974 Eh/α   predicted    -0.1759763E-03 ( -24.06%)
   displ. norm   :     0.1317232 α      lambda       -0.1959679E-03
   maximum displ.:     0.0585943 α      in ANC's #7, #1, #4, ...

........................................................................
.............................. CYCLE    4 ..............................
........................................................................

 iter      E             dE          RMSdq      gap      omega  full diag
   1    -35.5823299 -0.355823E+02  0.632E-02    3.76       0.0  T
   2    -35.5823380 -0.807760E-05  0.367E-02    3.75       1.0  T
   3    -35.5823374  0.632402E-06  0.157E-02    3.76       1.3  T
   4    -35.5823391 -0.173869E-05  0.355E-03    3.75       5.6  T
   5    -35.5823394 -0.312200E-06  0.112E-03    3.75      17.9  T
   6    -35.5823394 -0.277604E-08  0.501E-04    3.75      39.9  T
   7    -35.5823394 -0.190203E-08  0.197E-04    3.75     101.3  T
     SCC iter.                  ...        0 min,  0.006 sec
     gradient                   ...        0 min,  0.012 sec
 * total energy  :   -35.0366963 Eh     change       -0.1588718E-03 Eh
   gradient norm :     0.0033721 Eh/α   predicted    -0.9968469E-04 ( -37.25%)
   displ. norm   :     0.3070058 α      lambda       -0.3742473E-03
   maximum displ.:     0.1534737 α      in ANC's #7, #1, #14, ...

........................................................................
.............................. CYCLE    5 ..............................
........................................................................

 iter      E             dE          RMSdq      gap      omega  full diag
   1    -35.5821926 -0.355822E+02  0.138E-01    3.81       0.0  T
   2    -35.5822103 -0.177348E-04  0.798E-02    3.80       1.0  T
   3    -35.5822019  0.842009E-05  0.290E-02    3.81       1.0  T
   4    -35.5822144 -0.125045E-04  0.620E-03    3.81       3.2  T
   5    -35.5822152 -0.735840E-06  0.253E-03    3.80       7.9  T
   6    -35.5822152 -0.112787E-07  0.920E-04    3.80      21.7  T
   7    -35.5822152 -0.944288E-08  0.423E-04    3.80      47.3  T
     SCC iter.                  ...        0 min,  0.006 sec
     gradient                   ...        0 min,  0.012 sec
 * total energy  :   -35.0369608 Eh     change       -0.2645048E-03 Eh
   gradient norm :     0.0071854 Eh/α   predicted    -0.2047616E-03 ( -22.59%)
   displ. norm   :     0.2681442 α      lambda       -0.2514872E-03
   maximum displ.:     0.1462712 α      in ANC's #7, #1, #14, ...

........................................................................
.............................. CYCLE    6 ..............................
........................................................................

 iter      E             dE          RMSdq      gap      omega  full diag
   1    -35.5798802 -0.355799E+02  0.110E-01    3.85       0.0  T
   2    -35.5798832 -0.302962E-05  0.648E-02    3.85       1.0  T
   3    -35.5798758  0.748916E-05  0.194E-02    3.85       1.0  T
   4    -35.5798852 -0.945430E-05  0.308E-03    3.85       6.5  T
   5    -35.5798852 -0.133294E-08  0.142E-03    3.85      14.1  T
   6    -35.5798852 -0.278089E-07  0.505E-04    3.85      39.6  T
   7    -35.5798852 -0.608722E-09  0.221E-04    3.85      90.5  T
     SCC iter.                  ...        0 min,  0.006 sec
     gradient                   ...        0 min,  0.012 sec
 * total energy  :   -35.0371378 Eh     change       -0.1769997E-03 Eh
   gradient norm :     0.0085850 Eh/α   predicted    -0.1347918E-03 ( -23.85%)
   displ. norm   :     0.2140206 α      lambda       -0.2360951E-03
   maximum displ.:     0.1155460 α      in ANC's #7, #1, #3, ...

........................................................................
.............................. CYCLE    7 ..............................
........................................................................

 iter      E             dE          RMSdq      gap      omega  full diag
   1    -35.5782667 -0.355783E+02  0.827E-02    3.88       0.0  T
   2    -35.5782718 -0.503888E-05  0.496E-02    3.89       1.0  T
   3    -35.5782688  0.293476E-05  0.148E-02    3.88       1.4  T
   4    -35.5782727 -0.380836E-05  0.346E-03    3.89       5.8  T
   5    -35.5782729 -0.245974E-06  0.122E-03    3.89      16.4  T
   6    -35.5782729 -0.400662E-08  0.459E-04    3.89      43.6  T
   7    -35.5782729 -0.999528E-09  0.210E-04    3.89      95.2  T
     SCC iter.                  ...        0 min,  0.006 sec
     gradient                   ...        0 min,  0.012 sec
 * total energy  :   -35.0373023 Eh     change       -0.1644522E-03 Eh
   gradient norm :     0.0049263 Eh/α   predicted    -0.1234582E-03 ( -24.93%)
   displ. norm   :     0.2118252 α      lambda       -0.1572628E-03
   maximum displ.:     0.1070760 α      in ANC's #7, #1, #3, ...

........................................................................
.............................. CYCLE    8 ..............................
........................................................................

 iter      E             dE          RMSdq      gap      omega  full diag
   1    -35.5776664 -0.355777E+02  0.820E-02    3.91       0.0  T
   2    -35.5776677 -0.123590E-05  0.481E-02    3.91       1.0  T
   3    -35.5776637  0.393199E-05  0.132E-02    3.91       1.5  T
   4    -35.5776685 -0.472536E-05  0.146E-03    3.91      13.7  T
   5    -35.5776685 -0.816560E-08  0.822E-04    3.91      24.3  T
   6    -35.5776685 -0.151918E-08  0.308E-04    3.91      65.0  T
     SCC iter.                  ...        0 min,  0.005 sec
     gradient                   ...        0 min,  0.012 sec
 * total energy  :   -35.0374113 Eh     change       -0.1090290E-03 Eh
   gradient norm :     0.0033615 Eh/α   predicted    -0.8216433E-04 ( -24.64%)
   displ. norm   :     0.1821304 α      lambda       -0.1076698E-03
   maximum displ.:     0.0887020 α      in ANC's #1, #7, #3, ...

........................................................................
.............................. CYCLE    9 ..............................
........................................................................

 iter      E             dE          RMSdq      gap      omega  full diag
   1    -35.5793539 -0.355794E+02  0.648E-02    3.93       0.0  T
   2    -35.5793551 -0.118680E-05  0.382E-02    3.93       1.0  T
   3    -35.5793536  0.147962E-05  0.835E-03    3.94       2.4  T
   4    -35.5793554 -0.181190E-05  0.133E-03    3.94      15.0  T
   5    -35.5793554 -0.229159E-07  0.656E-04    3.93      30.5  T
   6    -35.5793554 -0.269522E-08  0.303E-04    3.93      65.9  T
     SCC iter.                  ...        0 min,  0.005 sec
     gradient                   ...        0 min,  0.012 sec
 * total energy  :   -35.0374791 Eh     change       -0.6778754E-04 Eh
   gradient norm :     0.0035030 Eh/α   predicted    -0.5563708E-04 ( -17.92%)
   displ. norm   :     0.2485851 α      lambda       -0.7670687E-04
   maximum displ.:     0.1295917 α      in ANC's #7, #1, #3, ...

........................................................................
.............................. CYCLE   10 ..............................
........................................................................

 iter      E             dE          RMSdq      gap      omega  full diag
   1    -35.5787249 -0.355787E+02  0.930E-02    3.96       0.0  T
   2    -35.5787281 -0.314945E-05  0.545E-02    3.96       1.0  T
   3    -35.5787233  0.482866E-05  0.158E-02    3.96       1.3  T
   4    -35.5787293 -0.601171E-05  0.228E-03    3.96       8.8  T
   5    -35.5787294 -0.839637E-07  0.112E-03    3.96      17.9  T
   6    -35.5787294 -0.132928E-08  0.414E-04    3.96      48.3  T
   7    -35.5787294 -0.198164E-08  0.152E-04    3.96     131.2  T
     SCC iter.                  ...        0 min,  0.006 sec
     gradient                   ...        0 min,  0.012 sec
 * total energy  :   -35.0375094 Eh     change       -0.3026621E-04 Eh
   gradient norm :     0.0040465 Eh/α   predicted    -0.4075427E-04 (  34.65%)
   displ. norm   :     0.0443919 α      lambda       -0.5021549E-04
   maximum displ.:     0.0196748 α      in ANC's #14, #3, #2, ...

........................................................................
.............................. CYCLE   11 ..............................
........................................................................

 iter      E             dE          RMSdq      gap      omega  full diag
   1    -35.5812672 -0.355813E+02  0.241E-02    3.96       0.0  T
   2    -35.5812680 -0.862938E-06  0.139E-02    3.96       1.4  T
   3    -35.5812680  0.585664E-07  0.470E-03    3.96       4.3  T
   4    -35.5812682 -0.193372E-06  0.995E-04    3.96      20.1  T
   5    -35.5812682 -0.935813E-08  0.518E-04    3.96      38.6  T
     SCC iter.                  ...        0 min,  0.004 sec
     gradient                   ...        0 min,  0.012 sec
 * total energy  :   -35.0375346 Eh     change       -0.2525367E-04 Eh
   gradient norm :     0.0019316 Eh/α   predicted    -0.2516493E-04 (  -0.35%)
   displ. norm   :     0.0844681 α      lambda       -0.1371970E-04
   maximum displ.:     0.0455623 α      in ANC's #1, #7, #3, ...

........................................................................
.............................. CYCLE   12 ..............................
........................................................................

 iter      E             dE          RMSdq      gap      omega  full diag
   1    -35.5813083 -0.355813E+02  0.314E-02    3.97       0.0  T
   2    -35.5813094 -0.115796E-05  0.186E-02    3.97       1.1  T
   3    -35.5813092  0.244357E-06  0.574E-03    3.97       3.5  T
   4    -35.5813095 -0.355807E-06  0.143E-03    3.97      14.0  T
   5    -35.5813096 -0.454846E-07  0.384E-04    3.97      52.1  T
   6    -35.5813096 -0.857277E-09  0.154E-04    3.97     129.5  T
     SCC iter.                  ...        0 min,  0.005 sec
     gradient                   ...        0 min,  0.012 sec
 * total energy  :   -35.0375441 Eh     change       -0.9511901E-05 Eh
   gradient norm :     0.0016876 Eh/α   predicted    -0.6881195E-05 ( -27.66%)
   displ. norm   :     0.0451980 α      lambda       -0.5940994E-05
   maximum displ.:     0.0240903 α      in ANC's #1, #2, #3, ...

........................................................................
.............................. CYCLE   13 ..............................
........................................................................

 iter      E             dE          RMSdq      gap      omega  full diag
   1    -35.5809711 -0.355810E+02  0.191E-02    3.97       0.0  T
   2    -35.5809714 -0.298200E-06  0.111E-02    3.97       1.8  T
   3    -35.5809712  0.213378E-06  0.403E-03    3.97       5.0  T
   4    -35.5809715 -0.287030E-06  0.726E-04    3.97      27.5  T
   5    -35.5809715 -0.109559E-07  0.245E-04    3.97      81.5  T
     SCC iter.                  ...        0 min,  0.004 sec
     gradient                   ...        0 min,  0.012 sec
 * total energy  :   -35.0375491 Eh     change       -0.4917286E-05 Eh
   gradient norm :     0.0008722 Eh/α   predicted    -0.2976385E-05 ( -39.47%)
   displ. norm   :     0.0177088 α      lambda       -0.2356839E-05
   maximum displ.:     0.0078365 α      in ANC's #2, #15, #4, ...

........................................................................
.............................. CYCLE   14 ..............................
........................................................................

 iter      E             dE          RMSdq      gap      omega  full diag
   1    -35.5809840 -0.355810E+02  0.777E-03    3.97       0.0  T
   2    -35.5809841 -0.214448E-07  0.451E-03    3.97       4.4  T
   3    -35.5809841 -0.149370E-08  0.585E-04    3.97      34.2  T
   4    -35.5809841 -0.407266E-08  0.251E-04    3.97      79.7  T
     SCC iter.                  ...        0 min,  0.004 sec
     gradient                   ...        0 min,  0.012 sec
 * total energy  :   -35.0375515 Eh     change       -0.2420879E-05 Eh
   gradient norm :     0.0005244 Eh/α   predicted    -0.1181752E-05 ( -51.18%)
   displ. norm   :     0.0290573 α      lambda       -0.2248706E-05
   maximum displ.:     0.0140444 α      in ANC's #2, #1, #6, ...

........................................................................
.............................. CYCLE   15 ..............................
........................................................................

 iter      E             dE          RMSdq      gap      omega  full diag
   1    -35.5809856 -0.355810E+02  0.111E-02    3.97       0.0  T
   2    -35.5809858 -0.181647E-06  0.649E-03    3.97       3.1  T
   3    -35.5809858  0.101201E-07  0.208E-03    3.97       9.6  T
   4    -35.5809858 -0.276756E-07  0.429E-04    3.97      46.6  T
   5    -35.5809858 -0.372349E-08  0.181E-04    3.97     110.7  T
     SCC iter.                  ...        0 min,  0.004 sec
     gradient                   ...        0 min,  0.012 sec
 * total energy  :   -35.0375535 Eh     change       -0.2023157E-05 Eh
   gradient norm :     0.0005862 Eh/α   predicted    -0.1125639E-05 ( -44.36%)
   displ. norm   :     0.0271692 α      lambda       -0.1617120E-05
   maximum displ.:     0.0150069 α      in ANC's #2, #6, #1, ...

........................................................................
.............................. CYCLE   16 ..............................
........................................................................

 iter      E             dE          RMSdq      gap      omega  full diag
   1    -35.5809840 -0.355810E+02  0.959E-03    3.97       0.0  T
   2    -35.5809841 -0.226245E-07  0.559E-03    3.97       3.6  T
   3    -35.5809841  0.759255E-08  0.799E-04    3.97      25.0  T
   4    -35.5809841 -0.136937E-07  0.282E-04    3.97      71.0  T
     SCC iter.                  ...        0 min,  0.004 sec
     gradient                   ...        0 min,  0.012 sec
 * total energy  :   -35.0375552 Eh     change       -0.1679589E-05 Eh
   gradient norm :     0.0004898 Eh/α   predicted    -0.8107776E-06 ( -51.73%)
   displ. norm   :     0.0358540 α      lambda       -0.1640683E-05
   maximum displ.:     0.0221028 α      in ANC's #6, #2, #1, ...

........................................................................
.............................. CYCLE   17 ..............................
........................................................................

 iter      E             dE          RMSdq      gap      omega  full diag
   1    -35.5809836 -0.355810E+02  0.117E-02    3.97       0.0  T
   2    -35.5809836 -0.215877E-07  0.686E-03    3.97       2.9  T
   3    -35.5809836  0.343744E-07  0.121E-03    3.97      16.5  T
   4    -35.5809836 -0.420944E-07  0.275E-04    3.97      72.7  T
   5    -35.5809836 -0.809841E-09  0.130E-04    3.97     153.6  T
     SCC iter.                  ...        0 min,  0.005 sec
     gradient                   ...        0 min,  0.012 sec
 * total energy  :   -35.0375570 Eh     change       -0.1811724E-05 Eh
   gradient norm :     0.0004358 Eh/α   predicted    -0.8229734E-06 ( -54.58%)
   displ. norm   :     0.0402785 α      lambda       -0.1475099E-05
   maximum displ.:     0.0265902 α      in ANC's #6, #2, #1, ...

........................................................................
.............................. CYCLE   18 ..............................
........................................................................

 iter      E             dE          RMSdq      gap      omega  full diag
   1    -35.5808689 -0.355809E+02  0.129E-02    3.97       0.0  T
   2    -35.5808689 -0.119098E-07  0.762E-03    3.97       2.6  T
   3    -35.5808689  0.509070E-07  0.142E-03    3.97      14.1  T
   4    -35.5808689 -0.594071E-07  0.178E-04    3.97     112.6  T
   5    -35.5808689 -0.609361E-10  0.926E-05    3.97     215.9  T
     SCC iter.                  ...        0 min,  0.005 sec
     gradient                   ...        0 min,  0.012 sec
 * total energy  :   -35.0375584 Eh     change       -0.1403693E-05 Eh
   gradient norm :     0.0004054 Eh/α   predicted    -0.7427864E-06 ( -47.08%)
   displ. norm   :     0.0382537 α      lambda        0.3321397E-06
   maximum displ.:     0.0252522 α      in ANC's #6, #2, #1, ...

........................................................................
.............................. CYCLE   19 ..............................
........................................................................

 iter      E             dE          RMSdq      gap      omega  full diag
   1    -35.5807166 -0.355807E+02  0.123E-02    3.97       0.0  T
   2    -35.5807166 -0.113258E-07  0.724E-03    3.98       2.8  T
   3    -35.5807166  0.471339E-07  0.136E-03    3.98      14.7  T
   4    -35.5807167 -0.549903E-07  0.171E-04    3.98     116.7  T
   5    -35.5807167 -0.761631E-10  0.898E-05    3.98     222.8  T
     SCC iter.                  ...        0 min,  0.004 sec
     gradient                   ...        0 min,  0.012 sec
 * total energy  :   -35.0375581 Eh     change        0.2532518E-06 Eh
   gradient norm :     0.0007631 Eh/α   predicted     0.1649913E-06 ( -34.85%)
   displ. norm   :     0.0150740 α      lambda       -0.1183566E-05
   maximum displ.:     0.0110593 α      in ANC's #6, #7, #3, ...

........................................................................
.............................. CYCLE   20 ..............................
........................................................................

 iter      E             dE          RMSdq      gap      omega  full diag
   1    -35.5809206 -0.355809E+02  0.574E-03    3.98       0.0  T
   2    -35.5809206 -0.127910E-07  0.339E-03    3.98       5.9  T
   3    -35.5809206  0.722292E-08  0.691E-04    3.98      28.9  T
   4    -35.5809206 -0.934023E-08  0.178E-04    3.98     112.6  T
     SCC iter.                  ...        0 min,  0.004 sec
     gradient                   ...        0 min,  0.012 sec
 * total energy  :   -35.0375592 Eh     change       -0.1035792E-05 Eh
   gradient norm :     0.0003840 Eh/α   predicted    -0.5928451E-06 ( -42.76%)
   displ. norm   :     0.0129393 α      lambda       -0.4941123E-06
   maximum displ.:     0.0083373 α      in ANC's #6, #3, #14, ...
 * RMSD in coord.:     0.3599884 α      energy gain  -0.2540811E-02 Eh

generating ANC from exact Hessian ...
Using Lindh-Hessian (1995)
 Shifting diagonal of input Hessian by   8.966427164030656E-003
 Lowest  eigenvalues of input Hessian
    0.000000    0.000000    0.000000    0.000000    0.000000    0.000000
    0.010000    0.010523    0.011196    0.014495    0.017816    0.019767
    0.020054    0.022978    0.024343    0.025081    0.025449    0.031726
 Highest eigenvalues
    1.606729    1.873826    1.891706    1.969531    2.052654    2.316128
 

........................................................................
.............................. CYCLE   21 ..............................
........................................................................

 iter      E             dE          RMSdq      gap      omega  full diag
   1    -35.5810348 -0.355810E+02  0.459E-03    3.98       0.0  T
   2    -35.5810348 -0.554731E-08  0.271E-03    3.98       7.4  T
   3    -35.5810348  0.828198E-08  0.637E-04    3.98      31.4  T
   4    -35.5810348 -0.105871E-07  0.119E-04    3.98     168.3  T
     SCC iter.                  ...        0 min,  0.004 sec
     gradient                   ...        0 min,  0.012 sec
 * total energy  :   -35.0375597 Eh     change       -0.4719213E-06 Eh
   gradient norm :     0.0001926 Eh/α   predicted     0.0000000E+00 (-100.00%)
   displ. norm   :     0.0047745 α      lambda       -0.3668911E-07
   maximum displ.:     0.0035745 α      in ANC's #3, #7, #6, ...

........................................................................
.............................. CYCLE   22 ..............................
........................................................................

 iter      E             dE          RMSdq      gap      omega  full diag
   1    -35.5810126 -0.355810E+02  0.198E-03    3.98       0.0  T
   2    -35.5810126 -0.189996E-08  0.117E-03    3.98      17.1  T
   3    -35.5810126  0.151803E-08  0.312E-04    3.98      64.2  T
   4    -35.5810126 -0.195791E-08  0.652E-05    3.98     306.6  T
     SCC iter.                  ...        0 min,  0.004 sec
     gradient                   ...        0 min,  0.012 sec
 * total energy  :   -35.0375599 Eh     change       -0.2565044E-06 Eh
   gradient norm :     0.0000744 Eh/α   predicted    -0.1057747E-06 ( -58.76%)
   displ. norm   :     0.0143966 α      lambda       -0.3431259E-06
   maximum displ.:     0.0105623 α      in ANC's #3, #7, #6, ...

........................................................................
.............................. CYCLE   23 ..............................
........................................................................

 iter      E             dE          RMSdq      gap      omega  full diag
   1    -35.5809858 -0.355810E+02  0.536E-03    3.98       0.0  T
   2    -35.5809858 -0.551353E-08  0.316E-03    3.98       6.3  T
   3    -35.5809858  0.113526E-07  0.745E-04    3.98      26.9  T
   4    -35.5809858 -0.139883E-07  0.110E-04    3.98     182.0  T
     SCC iter.                  ...        0 min,  0.004 sec
     gradient                   ...        0 min,  0.012 sec
 * total energy  :   -35.0375604 Eh     change       -0.5095553E-06 Eh
   gradient norm :     0.0002151 Eh/α   predicted    -0.2172377E-06 ( -57.37%)
   displ. norm   :     0.0163985 α      lambda       -0.3516415E-06
   maximum displ.:     0.0126622 α      in ANC's #3, #7, #6, ...

........................................................................
.............................. CYCLE   24 ..............................
........................................................................

 iter      E             dE          RMSdq      gap      omega  full diag
   1    -35.5809977 -0.355810E+02  0.610E-03    3.98       0.0  T
   2    -35.5809977 -0.549530E-08  0.359E-03    3.98       5.6  T
   3    -35.5809977  0.137704E-07  0.799E-04    3.98      25.0  T
   4    -35.5809977 -0.168652E-07  0.114E-04    3.98     175.7  T
     SCC iter.                  ...        0 min,  0.004 sec
     gradient                   ...        0 min,  0.012 sec
 * total energy  :   -35.0375608 Eh     change       -0.4183706E-06 Eh
   gradient norm :     0.0001828 Eh/α   predicted    -0.1828526E-06 ( -56.29%)
   displ. norm   :     0.0111621 α      lambda       -0.1969459E-06
   maximum displ.:     0.0094150 α      in ANC's #3, #7, #6, ...

........................................................................
.............................. CYCLE   25 ..............................
........................................................................

 iter      E             dE          RMSdq      gap      omega  full diag
   1    -35.5810175 -0.355810E+02  0.429E-03    3.98       0.0  T
   2    -35.5810175 -0.220150E-08  0.253E-03    3.98       7.9  T
   3    -35.5810175  0.674628E-08  0.541E-04    3.98      36.9  T
   4    -35.5810175 -0.810908E-08  0.677E-05    3.98     295.6  T
     SCC iter.                  ...        0 min,  0.004 sec
     gradient                   ...        0 min,  0.012 sec
 * total energy  :   -35.0375611 Eh     change       -0.2398231E-06 Eh
   gradient norm :     0.0000938 Eh/α   predicted    -0.9959337E-07 ( -58.47%)
   displ. norm   :     0.0068579 α      lambda       -0.1156678E-06
   maximum displ.:     0.0061398 α      in ANC's #3, #5, #7, ...

........................................................................
.............................. CYCLE   26 ..............................
........................................................................

 iter      E             dE          RMSdq      gap      omega  full diag
   1    -35.5810335 -0.355810E+02  0.288E-03    3.98       0.0  T
   2    -35.5810335 -0.840572E-09  0.169E-03    3.98      11.8  T
   3    -35.5810335  0.231876E-08  0.312E-04    3.98      64.0  T
   4    -35.5810335 -0.279017E-08  0.433E-05    3.98     462.2  T
     SCC iter.                  ...        0 min,  0.004 sec
     gradient                   ...        0 min,  0.012 sec
 * total energy  :   -35.0375612 Eh     change       -0.1497928E-06 Eh
   gradient norm :     0.0000510 Eh/α   predicted    -0.5889919E-07 ( -60.68%)
   displ. norm   :     0.0060517 α      lambda       -0.9466051E-07
   maximum displ.:     0.0051196 α      in ANC's #3, #2, #5, ...

........................................................................
.............................. CYCLE   27 ..............................
........................................................................

 iter      E             dE          RMSdq      gap      omega  full diag
   1    -35.5810415 -0.355810E+02  0.264E-03    3.98       0.0  T
   2    -35.5810415 -0.526178E-09  0.154E-03    3.98      13.0  T
   3    -35.5810415  0.168721E-08  0.260E-04    3.98      76.9  T
   4    -35.5810415 -0.201673E-08  0.324E-05    3.98     616.6  T
     SCC iter.                  ...        0 min,  0.004 sec
     gradient                   ...        0 min,  0.012 sec
 * total energy  :   -35.0375614 Eh     change       -0.1290930E-06 Eh
   gradient norm :     0.0000800 Eh/α   predicted    -0.4792163E-07 ( -62.88%)
   displ. norm   :     0.0077292 α      lambda       -0.1046413E-06
   maximum displ.:     0.0060495 α      in ANC's #3, #2, #1, ...

........................................................................
.............................. CYCLE   28 ..............................
........................................................................

 iter      E             dE          RMSdq      gap      omega  full diag
   1    -35.5810410 -0.355810E+02  0.340E-03    3.99       0.0  T
   2    -35.5810410 -0.104963E-08  0.199E-03    3.99      10.1  T
   3    -35.5810410  0.296741E-08  0.350E-04    3.99      57.2  T
   4    -35.5810410 -0.357753E-08  0.478E-05    3.99     418.8  T
     SCC iter.                  ...        0 min,  0.004 sec
     gradient                   ...        0 min,  0.012 sec
 * total energy  :   -35.0375615 Eh     change       -0.1460433E-06 Eh
   gradient norm :     0.0000831 Eh/α   predicted    -0.5470442E-07 ( -62.54%)
   displ. norm   :     0.0106010 α      lambda       -0.1274320E-06
   maximum displ.:     0.0079568 α      in ANC's #3, #2, #1, ...

........................................................................
.............................. CYCLE   29 ..............................
........................................................................

 iter      E             dE          RMSdq      gap      omega  full diag
   1    -35.5810394 -0.355810E+02  0.463E-03    3.99       0.0  T
   2    -35.5810394 -0.215147E-08  0.271E-03    3.99       7.4  T
   3    -35.5810394  0.601349E-08  0.501E-04    3.99      40.0  T
   4    -35.5810394 -0.720753E-08  0.656E-05    3.99     304.7  T
     SCC iter.                  ...        0 min,  0.004 sec
     gradient                   ...        0 min,  0.012 sec
 * total energy  :   -35.0375617 Eh     change       -0.1691354E-06 Eh
   gradient norm :     0.0000650 Eh/α   predicted    -0.6644503E-07 ( -60.71%)
   displ. norm   :     0.0149370 α      lambda       -0.1506803E-06
   maximum displ.:     0.0110697 α      in ANC's #3, #2, #1, ...

........................................................................
.............................. CYCLE   30 ..............................
........................................................................

 iter      E             dE          RMSdq      gap      omega  full diag
   1    -35.5810368 -0.355810E+02  0.658E-03    3.99       0.0  T
   2    -35.5810368 -0.488447E-08  0.385E-03    3.99       5.2  T
   3    -35.5810368  0.158760E-07  0.808E-04    3.99      24.8  T
   4    -35.5810368 -0.188441E-07  0.906E-05    3.99     220.8  T
     SCC iter.                  ...        0 min,  0.004 sec
     gradient                   ...        0 min,  0.012 sec
 * total energy  :   -35.0375619 Eh     change       -0.1883351E-06 Eh
   gradient norm :     0.0000501 Eh/α   predicted    -0.7821525E-07 ( -58.47%)
   displ. norm   :     0.0174793 α      lambda       -0.1358321E-06
   maximum displ.:     0.0129188 α      in ANC's #3, #2, #1, ...

........................................................................
.............................. CYCLE   31 ..............................
........................................................................

 iter      E             dE          RMSdq      gap      omega  full diag
   1    -35.5810361 -0.355810E+02  0.766E-03    3.99       0.0  T
   2    -35.5810361 -0.640330E-08  0.449E-03    3.99       4.5  T
   3    -35.5810361  0.218537E-07  0.950E-04    3.99      21.1  T
   4    -35.5810361 -0.258598E-07  0.103E-04    3.99     194.4  T
     SCC iter.                  ...        0 min,  0.004 sec
     gradient                   ...        0 min,  0.012 sec
 * total energy  :   -35.0375620 Eh     change       -0.1665347E-06 Eh
   gradient norm :     0.0000443 Eh/α   predicted    -0.6936132E-07 ( -58.35%)
   displ. norm   :     0.0164390 α      lambda       -0.9927739E-07
   maximum displ.:     0.0122272 α      in ANC's #3, #2, #1, ...

........................................................................
.............................. CYCLE   32 ..............................
........................................................................

 iter      E             dE          RMSdq      gap      omega  full diag
   1    -35.5810396 -0.355810E+02  0.727E-03    3.99       0.0  T
   2    -35.5810396 -0.617064E-08  0.426E-03    3.99       4.7  T
   3    -35.5810396  0.233593E-07  0.980E-04    3.99      20.4  T
   4    -35.5810396 -0.275368E-07  0.950E-05    3.99     210.6  T
     SCC iter.                  ...        0 min,  0.004 sec
     gradient                   ...        0 min,  0.012 sec
 * total energy  :   -35.0375621 Eh     change       -0.1181001E-06 Eh
   gradient norm :     0.0000575 Eh/α   predicted    -0.5174136E-07 ( -56.19%)
   displ. norm   :     0.0149385 α      lambda       -0.7081942E-07
   maximum displ.:     0.0112941 α      in ANC's #3, #2, #1, ...

........................................................................
.............................. CYCLE   33 ..............................
........................................................................

 iter      E             dE          RMSdq      gap      omega  full diag
   1    -35.5810452 -0.355810E+02  0.661E-03    3.99       0.0  T
   2    -35.5810453 -0.488369E-08  0.388E-03    3.99       5.2  T
   3    -35.5810452  0.188591E-07  0.884E-04    3.99      22.6  T
   4    -35.5810453 -0.222770E-07  0.882E-05    3.99     226.9  T
     SCC iter.                  ...        0 min,  0.004 sec
     gradient                   ...        0 min,  0.012 sec
 * total energy  :   -35.0375622 Eh     change       -0.8359649E-07 Eh
   gradient norm :     0.0000535 Eh/α   predicted    -0.3727940E-07 ( -55.41%)
   displ. norm   :     0.0106565 α      lambda       -0.3808912E-07
   maximum displ.:     0.0083206 α      in ANC's #3, #5, #1, ...

   *** GEOMETRY OPTIMIZATION CONVERGED AFTER 33 ITERATIONS ***

------------------------------------------------------------------------
 total energy gain   :        -0.0025439 Eh       -1.5963 kcal/mol
 total RMSD          :         0.3724681 a0        0.1971 Å
 total power (kW/mol):        -0.2023909 (step)   -9.3288 (real)
------------------------------------------------------------------------

 ANCopt (total)                0 d,  0 h,  0 min,  0.716 sec
 optimizer setup                ...        0 min,  0.000 sec (  0.068%)
 model hessian                  ...        0 min,  0.017 sec (  2.346%)
 ANC generation                 ...        0 min,  0.002 sec (  0.252%)
 coordinate transformation      ...        0 min,  0.000 sec (  0.045%)
 single point calculation       ...        0 min,  0.688 sec ( 96.032%)
 optimization log               ...        0 min,  0.005 sec (  0.748%)
 hessian update                 ...        0 min,  0.000 sec (  0.041%)
 rational function              ...        0 min,  0.002 sec (  0.259%)

================
 final structure:
================
$coord
       -7.97592352695904       -0.59230725821063       -0.14973141261092      C
       -5.17194553252741       -0.21403942956675       -0.04962755979879      C
       -4.02089819088740        1.66640669238742       -1.47650439928647      C
       -1.44097008119679        2.05545605655559       -1.35009782752916      C
        0.05311195784336        0.53603231713894        0.18329404388600      C
       -1.08792673731447       -1.33535204463555        1.63282275333524      C
       -3.67226788305346       -1.69778043837714        1.51457172385621      C
        2.81928313379250        1.07473648953030        0.41170343726933      C
        3.57279026197820        3.08063096229686        1.25412233831895      O
        4.41807202272010       -0.78442063026039       -0.32885598484993      N
        7.10746726063886       -0.43514552463135       -0.02890908386610      C
        3.67341354511307       -3.09716833227348       -1.55271282651801      C
       -8.71567023747538       -0.11075585262969       -2.00583646313324      H
       -8.47189647631446       -2.53869205505847        0.28555836771445      H
       -8.89573995016815        0.62478225203221        1.23572086448026      H
       -5.16183985169626        2.84702368112436       -2.69092610655486      H
       -0.56439274763147        3.53824356403537       -2.44407490104208      H
        0.05010759810507       -2.49507464924968        2.86979519204465      H
       -4.53978815735624       -3.15382444049637        2.65443607794363      H
        7.41379683529430        1.36560532112822        0.91586274682096      H
        8.04789166164915       -0.41303996551325       -1.86763509255146      H
        7.90089024181589       -1.96169001292848        1.11211109349176      H
        4.05744407529463       -4.72403335361226       -0.33444881506284      H
        4.75134852144650       -3.33076731248595       -3.30050163185651      H
        1.67106436493643       -3.06110840073900       -2.00999766164169      H
$end
 
 Bond Distances (Angstroems)
 ---------------------------
C1-C2=1.4982         C1-H13=1.0876        C1-H14=1.0876        C1-H15=1.0905        C2-C1=1.4982         C2-C3=1.3897         
C2-C7=1.3898         C3-C2=1.3897         C3-C4=1.3823         C3-H16=1.0807        C4-C3=1.3823         C4-C5=1.3893         
C4-H17=1.0798        C5-C4=1.3893         C5-C6=1.3906         C5-C8=1.4962         C6-C5=1.3906         C6-C7=1.3824         
C6-H18=1.0806        C7-C2=1.3898         C7-C6=1.3824         C7-H19=1.0809        C8-C5=1.4962         C8-O9=1.2184         
C8-N10=1.3555        O9-C8=1.2184         N10-C8=1.3555        N10-C11=1.4439       N10-C12=1.4396       C11-N10=1.4439       
C11-H20=1.0882       C11-H21=1.0930       C11-H22=1.0924       C12-N10=1.4396       C12-H23=1.0946       C12-H24=1.0937       
C12-H25=1.0870       H13-C1=1.0876        H14-C1=1.0876        H15-C1=1.0905        H16-C3=1.0807        H17-C4=1.0798        
H18-C6=1.0806        H19-C7=1.0809        H20-C11=1.0882       H21-C11=1.0930       H22-C11=1.0924       H23-C12=1.0946       
H24-C12=1.0937       H25-C12=1.0870       
 C  H  Rav=1.0874 sigma=0.0052  Rmin=1.0798  Rmax=1.0946    13
 C  C  Rav=1.4148 sigma=0.0477  Rmin=1.3823  Rmax=1.4982     8
 N  C  Rav=1.4130 sigma=0.0407  Rmin=1.3555  Rmax=1.4439     3
 O  C  Rav=1.2184 sigma=0.0000  Rmin=1.2184  Rmax=1.2184     1
 
 selected bond angles (degree)
 --------------------
H13-C1-C2=110.92               H14-C1-C2=110.98               H14-C1-H13=109.04              H15-C1-C2=109.84               
H15-C1-H13=107.95              H15-C1-H14=108.01              C3-C2-C1=120.70                C7-C2-C1=120.74                
C7-C2-C3=118.55                C4-C3-C2=120.88                H16-C3-C2=119.48               H16-C3-C4=119.63               
C5-C4-C3=120.28                H17-C4-C3=120.44               H17-C4-C5=119.29               C6-C5-C4=119.16                
C8-C5-C4=119.58                C8-C5-C6=121.06                C7-C6-C5=120.23                H18-C6-C5=119.77               
H18-C6-C7=120.00               C6-C7-C2=120.90                H19-C7-C2=119.51               H19-C7-C6=119.59               
O9-C8-C5=121.05                N10-C8-C5=116.68               N10-C8-O9=122.27               C11-N10-C8=119.38              
C12-N10-C8=125.19              C12-N10-C11=115.35             
 
 selected dihedral angles (degree)
 ---------------------------------
C3-C2-C1-H13= 31.75           C3-C2-C1-H14=153.13           C3-C2-C1-H15=272.50           C7-C2-C1-H13=210.29           
C7-C2-C1-H14=331.67           C7-C2-C1-H15= 91.04           C4-C3-C2-C1=178.66            C4-C3-C2-C7=  0.09            
H16-C3-C2-C1=359.07           H16-C3-C2-C7=180.50           C5-C4-C3-C2=  1.06            C5-C4-C3-H16=180.65           
H17-C4-C3-C2=180.90           H17-C4-C3-H16=  0.49          C6-C5-C4-C3=358.42            C6-C5-C4-H17=178.58           
C8-C5-C4-C3=183.45            C8-C5-C4-H17=  3.61           C7-C6-C5-C4=  0.97            C7-C6-C5-C8=175.87            
H18-C6-C5-C4=181.63           H18-C6-C5-C8=356.52           C6-C7-C2-C1=180.73            C6-C7-C2-C3=359.30            
H19-C7-C2-C1=  0.69           H19-C7-C2-C3=179.26           C2-C7-C6-C5=  0.17            C2-C7-C6-H18=179.51           
H19-C7-C6-C5=180.21           H19-C7-C6-H18=359.55          O9-C8-C5-C4= 61.20            O9-C8-C5-C6=246.33            
N10-C8-C5-C4=240.32           N10-C8-C5-C6= 65.45           C11-N10-C8-C5=183.31          C11-N10-C8-O9=  2.42          
C12-N10-C8-C5=  6.97          C12-N10-C8-O9=186.08          
           -------------------------------------------------
          |                Final Singlepoint                |
           -------------------------------------------------

          ...................................................
          :                      SETUP                      :
          :.................................................:
          :  # basis functions                  61          :
          :  # atomic orbitals                  61          :
          :  # shells                           37          :
          :  # electrons                        64          :
          :  max. iterations                   250          :
          :  Hamiltonian                  GFN2-xTB          :
          :  restarted?                      false          :
          :  GBSA solvation                  false          :
          :  PC potential                    false          :
          :  electronic temp.          300.0000000     K    :
          :  accuracy                    1.0000000          :
          :  -> integral cutoff          0.2500000E+02      :
          :  -> integral neglect         0.1000000E-07      :
          :  -> SCF convergence          0.1000000E-05 Eh   :
          :  -> wf. convergence          0.1000000E-03 e    :
          :  Broyden damping             0.4000000          :
          :  net charge                          0          :
          :  unpaired electrons                  0          :
          ...................................................

 iter      E             dE          RMSdq      gap      omega  full diag
   1    -35.5810453 -0.355810E+02  0.497E-05    3.99       0.0  T
   2    -35.5810453 -0.117453E-10  0.320E-05    3.99     625.5  T
   3    -35.5810453 -0.602540E-11  0.200E-05    3.99     999.0  T

   *** convergence criteria satisfied after 3 iterations ***

         #    Occupation            Energy/Eh            Energy/eV
      -------------------------------------------------------------
         1        2.0000           -0.6864616             -18.6796
       ...           ...                  ...                  ...
        26        2.0000           -0.4611404             -12.5483
        27        2.0000           -0.4397645             -11.9666
        28        2.0000           -0.4231264             -11.5139
        29        2.0000           -0.4070182             -11.0755
        30        2.0000           -0.3973408             -10.8122
        31        2.0000           -0.3854844             -10.4896
        32        2.0000           -0.3802116             -10.3461 (HOMO)
        33                         -0.2334867              -6.3535 (LUMO)
        34                         -0.2250654              -6.1243
        35                         -0.1897148              -5.1624
        36                         -0.0956270              -2.6021
        37                          0.0067092               0.1826
       ...                                ...                  ...
        61                          0.6599280              17.9576
      -------------------------------------------------------------
                  HL-Gap            0.1467249 Eh            3.9926 eV
             Fermi-level           -0.3068491 Eh           -8.3498 eV

 SCC (total)                   0 d,  0 h,  0 min,  0.019 sec
 SCC setup                      ...        0 min,  0.000 sec (  0.892%)
 Dispersion                     ...        0 min,  0.000 sec (  0.599%)
 classical contributions        ...        0 min,  0.000 sec (  0.176%)
 integral evaluation            ...        0 min,  0.004 sec ( 21.331%)
 iterations                     ...        0 min,  0.003 sec ( 15.399%)
 molecular gradient             ...        0 min,  0.012 sec ( 60.658%)
 printout                       ...        0 min,  0.000 sec (  0.841%)

         :::::::::::::::::::::::::::::::::::::::::::::::::::::
         ::                     SUMMARY                     ::
         :::::::::::::::::::::::::::::::::::::::::::::::::::::
         :: total energy             -35.037562225775 Eh    ::
         :: gradient norm              0.000053540439 Eh/a0 ::
         :: HOMO-LUMO gap              3.992587699863 eV    ::
         ::.................................................::
         :: SCC energy               -35.581013831498 Eh    ::
         :: -> isotropic ES            0.039946952434 Eh    ::
         :: -> anisotropic ES          0.004238503672 Eh    ::
         :: -> anisotropic XC          0.017193616623 Eh    ::
         :: -> dispersion             -0.021478427353 Eh    ::
         :: repulsion energy           0.543451605722 Eh    ::
         :: add. restraining           0.000000000000 Eh    ::
         :: total charge               0.000000000000 e     ::
         :::::::::::::::::::::::::::::::::::::::::::::::::::::

           ------------------------------------------------- 
          |                Numerical Hessian                |
           ------------------------------------------------- 
step length          :   0.00500
SCC accuracy         :   0.30000
Hessian scale factor :   1.00000
frozen atoms in %    :   0.00000    0
RMS gradient         :   0.00005
estimated CPU  time      0.05 min
estimated wall time      0.05 min

writing file <hessian>.

 projected vibrational frequencies (cm⁻¹)
eigval :       -0.00    -0.00    -0.00     0.00     0.00     0.00
eigval :       21.46    33.78    68.49    76.50   119.94   155.19
eigval :      178.48   192.43   244.97   293.49   320.56   345.17
eigval :      365.73   383.49   421.10   542.11   574.03   600.65
eigval :      663.73   692.44   714.84   801.24   833.06   875.46
eigval :      915.42   927.52   937.34  1009.41  1016.97  1030.97
eigval :     1045.14  1093.24  1094.76  1126.57  1141.43  1194.88
eigval :     1215.89  1255.91  1267.06  1276.17  1318.62  1390.81
eigval :     1395.54  1403.70  1403.87  1424.15  1462.21  1471.18
eigval :     1480.25  1481.68  1482.49  1492.79  1501.34  1576.80
eigval :     1605.51  1703.12  2936.70  2954.86  2964.52  2975.69
eigval :     2998.24  3037.05  3037.97  3038.16  3047.30  3069.64
eigval :     3075.23  3081.90  3092.21
           -------------------------------------------------
          |                Property Printout                |
           -------------------------------------------------

    * Orbital Energies and Occupations

         #    Occupation            Energy/Eh            Energy/eV
      -------------------------------------------------------------
         1        2.0000           -0.6864617             -18.6796
       ...           ...                  ...                  ...
        20        2.0000           -0.4872084             -13.2576
        21        2.0000           -0.4855277             -13.2119
        22        2.0000           -0.4800019             -13.0615
        23        2.0000           -0.4780588             -13.0086
        24        2.0000           -0.4714378             -12.8285
        25        2.0000           -0.4618093             -12.5665
        26        2.0000           -0.4611404             -12.5483
        27        2.0000           -0.4397645             -11.9666
        28        2.0000           -0.4231264             -11.5139
        29        2.0000           -0.4070182             -11.0755
        30        2.0000           -0.3973408             -10.8122
        31        2.0000           -0.3854844             -10.4896
        32        2.0000           -0.3802116             -10.3461 (HOMO)
        33                         -0.2334867              -6.3535 (LUMO)
        34                         -0.2250654              -6.1243
        35                         -0.1897149              -5.1624
        36                         -0.0956270              -2.6021
        37                          0.0067092               0.1826
        38                          0.0809007               2.2014
        39                          0.1025653               2.7909
        40                          0.1183423               3.2203
        41                          0.1323812               3.6023
        42                          0.1503649               4.0916
        43                          0.1512407               4.1155
       ...                                ...                  ...
        61                          0.6599280              17.9576
      -------------------------------------------------------------
                  HL-Gap            0.1467249 Eh            3.9926 eV
             Fermi-level           -0.3068492 Eh           -8.3498 eV

     #   Z          covCN         q      C6AA      α(0)
     1   6 C        3.758    -0.110    22.661     6.787
     2   6 C        2.966     0.019    27.575     8.613
     3   6 C        2.925    -0.038    28.955     8.824
     4   6 C        2.922    -0.025    28.624     8.774
     5   6 C        2.974    -0.019    28.479     8.754
     6   6 C        2.921    -0.032    28.801     8.801
     7   6 C        2.924    -0.040    28.986     8.829
     8   6 C        2.768     0.263    22.564     7.779
     9   8 O        0.859    -0.445    22.597     6.373
    10   7 N        2.732    -0.092    23.035     7.128
    11   6 C        3.704    -0.047    21.579     6.641
    12   6 C        3.696    -0.047    21.600     6.648
    13   1 H        0.925     0.044     2.390     2.417
    14   1 H        0.925     0.044     2.402     2.424
    15   1 H        0.924     0.051     2.307     2.375
    16   1 H        0.926     0.035     2.515     2.480
    17   1 H        0.926     0.041     2.435     2.440
    18   1 H        0.926     0.031     2.566     2.505
    19   1 H        0.926     0.033     2.544     2.494
    20   1 H        0.925     0.087     1.909     2.161
    21   1 H        0.924     0.044     2.395     2.420
    22   1 H        0.924     0.045     2.381     2.413
    23   1 H        0.924     0.048     2.344     2.394
    24   1 H        0.924     0.051     2.306     2.375
    25   1 H        0.925     0.059     2.215     2.328

 Mol. C6AA /au·bohr⁶  :       6440.031485
 Mol. C8AA /au·bohr⁸  :     149184.232625
 Mol. α(0) /au        :        125.179044


Wiberg/Mayer (AO) data.
largest (>0.10) Wiberg bond orders for each atom

 ---------------------------------------------------------------------------
     #   Z sym  total        # sym  WBO       # sym  WBO       # sym  WBO
 ---------------------------------------------------------------------------
     1   6 C    3.996 --     2 C    1.026    14 H    0.982    13 H    0.981
                            15 H    0.966
     2   6 C    3.989 --     3 C    1.409     7 C    1.407     1 C    1.026
                             5 C    0.106
     3   6 C    3.991 --     4 C    1.450     2 C    1.409    16 H    0.969
                             6 C    0.108
     4   6 C    3.991 --     3 C    1.450     5 C    1.403    17 H    0.970
                             7 C    0.108
     5   6 C    3.988 --     4 C    1.403     6 C    1.397     8 C    0.966
                             2 C    0.106
     6   6 C    3.992 --     7 C    1.451     5 C    1.397    18 H    0.970
                             3 C    0.108
     7   6 C    3.991 --     6 C    1.451     2 C    1.407    19 H    0.969
                             4 C    0.108
     8   6 C    3.951 --     9 O    1.661    10 N    1.239     5 C    0.966
     9   8 O    2.000 --     8 C    1.661    10 N    0.199
    10   7 N    3.494 --     8 C    1.239    12 C    1.008    11 C    0.999
                             9 O    0.199
    11   6 C    3.967 --    10 N    0.999    22 H    0.977    21 H    0.976
                            20 H    0.973
    12   6 C    3.974 --    10 N    1.008    24 H    0.976    23 H    0.975
                            25 H    0.975
    13   1 H    0.998 --     1 C    0.981
    14   1 H    0.998 --     1 C    0.982
    15   1 H    0.997 --     1 C    0.966
    16   1 H    0.998 --     3 C    0.969
    17   1 H    0.998 --     4 C    0.970
    18   1 H    0.999 --     6 C    0.970
    19   1 H    0.998 --     7 C    0.969
    20   1 H    0.992 --    11 C    0.973
    21   1 H    0.998 --    11 C    0.976
    22   1 H    0.997 --    11 C    0.977
    23   1 H    0.998 --    12 C    0.975
    24   1 H    0.997 --    12 C    0.976
    25   1 H    0.997 --    12 C    0.975
 ---------------------------------------------------------------------------

Topologies differ in total number of bonds
Writing topology from bond orders to xtbtopo.mol

molecular dipole:
                 x           y           z       tot (Debye)
 q only:       -0.286      -1.388      -0.640
   full:       -0.353      -1.566      -0.700       4.452
molecular quadrupole (traceless):
                xx          xy          yy          xz          yz          zz
 q only:        8.304      -7.479      -5.618      -2.815      -2.392      -2.687
  q+dip:        8.903      -9.177      -6.492      -3.431      -6.323      -2.410
   full:        7.969      -9.204      -6.433      -3.646      -4.436      -1.536

           -------------------------------------------------
          |                Geometry Summary                 |
           -------------------------------------------------

      molecular mass/u    :      163.2166969
   center of mass at/Å    :       -0.0004388       0.0009384      -0.0018053
  moments of inertia/u·Å² :        0.2112536E+03   0.9930308E+03   0.1080411E+04
rotational constants/cm⁻¹ :        0.7979809E-01   0.1697594E-01   0.1560298E-01

 * 23 selected distances

     #   Z          #   Z                                           value/Å
     2   6 C        3   6 C                                       1.3897292
     3   6 C        4   6 C                                       1.3822944
     4   6 C        5   6 C                                       1.3892511
     5   6 C        6   6 C                                       1.3905568
     2   6 C        7   6 C                                       1.3897569
     6   6 C        7   6 C                                       1.3823744
     8   6 C        9   8 O                                       1.2183788
     8   6 C       10   7 N                                       1.3554604
    10   7 N       11   6 C                                       1.4438694 (max)
    10   7 N       12   6 C                                       1.4396290
     1   6 C       13   1 H                                       1.0876161
     1   6 C       14   1 H                                       1.0875694
     1   6 C       15   1 H                                       1.0905221
     3   6 C       16   1 H                                       1.0806655
     4   6 C       17   1 H                                       1.0798111 (min)
     6   6 C       18   1 H                                       1.0806338
     7   6 C       19   1 H                                       1.0808627
    11   6 C       20   1 H                                       1.0882457
    11   6 C       21   1 H                                       1.0929528
    11   6 C       22   1 H                                       1.0924384
    12   6 C       23   1 H                                       1.0945576
    12   6 C       24   1 H                                       1.0936544
    12   6 C       25   1 H                                       1.0870455

 * 4 distinct bonds (by element types)

   Z      Z             #   av. dist./Å        max./Å        min./Å
   1 H    6 C          13     1.0874289     1.0945576     1.0798111
   6 C    6 C           6     1.3873271     1.3905568     1.3822944
   6 C    7 N           3     1.4129863     1.4438694     1.3554604
   6 C    8 O           1     1.2183788     1.2183788     1.2183788

           -------------------------------------------------
          |               Frequency Printout                |
           -------------------------------------------------
 projected vibrational frequencies (cm⁻¹)
eigval :       -0.00    -0.00    -0.00     0.00     0.00     0.00
eigval :       21.46    33.78    68.49    76.50   119.94   155.19
eigval :      178.48   192.43   244.97   293.49   320.56   345.17
eigval :      365.73   383.49   421.10   542.11   574.03   600.65
eigval :      663.73   692.44   714.84   801.24   833.06   875.46
eigval :      915.42   927.52   937.34  1009.41  1016.97  1030.97
eigval :     1045.14  1093.24  1094.76  1126.57  1141.43  1194.88
eigval :     1215.89  1255.91  1267.06  1276.17  1318.62  1390.81
eigval :     1395.54  1403.70  1403.87  1424.15  1462.21  1471.18
eigval :     1480.25  1481.68  1482.49  1492.79  1501.34  1576.80
eigval :     1605.51  1703.12  2936.70  2954.86  2964.52  2975.69
eigval :     2998.24  3037.05  3037.97  3038.16  3047.30  3069.64
eigval :     3075.23  3081.90  3092.21
 reduced masses (amu)
   1: 10.16   2: 11.77   3: 11.99   4: 10.92   5: 11.66   6: 10.89   7:  1.25   8: 10.84
   9:  9.96  10:  8.98  11:  5.50  12:  2.08  13:  9.37  14:  9.59  15:  9.12  16: 12.03
  17: 10.09  18:  8.83  19:  9.02  20:  9.67  21:  9.39  22:  9.93  23: 11.48  24: 11.34
  25: 11.34  26: 11.39  27: 11.08  28:  5.85  29:  9.89  30:  3.32  31:  2.78  32:  4.11
  33: 10.42  34:  3.97  35:  8.85  36:  4.68  37:  3.88  38:  5.26  39:  3.98  40:  4.21
  41:  2.84  42:  2.39  43:  6.65  44: 10.81  45: 11.96  46:  3.79  47: 11.74  48:  3.86
  49:  7.25  50:  9.52  51:  3.21  52:  5.24  53:  1.57  54:  1.57  55:  1.76  56:  2.03
  57:  1.88  58:  7.36  59:  4.42  60: 11.46  61: 11.50  62: 13.33  63:  1.90  64:  1.94
  65:  1.51  66:  1.44  67:  1.81  68:  1.90  69:  1.71  70:  1.45  71:  1.69  72:  1.78
  73:  1.79  74:  1.88  75:  1.87
 IR intensities (km·mol⁻¹)
   1:  2.71   2:  0.43   3:  0.89   4:  0.44   5:  0.24   6:  0.17   7:  0.58   8:  2.34
   9:  2.11  10:  0.49  11:  0.28  12:  0.20  13:  1.39  14:  0.49  15:  7.05  16:  3.38
  17:  5.74  18:  2.30  19:  0.25  20:  4.83  21:  4.08  22:  3.43  23: 10.00  24:  1.93
  25:  6.81  26: 16.12  27:  1.61  28: 14.68  29:  1.07  30:  0.57  31:  0.08  32:  0.51
  33: 14.25  34:  2.22  35:  8.14  36: 13.37  37:  3.16  38: 87.53  39: 38.67  40:  2.59
  41:  1.05  42: 14.28  43: 15.95  44: 19.07  45: 67.60  46:  1.45  47:  0.66  48: 21.80
  49: 80.84  50:  0.06  51:  3.45  52: 77.67  53:  3.58  54: 16.11  55:  6.05  56:  2.55
  57:  4.85  58:  2.67  59: 28.87  60:  0.17  61: 22.86  62:523.24  63: 31.77  64: 36.19
  65: 28.75  66: 75.77  67: 22.22  68: 20.50  69:  6.92  70: 16.76  71: 16.33  72: 14.95
  73: 29.32  74: 52.26  75: 28.87
 Raman intensities (Ä⁴*amu⁻¹)
   1:  0.00   2:  0.00   3:  0.00   4:  0.00   5:  0.00   6:  0.00   7:  0.00   8:  0.00
   9:  0.00  10:  0.00  11:  0.00  12:  0.00  13:  0.00  14:  0.00  15:  0.00  16:  0.00
  17:  0.00  18:  0.00  19:  0.00  20:  0.00  21:  0.00  22:  0.00  23:  0.00  24:  0.00
  25:  0.00  26:  0.00  27:  0.00  28:  0.00  29:  0.00  30:  0.00  31:  0.00  32:  0.00
  33:  0.00  34:  0.00  35:  0.00  36:  0.00  37:  0.00  38:  0.00  39:  0.00  40:  0.00
  41:  0.00  42:  0.00  43:  0.00  44:  0.00  45:  0.00  46:  0.00  47:  0.00  48:  0.00
  49:  0.00  50:  0.00  51:  0.00  52:  0.00  53:  0.00  54:  0.00  55:  0.00  56:  0.00
  57:  0.00  58:  0.00  59:  0.00  60:  0.00  61:  0.00  62:  0.00  63:  0.00  64:  0.00
  65:  0.00  66:  0.00  67:  0.00  68:  0.00  69:  0.00  70:  0.00  71:  0.00  72:  0.00
  73:  0.00  74:  0.00  75:  0.00
 output can be read by thermo (or use thermo option).
 writing <g98.out> molden fake output.
 recommended (thermochemical) frequency scaling factor: 1.0
           -------------------------------------------------
          |             Thermodynamic Functions             |
           -------------------------------------------------

Molecule has no symmetry elements
It seems to be the C1 point group
c1  symmetry found (for desy threshold:  0.10E+00) used in thermo

          ...................................................
          :                      SETUP                      :
          :.................................................:
          :  # frequencies                          69      :
          :  # imaginary freq.                       0      :
          :  linear?                             false      :
          :  only rotor calc.                    false      :
          :  symmetry                               c1      :
          :  rotational number                       1      :
          :  scaling factor                  1.0000000      :
          :  rotor cutoff                    0.0000000 cm⁻¹ :
          :  imag. cutoff                 -100.0000000 cm⁻¹ :
          :.................................................:

    mode    ω/cm⁻¹     T·S(HO)/kcal·mol⁻¹    T·S(FR)/kcal·mol⁻¹   T·S(vib)
   ------------------------------------------------------------------------
       1     21.46    -1.93617 (100.00%)    -1.30676 (  0.00%)    -1.93617
       2     33.78    -1.66793 (100.00%)    -1.17256 (  0.00%)    -1.66793
       3     68.49    -1.25111 (100.00%)    -0.96323 (  0.00%)    -1.25111
       4     76.50    -1.18625 (100.00%)    -0.93048 (  0.00%)    -1.18625
       5    119.94    -0.92468 (100.00%)    -0.79730 (  0.00%)    -0.92468
       6    155.19    -0.77747 (100.00%)    -0.72098 (  0.00%)    -0.77747
       7    178.48    -0.69893 (100.00%)    -0.67956 (  0.00%)    -0.69893
       8    192.43    -0.65720 (100.00%)    -0.65727 (  0.00%)    -0.65720
       9    244.97    -0.52668 (100.00%)    -0.58576 (  0.00%)    -0.52668
      10    293.49    -0.43344 (100.00%)    -0.53223 (  0.00%)    -0.43344
   ------------------------------------------------------------------------

   temp. (K)  partition function   enthalpy   heat capacity  entropy
                                   cal/mol     cal/K/mol   cal/K/mol   J/K/mol
 298.15  VIB  0.756E+05             6344.904     40.339     43.603
         ROT  0.115E+07              888.752      2.981     30.714
         INT  0.869E+11             7233.656     43.320     74.317
         TR   0.202E+28             1481.254      4.968     41.160
         TOT                        8714.9100    48.2881   115.4768   483.1549

       T/K    H(0)-H(T)+PV         H(T)/Eh          T*S/Eh         G(T)/Eh
   ------------------------------------------------------------------------
    298.15    0.138881E-01    0.218856E+00    0.548668E-01    0.163989E+00
   ------------------------------------------------------------------------

         :::::::::::::::::::::::::::::::::::::::::::::::::::::
         ::                  THERMODYNAMIC                  ::
         :::::::::::::::::::::::::::::::::::::::::::::::::::::
         :: total free energy         -34.873572932697 Eh   ::
         ::.................................................::
         :: total energy              -35.037562225777 Eh   ::
         :: zero point energy           0.204967950556 Eh   ::
         :: G(RRHO) w/o ZPVE           -0.040978657476 Eh   ::
         :: G(RRHO) contrib.            0.163989293080 Eh   ::
         :::::::::::::::::::::::::::::::::::::::::::::::::::::

optimized geometry written to: xtbopt.coord


           -------------------------------------------------
          | TOTAL ENERGY              -35.037562225777 Eh   |
          | TOTAL ENTHALPY            -34.818706182080 Eh   |
          | TOTAL FREE ENERGY         -34.873572932697 Eh   |
          | GRADIENT NORM               0.000053514944 Eh/α |
          | HOMO-LUMO GAP               3.992588385366 eV   |
           -------------------------------------------------

------------------------------------------------------------------------
 * finished run on 2025/04/15 at 20:02:54.764     
------------------------------------------------------------------------
 total:
 * wall-time:     0 d,  0 h,  0 min,  4.073 sec
 *  cpu-time:     0 d,  0 h,  0 min,  4.036 sec
 * ratio c/w:     0.991 speedup
 SCF:
 * wall-time:     0 d,  0 h,  0 min,  0.057 sec
 *  cpu-time:     0 d,  0 h,  0 min,  0.040 sec
 * ratio c/w:     0.692 speedup
 ANC optimizer:
 * wall-time:     0 d,  0 h,  0 min,  0.740 sec
 *  cpu-time:     0 d,  0 h,  0 min,  0.736 sec
 * ratio c/w:     0.996 speedup
 analytical hessian:
 * wall-time:     0 d,  0 h,  0 min,  3.243 sec
 *  cpu-time:     0 d,  0 h,  0 min,  3.239 sec
 * ratio c/w:     0.999 speedup

