25
 energy: -35.035018368074 gnorm: 0.023814851364 xtb: 6.7.1 (edcfbbe)
C           -4.27395684969899       -0.25887735482043        0.01019378575376
C           -2.78067964009678       -0.08834130348517       -0.01679904194200
C           -2.19365087793890        0.96137406404373       -0.73047077245566
C           -0.81929652300133        1.15125940921417       -0.72420495755343
C            0.01279191907528        0.27133836028479       -0.02934439664644
C           -0.56481243823158       -0.77707733417775        0.68933869443600
C           -1.94435048577193       -0.94778024811633        0.69895406365116
C            1.47979376437977        0.57102351271895        0.01554919148777
O            1.86655793567657        1.72419025689870        0.18580891284911
N            2.35328845601607       -0.48515911345440       -0.07924622523344
C            3.77384159961563       -0.20662098606029        0.08495147512395
C            2.04717151453100       -1.75012198702274       -0.73398683212034
H           -4.72246818330660        0.02434514304800       -0.94609036021749
H           -4.55423498413709       -1.29214050603283        0.23056857248560
H           -4.72195978915342        0.37740340482732        0.78266281352428
H           -2.82694475269420        1.64479906179613       -1.28976943405763
H           -0.37136461576553        1.98663846856500       -1.25210217115064
H            0.06640678922597       -1.45088955748452        1.26113993098900
H           -2.37988369831205       -1.75942687909298        1.27546586247842
H            3.90144102404013        0.64525516329824        0.75282380243407
H            4.25083400767571        0.03329679084127       -0.87608064813744
H            4.26540006623580       -1.08922178756476        0.50787543616526
H            2.23701698692491       -2.59910139963481       -0.06382199407326
H            2.68067709165662       -1.87040140715739       -1.62388466000605
H            1.00505677980019       -1.77776857891694       -1.05051576362464
25
 energy: -35.036305738077 gnorm: 0.006300311919 xtb: 6.7.1 (edcfbbe)
C           -4.25917096788120       -0.25954439555715        0.00800486524339
C           -2.77063573641131       -0.08759306883674       -0.01668548457563
C           -2.18821993991929        0.95826582240927       -0.72710729721528
C           -0.81867838983497        1.14321245723773       -0.72479540780198
C            0.01264254751099        0.26427106405977       -0.03490314558415
C           -0.56407673195022       -0.77864976471176        0.68427787046574
C           -1.93814088426529       -0.94543417117927        0.69456034486251
C            1.47572913261092        0.56418248120346        0.01524887459609
O            1.86603048530957        1.70420122860351        0.20756079122007
N            2.34472782845498       -0.48346948542987       -0.08491121568587
C            3.75925819215750       -0.21009621952429        0.07728357869805
C            2.03981959741682       -1.73979231621060       -0.73250917388301
H           -4.70172000701159        0.02518778074117       -0.94599148775272
H           -4.53316514326879       -1.29018831716144        0.22897197722589
H           -4.69755158037841        0.37678191224681        0.77989522304416
H           -2.81980013735058        1.64091875190821       -1.28054400387861
H           -0.37332860458370        1.97302498759636       -1.25500700006459
H            0.06177205665739       -1.44472263002907        1.26270880496491
H           -2.37248869572247       -1.75368921736768        1.26846930785810
H            3.87553887807777        0.64464276759291        0.74017712783220
H            4.23554482697467        0.02468797904178       -0.88125154166578
H            4.24571305285775       -1.08546444620530        0.51124849018719
H            2.23515343455782       -2.57682507018280       -0.05496746456095
H            2.67366406228070       -1.85977276446094       -1.61786560609165
H            0.99805782045623       -1.76614017326916       -1.04285314327818
25
 energy: -35.036537463307 gnorm: 0.003197582822 xtb: 6.7.1 (edcfbbe)
C           -4.25054988615849       -0.26143506946095        0.00591687510957
C           -2.76345306601094       -0.08971094314667       -0.01990774080981
C           -2.18376100994275        0.95557734423997       -0.72939011569662
C           -0.81567830519454        1.13862220543343       -0.72828694135902
C            0.01405101013208        0.26286662144695       -0.03522018149151
C           -0.56151094158126       -0.77729220785358        0.68665888692665
C           -1.93329944359686       -0.94611977305639        0.69222696887723
C            1.47414173016461        0.56484506430620        0.02477629230463
O            1.86591990288171        1.69937387346624        0.23704744836360
N            2.33946322324045       -0.47852965126845       -0.09168801869277
C            3.75108277551265       -0.21129686458627        0.07093984045477
C            2.03154637408034       -1.73300111152807       -0.73157357380932
H           -4.69018026453168        0.02365475384637       -0.94713362457540
H           -4.52129797918701       -1.29078688946401        0.22794062853739
H           -4.68335288208756        0.37587285003757        0.77763220220020
H           -2.81504525583990        1.63936174126106       -1.27825302403995
H           -0.37096162873388        1.96533070861338       -1.26085789592476
H            0.06228470920590       -1.44138776433093        1.26654126738417
H           -2.36747559118681       -1.75357930724828        1.26433776307040
H            3.86421762428694        0.64943694993743        0.72625438382304
H            4.22855638558797        0.01314841808773       -0.88756597712606
H            4.23201357244926       -1.08244972320341        0.51573904681456
H            2.23056887491414       -2.56630339505055       -0.05223804813338
H            2.66029144521425       -1.85699655446333       -1.61839556969357
H            0.98910372312666       -1.76120608350053       -1.03648560835416
25
 energy: -35.036696335091 gnorm: 0.003372291624 xtb: 6.7.1 (edcfbbe)
C           -4.24468278156045       -0.26460509723125        0.00271932694629
C           -2.75780482301394       -0.09225827601609       -0.02334716461238
C           -2.17985520387035        0.95264015825812       -0.73364092793068
C           -0.81223224663243        1.13637632171111       -0.73086371466530
C            0.01556192229883        0.26494579942920       -0.03150943719720
C           -0.55867088110164       -0.77441307454178        0.69206270738370
C           -1.92936695868901       -0.94717176682896        0.69149468690029
C            1.47365161641882        0.56799163498004        0.03875078792227
O            1.86568012655885        1.69734477664961        0.27953035292574
N            2.33640229446505       -0.47152469422334       -0.10276118685221
C            3.74719131101557       -0.21281462640087        0.06334421861332
C            2.02202296770147       -1.72661392055376       -0.73322205659583
H           -4.68302015954311        0.01987158067155       -0.95013451626028
H           -4.51334273614556       -1.29332154465012        0.22627027921603
H           -4.67437878422361        0.37383173606956        0.77414650841799
H           -2.81098051930855        1.63492395531145       -1.28306445642754
H           -0.36716976663942        1.95967167348399       -1.26756355768540
H            0.06414400509110       -1.43465928783285        1.27644055077237
H           -2.36384890398670       -1.75472903153372        1.26218992725272
H            3.86042756416134        0.65735088204947        0.70673372611912
H            4.22949590768550       -0.00511069161217       -0.89593471592746
H            4.22109575640277       -1.07941509661825        0.52374420202255
H            2.22439858677768       -2.55707006626468       -0.05142710145693
H            2.64417604046176       -1.85668914139241       -1.62350382163743
H            0.97778076242135       -1.75655701039898       -1.03143933308384
25
 energy: -35.036960839872 gnorm: 0.007185761807 xtb: 6.7.1 (edcfbbe)
C           -4.23651895718781       -0.27236980545093       -0.00613571402656
C           -2.74922072108601       -0.09790778112012       -0.03031916126111
C           -2.17228065391590        0.94438040272778       -0.74487514097284
C           -0.80479042351280        1.13213340226302       -0.73478286198553
C            0.01824998242303        0.27202765243148       -0.01731569417158
C           -0.55504721600070       -0.76529787719372        0.70984487224314
C           -1.92438140357804       -0.94741681914219        0.69474155090300
C            1.47421105121739        0.57484640033182        0.07574806844025
O            1.86490025249106        1.69272080015314        0.37772962060467
N            2.33436569307179       -0.45479555404527       -0.12999466968069
C            3.74585875858558       -0.21625887152194        0.04525581741815
C            2.00295956817262       -1.71262626572640       -0.74111895286409
H           -4.67338992426755        0.00890594098713       -0.95990353437152
H           -4.50260713173495       -1.30032784841546        0.22128536726108
H           -4.66420374642342        0.36868849332416        0.76351279288964
H           -2.80260927050861        1.62098100518893       -1.30132968745052
H           -0.35842355555676        1.94996290502413       -1.27869966158765
H            0.06652596157720       -1.41749285764870        1.30431766048046
H           -2.36029128633902       -1.75593068968263        1.26254687765987
H            3.86274952132033        0.67724396393377        0.65799398459723
H            4.24231433142813       -0.05288483401186       -0.91652150592315
H            4.20233335703381       -1.07237737148286        0.54472434463608
H            2.21102469324379       -2.53798521961581       -0.05386987266380
H            2.61078112208429       -1.85675787525452       -1.63957211219069
H            0.95416509420795       -1.74346610353819       -1.02424710382399
25
 energy: -35.037137839613 gnorm: 0.008585632631 xtb: 6.7.1 (edcfbbe)
C           -4.23346944038227       -0.27973567683790       -0.01652688694742
C           -2.74555019686486       -0.10245292615821       -0.03431296521238
C           -2.16597129890373        0.93598628375323       -0.75330438195675
C           -0.79826373597396        1.12904327105351       -0.73302868820177
C            0.02004684364526        0.27908629731596        0.00187687990783
C           -0.55538261003448       -0.75581951598532        0.73142571483124
C           -1.92418557701934       -0.94526724439210        0.70354559329812
C            1.47653190277085        0.57860380018856        0.10898243928553
O            1.86582055422038        1.68510162829055        0.45303553116993
N            2.33627134265058       -0.44015944667297       -0.15320212034230
C            3.74992804956680       -0.21876012621030        0.02955802474477
C            1.98914564271155       -1.70011739067843       -0.75155943657070
H           -4.66839461660372       -0.00234758060297       -0.97279854164549
H           -4.49910070263731       -1.30769628183107        0.21339263003923
H           -4.66530559713069        0.36295440320453        0.75001903615505
H           -2.79421376730558        1.60500814119969       -1.32231711164234
H           -0.35016711597286        1.94298504360887       -1.28238398259859
H            0.06508628528212       -1.40186858201961        1.33464351068600
H           -2.36236575759753       -1.75368363591306        1.27052540391580
H            3.87393041615444        0.69479831751004        0.61281893688613
H            4.25862461471392       -0.09827393768406       -0.93412132353569
H            4.19102197935143       -1.06450726932025        0.56364018361340
H            2.19887492123821       -2.52335268391769       -0.06123470215105
H            2.58671829020792       -1.85457964880282       -1.65568150863050
H            0.93704467065833       -1.72695004658355       -1.02397695093823
25
 energy: -35.037302291773 gnorm: 0.004926518041 xtb: 6.7.1 (edcfbbe)
C           -4.23470473329781       -0.28593530721440       -0.02763246778533
C           -2.74645525621751       -0.10494823686212       -0.03383874534211
C           -2.16089444433475        0.92816227333366       -0.75726309070150
C           -0.79291886872016        1.12613360018331       -0.72620308619230
C            0.02109538565030        0.28343000330226        0.02215355063060
C           -0.55945572497631       -0.74786920295302        0.75378486912506
C           -1.92842975627788       -0.94004982737077        0.71829276339135
C            1.48039790507265        0.57835418594050        0.13157612331111
O            1.86952150148267        1.67480605936339        0.49671265723537
N            2.34051134580828       -0.42976199391235       -0.16874079099521
C            3.75685580760841       -0.21985001559325        0.01834596751704
C            1.98195029465344       -1.69027651480321       -0.76328191128764
H           -4.66568563174393       -0.01269129533043       -0.98816905392363
H           -4.50153303276834       -1.31460238885467        0.20272909533089
H           -4.67693085683424        0.35712667639975        0.73421236862587
H           -2.78561971507919        1.58916150394333       -1.34176239155818
H           -0.34290748563391        1.93812674489145       -1.27822570143240
H            0.05959362610833       -1.39009180458456        1.36391294284053
H           -2.36954376621609       -1.74622838876960        1.28765775021902
H            3.89041715835560        0.70680922443521        0.57726665292447
H            4.27203826085450       -0.13363874980913       -0.94559620636750
H            4.18738157275738       -1.05573281270472        0.57677158032281
H            2.18766804564041       -2.51496198578798       -0.07279904735199
H            2.57568431220523       -1.84959920598107       -1.66895527196075
H            0.92863915264845       -1.70787734874706       -1.03193327241579
25
 energy: -35.037411320744 gnorm: 0.003361635242 xtb: 6.7.1 (edcfbbe)
C           -4.23546050355463       -0.29161726973898       -0.03941421896969
C           -2.74793069702810       -0.10620450065091       -0.03084771015040
C           -2.15551625042223        0.91967526665956       -0.75926365673255
C           -0.78791210045962        1.12086468738657       -0.71880835831185
C            0.02214735733040        0.28322214519211        0.03900950502703
C           -0.56475953937552       -0.74187899574731        0.77463100884750
C           -1.93383636995728       -0.93200548786511        0.73667514049144
C            1.48441352236824        0.57633022923908        0.14784552224407
O            1.87407306059474        1.66369033600607        0.53932845055797
N            2.34406512347162       -0.42192734631315       -0.18053071034239
C            3.76241884947086       -0.22052869433471        0.00778892719976
C            1.97731353654164       -1.68082960861117       -0.77638726287863
H           -4.65891106716628       -0.02310308275626       -1.00551019366040
H           -4.50293465427493       -1.32091866426119        0.19068431121343
H           -4.69064801547020        0.35158080953719        0.71580874783464
H           -2.77560137125881        1.57312413598651       -1.35829315426890
H           -0.33614820351778        1.93073063841548       -1.27295604925493
H            0.05165978843251       -1.38004261329507        1.39250435823402
H           -2.37831788593933       -1.73154197498587        1.31346790394019
H            3.90444978335457        0.71759292541633        0.54301680429656
H            4.27973836146732       -0.16552656544759       -0.95619010877135
H            4.18389936573286       -1.04564816152135        0.58848696116153
H            2.17513449406401       -2.50793437196743       -0.08638254649955
H            2.57133918098213       -1.84259047322479       -1.68065936777319
H            0.92399933135938       -1.68651817060356       -1.04498901927456
25
 energy: -35.037479108288 gnorm: 0.003504847764 xtb: 6.7.1 (edcfbbe)
C           -4.23479229523116       -0.29588786017407       -0.05046172026678
C           -2.74860683734437       -0.10688916812664       -0.02741214242566
C           -2.14995292132292        0.91181316766255       -0.76010249779133
C           -0.78287755201593        1.11307334906494       -0.71312239544687
C            0.02320688149956        0.27934475668122        0.05309579546148
C           -0.56997674546360       -0.73740969084114        0.79480889950658
C           -1.93914383180030       -0.92399092792565        0.75422879636464
C            1.48703776096834        0.57191072116447        0.16441026403108
O            1.87687118750888        1.65317193004192        0.56610412934577
N            2.34598909562905       -0.41807202704994       -0.18362530675138
C            3.76559824415899       -0.22044602729088       -0.00102982160348
C            1.97385474622405       -1.67191050351407       -0.78785433203363
H           -4.64814716536374       -0.03083711958386       -1.02201327802762
H           -4.50209912117669       -1.32561895706154        0.17832344733409
H           -4.70180425535760        0.34698856917762        0.69796992074442
H           -2.76514017801069        1.56098383615344       -1.36812617040524
H           -0.32919920956431        1.92065512436160       -1.26869932066888
H            0.04273431355389       -1.37367190602487        1.41818060606346
H           -2.38739326201972       -1.71500861032473        1.33982385374922
H            3.91384274090759        0.72607914150661        0.51504005815768
H            4.27940151968535       -0.18883253600463       -0.96576203637392
H            4.18235811395010       -1.03515556306452        0.59581248976014
H            2.16282693696860       -2.50341690327076       -0.10111738696417
H            2.57065383725641       -1.83220527703087       -1.68981541527228
H            0.92143309310583       -1.66667232601182       -1.05964115232759
25
 energy: -35.037509374496 gnorm: 0.004046694062 xtb: 6.7.1 (edcfbbe)
C           -4.23074252242957       -0.30198727725509       -0.06347791283646
C           -2.74589520167988       -0.10910546714274       -0.02554633317972
C           -2.14196389207387        0.90180525154021       -0.76371933155458
C           -0.77567594226239        1.10405325410031       -0.70800449234799
C            0.02505885751669        0.27717632601378        0.07111433925922
C           -0.57355821633086       -0.73047455190538        0.82017570812473
C           -1.94248633695844       -0.91604348644652        0.77251822420520
C            1.48908180708236        0.56931760365122        0.18830286924482
O            1.87890109201126        1.64149527359782        0.62127248632166
N            2.34576419775680       -0.41118026067581       -0.19227402694905
C            3.76651175609040       -0.22139625812402       -0.01393427551812
C            1.96467631091458       -1.65924810083617       -0.80197575173204
H           -4.63260927735599       -0.04095903044199       -1.04056470970955
H           -4.49676838533232       -1.33172922034031        0.16503252539977
H           -4.70807197991240        0.34135502708733        0.67742182837806
H           -2.75197968884080        1.54460407969197       -1.38299070905227
H           -0.31913687029409        1.90557027870560       -1.26970171805933
H            0.03453203332804       -1.36203172967142        1.45266814397019
H           -2.39514388400437       -1.69836393177753        1.36592554768939
H            3.92038794266087        0.74107849357897        0.47345227068200
H            4.28003149002129       -0.22574497426612       -0.98071285301832
H            4.17583891859563       -1.02125264933091        0.61064286305249
H            2.14522109753930       -2.49502914704826       -0.11842080220030
H            2.56200727038412       -1.82015226034748       -1.70301163021344
H            0.91269452031936       -1.64376204984318       -1.07517697579669
25
 energy: -35.037534628169 gnorm: 0.001931715090 xtb: 6.7.1 (edcfbbe)
C           -4.22893713778646       -0.30219437400979       -0.06473828649921
C           -2.74439068461179       -0.10896211277318       -0.02428188185071
C           -2.14019510834658        0.90093382134957       -0.76326798740497
C           -0.77410091217463        1.10183326789351       -0.70729639427822
C            0.02547323091037        0.27560705671470        0.07335399183614
C           -0.57355787819600       -0.72974964467819        0.82451756947354
C           -1.94264492558944       -0.91470868475672        0.77532070480244
C            1.48855174058812        0.56744834373550        0.18808084355087
O            1.87934164337047        1.63984354583050        0.61665347951082
N            2.34349628337774       -0.41406243178210       -0.18635598703583
C            3.76400001458100       -0.22101203813217       -0.01311759397262
C            1.96306907607083       -1.65823362475641       -0.80336760960408
H           -4.62739723932335       -0.04104638005416       -1.04256289935599
H           -4.49443399228231       -1.33186115105239        0.16310158328138
H           -4.70715481567138        0.34098038543251        0.67471553553679
H           -2.74924955463320        1.54321174544519       -1.38310172758738
H           -0.31605343100160        1.90048067560728       -1.27164187162742
H            0.03295071997843       -1.36047882381610        1.45888831169869
H           -2.39650054224954       -1.69529432953346        1.36942510618822
H            3.91734634199207        0.73928697679921        0.47459837689402
H            4.27248194264400       -0.22173930022136       -0.97947744808333
H            4.17886665799339       -1.01792225429570        0.60737567826824
H            2.14033301879827       -2.49776666644601       -0.12368329821012
H            2.56314154353697       -1.81515385814310       -1.70343211964089
H            0.91223910477034       -1.64144495184288       -1.08069079173068
25
 energy: -35.037544140071 gnorm: 0.001689185249 xtb: 6.7.1 (edcfbbe)
C           -4.22610653454719       -0.30459627853665       -0.06860662770672
C           -2.74134708388634       -0.11034287614858       -0.02456328060916
C           -2.13638648086373        0.89775548623642       -0.76575799947654
C           -0.77033936045466        1.09852218972879       -0.70708175173991
C            0.02642200018376        0.27661769816222        0.08116858299218
C           -0.57332279195268       -0.72663553342741        0.83405631667195
C           -1.94219350828741       -0.91345624356980        0.77984761869387
C            1.48872462858717        0.56712265659808        0.19911779015384
O            1.88065490356510        1.63687837767403        0.62968413976395
N            2.34173761294247       -0.41335010132309       -0.18485760233028
C            3.76275015783721       -0.22144000305773       -0.01642412423287
C            1.95675451287520       -1.65329192712245       -0.80678352650768
H           -4.62178240123443       -0.04451746838174       -1.04756148463212
H           -4.49111596413591       -1.33420605338638        0.15954990869623
H           -4.70567393742996        0.33907437536761        0.66920314486853
H           -2.74425630280275        1.53756202014493       -1.38937682078248
H           -0.31000640839139        1.89429612163801       -1.27330077675729
H            0.03148301597071       -1.35427792385242        1.47293397505732
H           -2.39766615112741       -1.69395587118352        1.37245721835439
H            3.91728097736128        0.74396085674304        0.46228283549385
H            4.26992138090434       -0.23240948119932       -0.98450292411442
H            4.17820304990260       -1.01295446739198        0.61180307797344
H            2.13194794486316       -2.49715801222052       -0.13186947407865
H            2.55538318189250       -1.80800547654653       -1.70861353907083
H            0.90560865497409       -1.63319687243080       -1.08378939252092
25
 energy: -35.037549057357 gnorm: 0.000872405392 xtb: 6.7.1 (edcfbbe)
C           -4.22467347391352       -0.30613412049012       -0.07039738704629
C           -2.73969106190834       -0.11161370389810       -0.02555597427381
C           -2.13440735309702        0.89562500636944       -0.76798439032605
C           -0.76852112099055        1.09748467151417       -0.70714353509962
C            0.02687922104113        0.27825792835830        0.08496864839154
C           -0.57305389613421       -0.72430193201038        0.83861358882866
C           -1.94166249322761       -0.91283008977391        0.78194240373934
C            1.48930863793704        0.56767136907978        0.20283112413658
O            1.88289381070781        1.63561271664585        0.63903169490543
N            2.34068344508505       -0.41348801931561       -0.18366680747890
C            3.76208647347930       -0.22209487672654       -0.01740183879136
C            1.95302982615133       -1.65093123286148       -0.80869127615896
H           -4.62008370031637       -0.04733399894166       -1.04987397599284
H           -4.48970591762020       -1.33559031028212        0.15888495232823
H           -4.70465517649382        0.33838766870154        0.66664211629310
H           -2.74186534810055        1.53324369399160       -1.39445222139574
H           -0.30677355745243        1.89137791449896       -1.27490430885549
H            0.03128737889897       -1.34964487025818        1.48005824169615
H           -2.39782955609268       -1.69305682673981        1.37468775186146
H            3.91764542546413        0.74440501376541        0.45790485188360
H            4.26786357141914       -0.23585769242561       -0.98582606517547
H            4.17891223453879       -1.01137334253239        0.61218593442541
H            2.12739847868917       -2.49737378500316       -0.13664093957713
H            2.55017637201474       -1.80402086013532       -1.71192196816607
H            0.90143287666644       -1.62842512901650       -1.08427533599209
25
 energy: -35.037551478236 gnorm: 0.000524482826 xtb: 6.7.1 (edcfbbe)
C           -4.22425071598856       -0.30701169118359       -0.07085679924640
C           -2.73930138597645       -0.11223202303871       -0.02632825513600
C           -2.13401925160608        0.89493069005345       -0.76877636621921
C           -0.76831126120022        1.09783266781318       -0.70726084394006
C            0.02691987358645        0.27961262587527        0.08561889453346
C           -0.57295719672779       -0.72313495297275        0.83928741528587
C           -1.94126548512560       -0.91272535013585        0.78197067354410
C            1.48982814706855        0.56844469448824        0.20287621866094
O            1.88474607329480        1.63611539066851        0.63800729665430
N            2.34032052196518       -0.41437462369582       -0.18080339528075
C            3.76213511145265       -0.22292997468342       -0.01658803795922
C            1.95175236240744       -1.65023642725176       -0.80859728753904
H           -4.62065444659073       -0.04870711358683       -1.05022571268880
H           -4.48943437127466       -1.33637185801168        0.15914674644379
H           -4.70397890176712        0.33785757338624        0.66628503918981
H           -2.74155681772663        1.53153421860105       -1.39607675715839
H           -0.30630882822651        1.89164045018300       -1.27499582002252
H            0.03170861645638       -1.34761217966630        1.48117112055360
H           -2.39732320958669       -1.69307837777066        1.37486980045419
H            3.91859091314670        0.74329810876970        0.45883862672846
H            4.26638898813972       -0.23607917857879       -0.98597533588112
H            4.17972834933079       -1.01291263824067        0.61178789071258
H            2.12699702188548       -2.49836556513297       -0.13894817782296
H            2.54719334492874       -1.80102729095706       -1.71327511840041
H            0.89972764487991       -1.62647198241761       -1.08213653130656
25
 energy: -35.037553501393 gnorm: 0.000586484697 xtb: 6.7.1 (edcfbbe)
C           -4.22357574563366       -0.30837859680913       -0.07179583222458
C           -2.73892387743465       -0.11269812276342       -0.02707927760937
C           -2.13363556316275        0.89370794728692       -0.77031459475345
C           -0.76813274718846        1.09800799599438       -0.70791029440458
C            0.02702954750860        0.28134908016358        0.08656851509985
C           -0.57286429554230       -0.72119840668496        0.84078696089233
C           -1.94077541747351       -0.91173077867179        0.78285055447881
C            1.49037358207815        0.56968592494794        0.20460917702410
O            1.88642635700505        1.63722465627542        0.63858024680137
N            2.34002044690648       -0.41529994039933       -0.17743318903669
C            3.76230823465819       -0.22460699148496       -0.01585628390287
C            1.95006370936556       -1.64897948139247       -0.80892625852392
H           -4.62065264349465       -0.05104225755070       -1.05126767986500
H           -4.48845854471326       -1.33761287500409        0.15922228987148
H           -4.70346004766910        0.33694134171233        0.66498295528832
H           -2.74115752012677        1.52879394623295       -1.39912617225254
H           -0.30640168087017        1.89180477476539       -1.27599450840502
H            0.03221629845454       -1.34445587263082        1.48354718367630
H           -2.39657471981360       -1.69185292352390        1.37624288022754
H            3.92029759285823        0.74033868841404        0.46097296107035