 Entering Gaussian System
 *********************************************
 Gaussian 98:
 frequency output generated by the xtb code
 *********************************************
                         Standard orientation:
 --------------------------------------------------------------------
  Center     Atomic     Atomic              Coordinates (Angstroms)
  Number     Number      Type              X           Y           Z
 --------------------------------------------------------------------
    1          6             0       -2.475198   -1.181072   -0.003224
    2          6             0       -1.692161    0.109651   -0.000158
    3          8             0       -2.247584    1.185785    0.002016
    4          6             0       -0.209350    0.004587   -0.000084
    5          6             0        0.524674    1.191861   -0.001498
    6          6             0        1.905140    1.169237   -0.001619
    7          6             0        2.574823   -0.043909   -0.000179
    8          6             0        1.857057   -1.229314    0.001383
    9          6             0        0.474454   -1.210279    0.001377
   10          1             0       -2.231250   -1.765342   -0.887757
   11          1             0       -3.538140   -0.953431   -0.004929
   12          1             0       -2.234732   -1.767209    0.881045
   13          1             0       -0.017187    2.126007   -0.002554
   14          1             0        2.461198    2.094956   -0.002812
   15          1             0        3.654645   -0.067064   -0.000239
   16          1             0        2.379626   -2.174781    0.002606
   17          1             0       -0.063386   -2.145457    0.002715
 --------------------------------------------------------------------
     1 basis functions        1 primitive gaussians
     1 alpha electrons        1 beta electrons
 
 Harmonic frequencies (cm**-1), IR intensities (km*mol⁻¹),
 Raman scattering activities (A**4/amu), Raman depolarization ratios,
 reduced masses (AMU), force constants (mDyne/A) and normal coordinates:
                      1                      2                      3
                        a                      a                      a 
 Frequencies --    23.6275               138.7585               191.5558
 Red. masses --    11.0149                10.5115                 1.5373
 Frc consts  --     0.0000                 0.0000                 0.0000
 IR Inten    --     4.2100                 0.5255                 0.7405
 Raman Activ --     0.0000                 0.0000                 0.0000
 Depolar     --     0.0000                 0.0000                 0.0000
 Atom AN      X      Y      Z        X      Y      Z        X      Y      Z
   1   6     0.00   0.00  -0.50    -0.00   0.00   0.18    -0.00   0.00  -0.06
   2   6     0.00  -0.00   0.05     0.00  -0.00  -0.06    -0.00  -0.00   0.05
   3   8    -0.00  -0.00   0.53     0.00  -0.00   0.34     0.00   0.00  -0.10
   4   6    -0.00   0.00   0.03     0.00  -0.00  -0.44    -0.00  -0.00   0.09
   5   6    -0.00  -0.00  -0.23    -0.00  -0.00  -0.39    -0.00  -0.00   0.02
   6   6    -0.00  -0.00  -0.28    -0.00   0.00   0.05    -0.00   0.00  -0.07
   7   6    -0.00  -0.00  -0.04     0.00   0.00   0.42     0.00   0.00  -0.02
   8   6    -0.00   0.00   0.24     0.00   0.00   0.11     0.00   0.00   0.07
   9   6    -0.00   0.00   0.27     0.00  -0.00  -0.35     0.00  -0.00   0.10
  10   1     0.09   0.05  -0.15    -0.10   0.01   0.02    -0.37   0.32  -0.34
  11   1     0.00   0.00  -0.23    -0.00   0.00   0.17    -0.00  -0.00   0.49
  12   1    -0.09  -0.05  -0.15     0.10  -0.01   0.02     0.37  -0.32  -0.34
  13   1     0.00  -0.00  -0.12    -0.00  -0.00  -0.16    -0.00  -0.00  -0.00
  14   1    -0.00  -0.00  -0.15    -0.00   0.00   0.05    -0.00   0.00  -0.05
  15   1    -0.00  -0.00  -0.02     0.00   0.00   0.26     0.00   0.00  -0.02
  16   1    -0.00   0.00   0.13     0.00   0.00   0.09     0.00   0.00   0.03
  17   1    -0.00   0.00   0.15     0.00  -0.00  -0.15     0.00  -0.00   0.02
                      4                      5                      6
                        a                      a                      a 
 Frequencies --   211.6594               357.1499               362.5902
 Red. masses --    10.8764                10.9696                 8.7599
 Frc consts  --     0.0000                 0.0000                 0.0000
 IR Inten    --     4.3603                 1.0445                 0.0051
 Raman Activ --     0.0000                 0.0000                 0.0000
 Depolar     --     0.0000                 0.0000                 0.0000
 Atom AN      X      Y      Z        X      Y      Z        X      Y      Z
   1   6     0.41  -0.20   0.00    -0.50   0.06   0.00    -0.00   0.00  -0.01
   2   6    -0.02   0.09   0.00    -0.13  -0.11  -0.00    -0.00  -0.00   0.03
   3   8    -0.44  -0.12   0.00    -0.40  -0.25   0.00    -0.00  -0.00  -0.00
   4   6    -0.01   0.32  -0.00     0.01   0.10  -0.00    -0.00   0.00   0.01
   5   6     0.19   0.20  -0.00     0.23   0.02   0.00     0.00  -0.00  -0.44
   6   6     0.20  -0.10  -0.00     0.27  -0.05  -0.00     0.00   0.00   0.41
   7   6    -0.00  -0.21   0.00     0.32  -0.02  -0.00     0.00  -0.00   0.02
   8   6    -0.21  -0.08   0.00     0.18   0.07   0.00     0.00  -0.00  -0.42
   9   6    -0.19   0.21  -0.00     0.15   0.17  -0.00     0.00   0.00   0.40
  10   1     0.17  -0.03  -0.00    -0.23  -0.02   0.00    -0.01   0.02  -0.02
  11   1     0.10  -0.16   0.00    -0.11   0.17   0.00    -0.00   0.00   0.01
  12   1     0.17  -0.03   0.00    -0.22  -0.02  -0.00     0.01  -0.02  -0.02
  13   1     0.11   0.09  -0.00     0.11   0.03   0.00     0.00  -0.00  -0.28
  14   1     0.11  -0.06   0.00     0.07  -0.01  -0.00     0.00   0.00   0.26
  15   1    -0.00  -0.11   0.00     0.09  -0.02  -0.00     0.00  -0.00   0.02
  16   1    -0.12  -0.05   0.00     0.01  -0.00   0.00     0.00  -0.00  -0.26
  17   1    -0.09   0.09  -0.00     0.04   0.05  -0.00     0.00   0.00   0.28
                      7                      8                      9
                        a                      a                      a 
 Frequencies --   390.1566               451.7914               574.9383
 Red. masses --     9.6958                11.5625                 8.8146
 Frc consts  --     0.0000                 0.0000                 0.0000
 IR Inten    --     0.0687                 0.5548                 6.0820
 Raman Activ --     0.0000                 0.0000                 0.0000
 Depolar     --     0.0000                 0.0000                 0.0000
 Atom AN      X      Y      Z        X      Y      Z        X      Y      Z
   1   6     0.00  -0.00   0.05    -0.17  -0.11  -0.00    -0.00  -0.01   0.05
   2   6     0.00  -0.00  -0.38     0.27  -0.31   0.00    -0.00  -0.00   0.61
   3   8     0.00  -0.00   0.18     0.42  -0.32  -0.00     0.01   0.00  -0.21
   4   6     0.00   0.00  -0.50     0.16   0.22   0.00    -0.00   0.00  -0.26
   5   6    -0.00   0.00   0.16     0.04   0.34  -0.00     0.00  -0.00  -0.16
   6   6    -0.00   0.00   0.26     0.02   0.13  -0.00     0.00  -0.00   0.20
   7   6    -0.00  -0.00  -0.40    -0.25  -0.04   0.00     0.00  -0.00  -0.25
   8   6    -0.00   0.00   0.23    -0.23  -0.05  -0.00    -0.00   0.00   0.21
   9   6    -0.00   0.00   0.20    -0.17   0.13  -0.00    -0.00   0.00  -0.19
  10   1    -0.10  -0.08   0.04    -0.16  -0.07  -0.00     0.18   0.23  -0.09
  11   1    -0.00  -0.00   0.12    -0.01   0.16  -0.00    -0.00  -0.00  -0.17
  12   1     0.10   0.08   0.04    -0.16  -0.07   0.00    -0.18  -0.23  -0.09
  13   1    -0.00   0.00   0.14     0.01   0.09  -0.00     0.00   0.00   0.06
  14   1     0.00   0.00   0.19     0.08  -0.00  -0.00    -0.00  -0.00   0.20
  15   1    -0.00  -0.00  -0.25    -0.07  -0.05   0.00     0.00  -0.00  -0.05
  16   1    -0.00   0.00   0.17    -0.07  -0.01  -0.00    -0.00   0.00   0.21
  17   1    -0.00   0.00   0.17    -0.13   0.09  -0.00     0.00   0.00   0.05
                     10                     11                     12
                        a                      a                      a 
 Frequencies --   577.8605               587.2551               662.0488
 Red. masses --    11.4832                11.1926                 8.8831
 Frc consts  --     0.0000                 0.0000                 0.0000
 IR Inten    --    20.8828                 0.5966                 8.2047
 Raman Activ --     0.0000                 0.0000                 0.0000
 Depolar     --     0.0000                 0.0000                 0.0000
 Atom AN      X      Y      Z        X      Y      Z        X      Y      Z
   1   6    -0.17  -0.42  -0.00     0.01   0.00   0.00     0.00   0.00   0.03
   2   6    -0.32  -0.11  -0.01     0.03   0.00   0.00     0.00  -0.00   0.13
   3   8     0.42   0.26   0.00    -0.04  -0.05  -0.00    -0.00   0.00  -0.05
   4   6    -0.26   0.08   0.00     0.01  -0.17  -0.00     0.00  -0.00  -0.46
   5   6     0.05  -0.07   0.00     0.32  -0.30  -0.00     0.00   0.00   0.29
   6   6     0.09  -0.12  -0.00     0.35   0.33  -0.00    -0.00  -0.00  -0.36
   7   6     0.25  -0.01   0.00    -0.01   0.19  -0.00    -0.00   0.00   0.26
   8   6    -0.07   0.21  -0.00    -0.34   0.33   0.00     0.00  -0.00  -0.36
   9   6    -0.08   0.26   0.00    -0.33  -0.30  -0.00     0.00  -0.00   0.27
  10   1     0.05  -0.09   0.00    -0.01  -0.00  -0.00     0.05   0.07  -0.03
  11   1    -0.08  -0.29   0.00     0.01   0.02  -0.00     0.00   0.00  -0.04
  12   1     0.05  -0.08  -0.00    -0.01  -0.00   0.00    -0.05  -0.07  -0.03
  13   1     0.09   0.02  -0.00     0.03  -0.12   0.00    -0.00   0.00   0.30
  14   1    -0.01  -0.01  -0.00     0.05   0.12   0.00     0.00   0.00   0.04
  15   1     0.07  -0.03   0.00    -0.01  -0.11   0.00    -0.00   0.00   0.29
  16   1    -0.09   0.02  -0.00    -0.04   0.12   0.00     0.00   0.00   0.04
  17   1     0.02   0.05  -0.00    -0.03  -0.12   0.00    -0.00   0.00   0.30
                     13                     14                     15
                        a                      a                      a 
 Frequencies --   743.8090               752.5852               874.0883
 Red. masses --    10.7662                 4.2447                 3.3595
 Frc consts  --     0.0000                 0.0000                 0.0000
 IR Inten    --     2.7606                22.8341                 0.0975
 Raman Activ --     0.0000                 0.0000                 0.0000
 Depolar     --     0.0000                 0.0000                 0.0000
 Atom AN      X      Y      Z        X      Y      Z        X      Y      Z
   1   6     0.23   0.28   0.00     0.00   0.00   0.06    -0.00   0.00   0.00
   2   6     0.24  -0.10  -0.00     0.00  -0.00   0.11    -0.00  -0.00   0.00
   3   8     0.07  -0.26  -0.00    -0.00  -0.00  -0.03    -0.00   0.00  -0.00
   4   6    -0.21   0.01   0.00    -0.00  -0.00  -0.36    -0.00   0.00  -0.01
   5   6    -0.15  -0.22   0.00    -0.00  -0.00   0.18     0.00   0.00   0.22
   6   6    -0.18  -0.33   0.00    -0.00  -0.00   0.08     0.00   0.00   0.21
   7   6     0.33  -0.01  -0.00     0.00   0.00   0.21    -0.00   0.00   0.06
   8   6    -0.16   0.34  -0.00    -0.00   0.00   0.08     0.00  -0.00  -0.18
   9   6    -0.14   0.24  -0.00    -0.00   0.00   0.23     0.00  -0.00  -0.29
  10   1    -0.03   0.05  -0.00     0.08   0.11  -0.03     0.00   0.01  -0.00
  11   1     0.10   0.25   0.00     0.00   0.00  -0.07    -0.00   0.00   0.01
  12   1    -0.03   0.05   0.00    -0.08  -0.11  -0.03    -0.00  -0.01  -0.00
  13   1     0.01  -0.03   0.00    -0.00  -0.00  -0.25     0.00  -0.00  -0.40
  14   1    -0.16  -0.03   0.00    -0.00  -0.00  -0.38     0.00  -0.00  -0.45
  15   1     0.09  -0.00   0.00     0.00  -0.00  -0.44    -0.00  -0.00  -0.09
  16   1    -0.15   0.04   0.00    -0.00  -0.00  -0.40     0.00   0.00   0.35
  17   1     0.01   0.04   0.00     0.00  -0.00  -0.31    -0.00   0.00   0.54
                     16                     17                     18
                        a                      a                      a 
 Frequencies --   910.4552               931.1558               935.3979
 Red. masses --     3.6379                 4.1150                 3.2277
 Frc consts  --     0.0000                 0.0000                 0.0000
 IR Inten    --     0.5763                 0.2441                 0.0023
 Raman Activ --     0.0000                 0.0000                 0.0000
 Depolar     --     0.0000                 0.0000                 0.0000
 Atom AN      X      Y      Z        X      Y      Z        X      Y      Z
   1   6    -0.00  -0.00  -0.04     0.00   0.00   0.02    -0.00  -0.00  -0.00
   2   6     0.00  -0.00   0.01    -0.00  -0.00  -0.01     0.00   0.00  -0.00
   3   8     0.00   0.00  -0.01     0.00  -0.00   0.00    -0.00  -0.00  -0.00
   4   6     0.00   0.00   0.06    -0.00  -0.00  -0.05     0.00  -0.00  -0.05
   5   6    -0.00  -0.00  -0.22     0.00   0.00   0.27    -0.00  -0.00  -0.17
   6   6    -0.00  -0.00  -0.06     0.00  -0.00  -0.17     0.00   0.00   0.32
   7   6     0.00   0.00   0.30    -0.00  -0.00  -0.18     0.00  -0.00  -0.24
   8   6    -0.00   0.00   0.16     0.00   0.00   0.33    -0.00   0.00   0.10
   9   6    -0.00  -0.00  -0.27     0.00  -0.00  -0.19    -0.00   0.00   0.04
  10   1    -0.03  -0.04   0.01     0.01   0.02  -0.01    -0.00  -0.00   0.00
  11   1    -0.00  -0.00   0.03     0.00   0.00  -0.00    -0.00  -0.00   0.00
  12   1     0.03   0.04   0.01    -0.01  -0.02  -0.01     0.00   0.00   0.00
  13   1    -0.00   0.00   0.44     0.00  -0.00  -0.40    -0.00   0.00   0.38
  14   1     0.00   0.00   0.03    -0.00   0.00   0.24    -0.00  -0.00  -0.60
  15   1    -0.00  -0.00  -0.47    -0.00   0.00   0.32     0.00   0.00   0.47
  16   1    -0.00  -0.00  -0.33     0.00  -0.00  -0.55    -0.00  -0.00  -0.27
  17   1    -0.00   0.00   0.48    -0.00   0.00   0.31    -0.00   0.00   0.06
                     19                     20                     21
                        a                      a                      a 
 Frequencies --   968.5013               986.8155               987.6567
 Red. masses --    10.4367                 6.0549                 7.6037
 Frc consts  --     0.0000                 0.0000                 0.0000
 IR Inten    --    16.1935                16.9117                 6.4076
 Raman Activ --     0.0000                 0.0000                 0.0000
 Depolar     --     0.0000                 0.0000                 0.0000
 Atom AN      X      Y      Z        X      Y      Z        X      Y      Z
   1   6    -0.01  -0.34   0.00     0.01  -0.03   0.40    -0.17   0.34   0.03
   2   6     0.18   0.23  -0.00     0.01   0.02  -0.50    -0.15  -0.19  -0.04
   3   8    -0.11   0.21   0.00    -0.01   0.02   0.10     0.07  -0.21   0.01
   4   6     0.23   0.01   0.00    -0.01   0.00   0.15     0.10  -0.02   0.01
   5   6    -0.14   0.32  -0.00     0.01  -0.03  -0.04    -0.11   0.38  -0.00
   6   6    -0.13  -0.22   0.00    -0.00   0.01  -0.01     0.01  -0.08  -0.00
   7   6     0.32   0.01  -0.00    -0.02   0.00   0.01     0.21  -0.03   0.00
   8   6    -0.07   0.19  -0.00     0.00  -0.01  -0.02    -0.05   0.13  -0.00
   9   6    -0.16  -0.40   0.00     0.01   0.02  -0.03    -0.11  -0.28  -0.00
  10   1    -0.18  -0.15  -0.01     0.23   0.40  -0.11     0.30   0.23   0.01
  11   1     0.03   0.10  -0.00     0.01   0.03  -0.20    -0.13  -0.34  -0.02
  12   1    -0.18  -0.15   0.01    -0.28  -0.43  -0.11     0.26   0.17  -0.02
  13   1    -0.02   0.10  -0.00     0.00  -0.01   0.07    -0.01   0.11   0.01
  14   1    -0.02  -0.07   0.00    -0.01   0.01   0.01     0.09  -0.07   0.00
  15   1     0.09   0.03  -0.00    -0.00   0.00  -0.00     0.06  -0.05  -0.00
  16   1     0.03   0.08  -0.00    -0.00  -0.00   0.02     0.02   0.05   0.00
  17   1    -0.03  -0.12   0.00    -0.00   0.01   0.05     0.05  -0.12   0.00
                     22                     23                     24
                        a                      a                      a 
 Frequencies --  1080.7976              1095.7274              1124.0643
 Red. masses --     8.4524                 6.9279                 3.9857
 Frc consts  --     0.0000                 0.0000                 0.0000
 IR Inten    --     3.9288                21.0171                 0.2250
 Raman Activ --     0.0000                 0.0000                 0.0000
 Depolar     --     0.0000                 0.0000                 0.0000
 Atom AN      X      Y      Z        X      Y      Z        X      Y      Z
   1   6     0.13   0.03   0.00     0.31   0.06   0.00    -0.01   0.04  -0.00
   2   6    -0.12  -0.08  -0.00    -0.34  -0.21  -0.00    -0.01  -0.03   0.00
   3   8     0.04   0.01   0.00     0.09   0.03   0.00     0.04  -0.06  -0.00
   4   6    -0.16  -0.01   0.00    -0.40  -0.01   0.00    -0.05   0.14  -0.00
   5   6    -0.18   0.12  -0.00    -0.02   0.21  -0.00     0.19  -0.11  -0.00
   6   6     0.12   0.40  -0.00     0.11   0.01  -0.00    -0.10  -0.09   0.00
   7   6     0.45  -0.03  -0.00    -0.08  -0.00   0.00     0.04   0.19  -0.00
   8   6     0.08  -0.37   0.00     0.10   0.01  -0.00     0.10  -0.21   0.00
   9   6    -0.17  -0.08   0.00    -0.01  -0.18   0.00    -0.24  -0.15   0.00
  10   1    -0.04  -0.01  -0.01    -0.11  -0.04  -0.01     0.03   0.03  -0.01
  11   1     0.06   0.12   0.00     0.15   0.35   0.00    -0.02  -0.06   0.00
  12   1    -0.04  -0.01   0.01    -0.11  -0.04   0.01     0.03   0.03   0.01
  13   1    -0.27  -0.08   0.00     0.23   0.20   0.00     0.45   0.19  -0.00
  14   1    -0.14   0.23  -0.00     0.23  -0.12   0.00    -0.29   0.13  -0.00
  15   1     0.14  -0.03   0.00    -0.02  -0.02   0.00     0.02   0.46  -0.00
  16   1    -0.19  -0.23   0.00     0.21   0.10  -0.00     0.20   0.03  -0.00
  17   1    -0.19   0.06  -0.00     0.20  -0.18   0.00    -0.34   0.12  -0.00
                     25                     26                     27
                        a                      a                      a 
 Frequencies --  1180.5817              1196.9842              1248.9375
 Red. masses --     1.3864                 2.1518                 9.7447
 Frc consts  --     0.0000                 0.0000                 0.0000
 IR Inten    --     1.0094                34.4405               204.8760
 Raman Activ --     0.0000                 0.0000                 0.0000
 Depolar     --     0.0000                 0.0000                 0.0000
 Atom AN      X      Y      Z        X      Y      Z        X      Y      Z
   1   6     0.01   0.00  -0.00     0.08   0.03   0.00     0.18   0.05   0.00
   2   6    -0.03  -0.01   0.00    -0.17  -0.08  -0.00    -0.55  -0.24  -0.00
   3   8     0.00   0.00   0.00     0.02   0.01   0.00     0.01   0.10   0.00
   4   6     0.00  -0.05   0.00     0.10   0.05   0.00     0.53   0.02   0.00
   5   6     0.06  -0.02   0.00    -0.06  -0.07   0.00     0.14   0.01   0.00
   6   6     0.05  -0.05   0.00     0.05  -0.12   0.00    -0.08  -0.14   0.00
   7   6     0.01   0.09  -0.00     0.03  -0.00  -0.00    -0.07   0.02  -0.00
   8   6    -0.01  -0.00   0.00     0.08   0.07  -0.00    -0.14   0.12  -0.00
   9   6    -0.11   0.02  -0.00    -0.10   0.05  -0.00     0.15  -0.04  -0.00
  10   1    -0.00  -0.00  -0.00    -0.02   0.02  -0.02    -0.04   0.01  -0.02
  11   1     0.01   0.01   0.00     0.02   0.03   0.00     0.08   0.21   0.00
  12   1    -0.00  -0.00   0.00    -0.02   0.02   0.02    -0.04   0.01   0.02
  13   1    -0.23  -0.15   0.00    -0.35  -0.21   0.00    -0.03  -0.04  -0.00
  14   1     0.47  -0.29   0.00     0.20  -0.14   0.00    -0.25   0.10  -0.00
  15   1     0.02   0.70  -0.00     0.00  -0.11   0.00    -0.02   0.05  -0.00
  16   1    -0.26  -0.15   0.00     0.51   0.29  -0.00    -0.26  -0.09   0.00
  17   1     0.02  -0.02   0.00    -0.48   0.28  -0.00    -0.04   0.04   0.00
                     28                     29                     30
                        a                      a                      a 
 Frequencies --  1278.3383              1326.7270              1363.4965
 Red. masses --     3.4841                11.9687                 3.3157
 Frc consts  --     0.0000                 0.0000                 0.0000
 IR Inten    --     0.2309                 2.2278                29.0259
 Raman Activ --     0.0000                 0.0000                 0.0000
 Depolar     --     0.0000                 0.0000                 0.0000
 Atom AN      X      Y      Z        X      Y      Z        X      Y      Z
   1   6     0.04   0.01   0.00    -0.03  -0.01  -0.00     0.19   0.41   0.00
   2   6     0.00   0.02  -0.00     0.02  -0.01   0.00    -0.05  -0.03  -0.00
   3   8    -0.03   0.02   0.00     0.03  -0.02  -0.00     0.01  -0.01  -0.00
   4   6     0.03  -0.29   0.00    -0.03   0.43  -0.00     0.01   0.00   0.00
   5   6    -0.20  -0.06   0.00    -0.36  -0.19   0.00    -0.01   0.01  -0.00
   6   6    -0.06   0.10  -0.00     0.35  -0.20   0.00     0.03  -0.01   0.00
   7   6     0.02   0.18  -0.00     0.02   0.41  -0.00    -0.00  -0.00   0.00
   8   6     0.04   0.10  -0.00    -0.35  -0.22   0.00    -0.03  -0.00   0.00
   9   6     0.19  -0.06   0.00     0.33  -0.19   0.00     0.02   0.00   0.00
  10   1    -0.03   0.01  -0.02     0.02   0.01  -0.00    -0.25  -0.41   0.23
  11   1    -0.00  -0.04   0.00    -0.00   0.01   0.00    -0.09  -0.46  -0.00
  12   1    -0.03   0.01   0.02     0.02   0.01   0.00    -0.25  -0.41  -0.23
  13   1     0.37   0.23  -0.00    -0.02  -0.00   0.00    -0.01  -0.00   0.00
  14   1     0.33  -0.18   0.00     0.02  -0.01   0.00    -0.02   0.01  -0.00
  15   1    -0.00  -0.24   0.00     0.00  -0.01   0.00    -0.00   0.02  -0.00
  16   1    -0.32  -0.16   0.00     0.01  -0.00  -0.00     0.01   0.01  -0.00
  17   1    -0.43   0.27  -0.00     0.04  -0.02   0.00     0.01  -0.00  -0.00
                     31                     32                     33
                        a                      a                      a 
 Frequencies --  1430.7157              1456.7032              1466.2149
 Red. masses --     8.8146                 4.7972                 1.6158
 Frc consts  --     0.0000                 0.0000                 0.0000
 IR Inten    --     6.1421                 2.6478                10.1372
 Raman Activ --     0.0000                 0.0000                 0.0000
 Depolar     --     0.0000                 0.0000                 0.0000
 Atom AN      X      Y      Z        X      Y      Z        X      Y      Z
   1   6     0.03  -0.02   0.00    -0.16   0.02  -0.00    -0.00   0.00  -0.23
   2   6     0.06   0.03  -0.00    -0.05  -0.03  -0.00     0.00   0.00  -0.03
   3   8    -0.03   0.03   0.00    -0.04   0.07   0.00    -0.00   0.00  -0.00
   4   6    -0.08  -0.41   0.00     0.25  -0.10   0.00    -0.00  -0.00   0.01
   5   6    -0.20   0.20  -0.00    -0.18  -0.14   0.00     0.00   0.00  -0.00
   6   6     0.37   0.01  -0.00    -0.08   0.19  -0.00     0.00  -0.00  -0.00
   7   6    -0.04  -0.33   0.00     0.17  -0.08   0.00    -0.00   0.00  -0.00
   8   6    -0.32   0.10  -0.00    -0.20  -0.14   0.00     0.00   0.00  -0.00
   9   6     0.29   0.10  -0.00    -0.08   0.19  -0.00     0.00  -0.00   0.00
  10   1    -0.04   0.06  -0.05     0.30  -0.25   0.25     0.45   0.02   0.08
  11   1    -0.00  -0.03  -0.00     0.05   0.32   0.00    -0.00   0.00   0.73
  12   1    -0.04   0.05   0.05     0.30  -0.25  -0.25    -0.44  -0.02   0.08
  13   1     0.03   0.11  -0.00     0.18   0.09  -0.00    -0.00  -0.00   0.00
  14   1    -0.18   0.18  -0.00     0.14  -0.04   0.00    -0.00   0.00   0.00
  15   1    -0.00   0.36  -0.00     0.05   0.07  -0.00    -0.00  -0.00   0.00
  16   1     0.11   0.15  -0.00     0.18   0.09  -0.00    -0.00  -0.00   0.00
  17   1    -0.11   0.14  -0.00     0.10  -0.01  -0.00    -0.00   0.00  -0.01
                     34                     35                     36
                        a                      a                      a 
 Frequencies --  1467.5025              1581.5679              1592.1407
 Red. masses --     5.7660                11.4978                11.4722
 Frc consts  --     0.0000                 0.0000                 0.0000
 IR Inten    --    24.2917                 1.9314                26.1707
 Raman Activ --     0.0000                 0.0000                 0.0000
 Depolar     --     0.0000                 0.0000                 0.0000
 Atom AN      X      Y      Z        X      Y      Z        X      Y      Z
   1   6    -0.15   0.02   0.00     0.01  -0.00   0.00     0.00  -0.01  -0.00
   2   6     0.09  -0.01   0.00     0.02  -0.02  -0.00    -0.04   0.05   0.00
   3   8    -0.01   0.03   0.00    -0.04   0.04   0.00     0.01  -0.03  -0.00
   4   6    -0.30  -0.00  -0.00    -0.01  -0.47   0.00     0.24  -0.07   0.00
   5   6     0.17   0.20  -0.00     0.21   0.27  -0.00    -0.43  -0.07   0.00
   6   6     0.15  -0.22   0.00     0.04  -0.28   0.00     0.46  -0.17   0.00
   7   6    -0.19   0.06  -0.00     0.04   0.55  -0.00    -0.21   0.06  -0.00
   8   6     0.20   0.18  -0.00    -0.17  -0.32   0.00     0.42   0.09  -0.00
   9   6     0.12  -0.20   0.00    -0.12   0.28  -0.00    -0.44   0.15  -0.00
  10   1     0.26  -0.21   0.21    -0.01   0.01  -0.01    -0.01  -0.00  -0.00
  11   1     0.04   0.25  -0.01     0.00   0.00   0.00     0.00   0.01   0.00
  12   1     0.27  -0.21  -0.21    -0.01   0.01   0.01    -0.01  -0.00   0.00
  13   1    -0.18  -0.08   0.00    -0.08  -0.01   0.00     0.06   0.08  -0.00
  14   1    -0.17   0.07  -0.00    -0.06  -0.03   0.00    -0.08   0.08  -0.00
  15   1    -0.06  -0.03   0.00     0.01  -0.14   0.00    -0.06  -0.01   0.00
  16   1    -0.19  -0.08   0.00     0.09  -0.01  -0.00    -0.07  -0.08   0.00
  17   1    -0.23   0.10  -0.00     0.09  -0.00   0.00     0.08  -0.07   0.00
                     37                     38                     39
                        a                      a                      a 
 Frequencies --  1726.0815              3027.6485              3030.1635
 Red. masses --    13.3677                 1.9547                 1.4579
 Frc consts  --     0.0000                 0.0000                 0.0000
 IR Inten    --   310.1825                12.6043                 5.3715
 Raman Activ --     0.0000                 0.0000                 0.0000
 Depolar     --     0.0000                 0.0000                 0.0000
 Atom AN      X      Y      Z        X      Y      Z        X      Y      Z
   1   6     0.00   0.05   0.00    -0.00   0.01  -0.29     0.07  -0.19  -0.01
   2   6     0.34  -0.70  -0.00    -0.00   0.00  -0.01     0.00  -0.01  -0.00
   3   8    -0.28   0.54   0.00     0.00  -0.00   0.00    -0.00   0.00   0.00
   4   6     0.00   0.05   0.00     0.00   0.00   0.00    -0.00  -0.00   0.00
   5   6    -0.03  -0.04   0.00     0.00  -0.00  -0.00    -0.00   0.00  -0.00
   6   6     0.02   0.01  -0.00    -0.00  -0.00  -0.00     0.00   0.00  -0.00
   7   6    -0.01  -0.01   0.00    -0.00  -0.00   0.00     0.00   0.00  -0.00
   8   6     0.04   0.02  -0.00    -0.00   0.00   0.00     0.00  -0.00   0.00
   9   6    -0.05   0.01   0.00    -0.00  -0.00   0.00     0.00   0.01   0.00
  10   1     0.00   0.04  -0.03    -0.16   0.36   0.52    -0.16   0.36   0.60
  11   1    -0.01  -0.07  -0.00    -0.00   0.00  -0.04     0.05  -0.03  -0.00
  12   1     0.00   0.04   0.03     0.17  -0.39   0.56    -0.14   0.34  -0.56
  13   1     0.02   0.00   0.00    -0.00   0.00   0.00     0.00  -0.00   0.00
  14   1     0.00   0.00   0.00     0.00   0.00   0.00    -0.00  -0.00   0.00
  15   1    -0.00   0.00   0.00     0.00  -0.00  -0.00    -0.00   0.00  -0.00
  16   1    -0.00  -0.00  -0.00     0.00  -0.00  -0.00    -0.00   0.01  -0.00
  17   1     0.00  -0.01   0.00     0.00   0.00   0.00    -0.02  -0.02   0.00
                     40                     41                     42
                        a                      a                      a 
 Frequencies --  3055.0702              3076.3064              3082.0928
 Red. masses --     1.7478                 1.7567                 1.8001
 Frc consts  --     0.0000                 0.0000                 0.0000
 IR Inten    --    12.6038                 1.7827                21.6073
 Raman Activ --     0.0000                 0.0000                 0.0000
 Depolar     --     0.0000                 0.0000                 0.0000
 Atom AN      X      Y      Z        X      Y      Z        X      Y      Z
   1   6    -0.25   0.06  -0.00    -0.00   0.00  -0.00     0.00  -0.00   0.00
   2   6    -0.01   0.00  -0.00    -0.00   0.00   0.00     0.00  -0.00  -0.00
   3   8     0.00  -0.00  -0.00     0.00  -0.00  -0.00    -0.00   0.00   0.00
   4   6     0.00  -0.00  -0.00     0.00   0.00  -0.00     0.00  -0.00   0.00
   5   6     0.00  -0.00   0.00     0.01  -0.01   0.00     0.04  -0.06   0.00
   6   6    -0.00  -0.00   0.00     0.04   0.07  -0.00     0.10   0.16  -0.00
   7   6    -0.00   0.00  -0.00    -0.16   0.00   0.00    -0.07   0.00   0.00
   8   6    -0.00   0.00  -0.00     0.09  -0.16   0.00    -0.07   0.13  -0.00
   9   6    -0.00  -0.00   0.00     0.02   0.03  -0.00    -0.02  -0.04   0.00
  10   1    -0.03  -0.00  -0.02     0.00  -0.00  -0.00    -0.00   0.00   0.01
  11   1     0.94  -0.21   0.00     0.00  -0.00   0.00    -0.00   0.00  -0.00
  12   1    -0.03  -0.00   0.02     0.00  -0.00   0.00    -0.00   0.00  -0.01
  13   1    -0.00   0.00  -0.00    -0.03   0.06  -0.00    -0.13   0.23  -0.00
  14   1     0.00   0.00  -0.00    -0.16  -0.27   0.00    -0.36  -0.59   0.00
  15   1     0.01  -0.00   0.00     0.59  -0.01  -0.00     0.26  -0.01  -0.00
  16   1     0.00  -0.00   0.00    -0.33   0.59  -0.00     0.26  -0.46   0.00
  17   1     0.01   0.01  -0.00    -0.08  -0.13   0.00     0.10   0.16  -0.00
                     43                     44                     45
                        a                      a                      a 
 Frequencies --  3090.8533              3097.5417              3101.4967
 Red. masses --     1.8528                 1.8852                 1.8685
 Frc consts  --     0.0000                 0.0000                 0.0000
 IR Inten    --    39.4279                30.9046                22.8863
 Raman Activ --     0.0000                 0.0000                 0.0000
 Depolar     --     0.0000                 0.0000                 0.0000
 Atom AN      X      Y      Z        X      Y      Z        X      Y      Z
   1   6    -0.00   0.00  -0.00     0.00  -0.00   0.00    -0.00   0.00  -0.00
   2   6    -0.00  -0.00  -0.00     0.00  -0.00  -0.00     0.00   0.00  -0.00
   3   8     0.00   0.00   0.00    -0.00   0.00   0.00    -0.00   0.00   0.00
   4   6     0.01  -0.00   0.00     0.00  -0.00   0.00     0.01   0.00  -0.00
   5   6     0.07  -0.12   0.00     0.12  -0.20   0.00     0.01  -0.02   0.00
   6   6     0.05   0.09  -0.00    -0.07  -0.12   0.00    -0.02  -0.03   0.00
   7   6     0.19  -0.00  -0.00    -0.07   0.00  -0.00    -0.06  -0.00   0.00
   8   6     0.04  -0.08   0.00    -0.00   0.01  -0.00    -0.05   0.09  -0.00
   9   6     0.03   0.06  -0.00    -0.03  -0.05   0.00     0.13   0.22  -0.00
  10   1     0.00  -0.00  -0.00    -0.00   0.00   0.01     0.00  -0.01  -0.01
  11   1     0.01  -0.00   0.00    -0.01   0.00  -0.00     0.01  -0.00   0.00
  12   1     0.00  -0.00   0.00    -0.00   0.00  -0.01     0.00  -0.01   0.01
  13   1    -0.24   0.42  -0.00    -0.39   0.68  -0.00    -0.04   0.08  -0.00
  14   1    -0.18  -0.30   0.00     0.24   0.39  -0.00     0.05   0.09  -0.00
  15   1    -0.65   0.01   0.00     0.24  -0.01  -0.00     0.18  -0.00  -0.00
  16   1    -0.15   0.27  -0.00     0.01  -0.02   0.00     0.15  -0.28   0.00
  17   1    -0.12  -0.21   0.00     0.10   0.17  -0.00    -0.44  -0.76   0.00
