
                                 *****************
                                 * O   R   C   A *
                                 *****************

                                            #,                                       
                                            ###                                      
                                            ####                                     
                                            #####                                    
                                            ######                                   
                                           ########,                                 
                                     ,,################,,,,,                         
                               ,,#################################,,                 
                          ,,##########################################,,             
                       ,#########################################, ''#####,          
                    ,#############################################,,   '####,        
                  ,##################################################,,,,####,       
                ,###########''''           ''''###############################       
              ,#####''   ,,,,##########,,,,          '''####'''          '####       
            ,##' ,,,,###########################,,,                        '##       
           ' ,,###''''                  '''############,,,                           
         ,,##''                                '''############,,,,        ,,,,,,###''
      ,#''                                            '''#######################'''  
     '                                                          ''''####''''         
             ,#######,   #######,   ,#######,      ##                                
            ,#'     '#,  ##    ##  ,#'     '#,    #''#        ,####,   ,####,        
            ##       ##  ##   ,#'  ##            #'  '#       #'       #'  '#        
            ##       ##  #######   ##           ,######,      #####,   #    #        
            '#,     ,#'  ##    ##  '#,     ,#' ,#      #,     #,   #   #,  ,#        
             '#######'   ##     ##  '#######'  #'      '#     '####' # '####'        



                #########################################################
                #                        -***-                          #
                #          Department of theory and spectroscopy        #
                #                                                       #
                #                      Frank Neese                      #
                #                                                       #
                #     Directorship, Architecture, Infrastructure        #
                #                    SHARK, DRIVERS                     #
                #        Core code/Algorithms in most modules           #
                #                                                       #
                #        Max Planck Institute fuer Kohlenforschung      #
                #                Kaiser Wilhelm Platz 1                 #
                #                 D-45470 Muelheim/Ruhr                 #
                #                      Germany                          #
                #                                                       #
                #                  All rights reserved                  #
                #                        -***-                          #
                #########################################################


                         Program Version 6.0.1  -  RELEASE   -


 With contributions from (in alphabetic order):
[Max-Planck-Institut fuer Kohlenforschung]                               
  Daniel Aravena         : Magnetic Suceptibility                        
  Michael Atanasov       : Ab Initio Ligand Field Theory (pilot matlab implementation)
  Alexander A. Auer      : GIAO ZORA, VPT2 properties, NMR spectrum      
  Ute Becker             : All parallelization in ORCA, NUMFREQ, NUMCALC 
  Giovanni Bistoni       : ED, misc. LED, open-shell LED, HFLD           
  Martin Brehm           : Molecular dynamics                            
  Dmytro Bykov           : pre 5.0 version of the SCF Hessian            
  Marcos Casanova-Páez   : Triplet and SCS-CIS(D). UHF-(DLPNO)-IP/EA/STEOM-CCSD. UHF-CVS-IP/STEOM-CCSD   
  Vijay G. Chilkuri      : MRCI spin determinant printing, contributions to CSF-ICE 
  Pauline Colinet        : FMM embedding                                 
  Dipayan Datta          : RHF DLPNO-CCSD density                        
  Achintya Kumar Dutta   : EOM-CC, STEOM-CC                              
  Nicolas Foglia         : Exact transition moments, OPA infrastructure, MCD improvements    
  Dmitry Ganyushin       : Spin-Orbit,Spin-Spin,Magnetic field MRCI      
  Miquel Garcia-Rates    : C-PCM and meta-GGA Hessian, CCSD/C-PCM, Gaussian charge scheme 
  Tiago L. C. Gouveia    : GS-ROHF, GS-ROCIS                             
  Yang Guo               : DLPNO-NEVPT2, F12-NEVPT2, CIM, IAO-localization        
  Andreas Hansen         : Spin unrestricted coupled pair/coupled cluster methods 
  Ingolf Harden          : AUTO-CI MPn and infrastructure                
  Benjamin Helmich-Paris : MC-RPA, TRAH-(SCF,CASSCF), AVAS, COSX integrals, SCF dyn. polar. 
  Lee Huntington         : MR-EOM, pCC                                   
  Robert Izsak           : Overlap fitted RIJCOSX, COSX-SCS-MP3, EOM     
  Riya Kayal             : Wick's Theorem for AUTO-CI, AUTO-CI UHF-CCSDT 
  Emily Kempfer          : AUTO-CI, RHF CISDT and CCSDT                  
  Christian Kollmar      : KDIIS, OOCD, Brueckner-CCSD(T), CCSD density, CASPT2, CASPT2-K, improved NEVPT2 
  Axel Koslowski         : Symmetry handling                             
  Simone Kossmann        : meta-GGA functionals, TD-DFT gradient, OOMP2, (MP2 Hessian; deprecated post 5.0) 
  Lucas Lang             : DCDCAS                                        
  Marvin Lechner         : AUTO-CI (C++ implementation), FIC-MRCC        
  Spencer Leger          : CASSCF response                               
  Dagmar Lenk            : GEPOL surface, SMD, ORCA-2-JSON               
  Dimitrios Liakos       : Extrapolation schemes; Compound Job, initial MDCI parallelization 
  Dimitrios Manganas     : Further ROCIS development; embedding schemes. LFT, Crystal Embedding 
  Dimitrios Pantazis     : SARC Basis sets                               
  Anastasios Papadopoulos: AUTO-CI, single reference methods and gradients 
  Taras Petrenko         : pre 6.0 DFT Hessian and TD-DFT gradient, (ASA, deprecated), ECA, 1-Electron XAS/XES, NRVS 
  Peter Pinski           : DLPNO-MP2, DLPNO-MP2 Gradient                 
  Christoph Reimann      : Effective Core Potentials                     
  Marius Retegan         : Local ZFS, SOC                                
  Christoph Riplinger    : Optimizer, TS searches, QM/MM, DLPNO-CCSD(T), (RO)-DLPNO pert. Triples 
  Michael Roemelt        : Original ROCIS implementation                 
  Masaaki Saitow         : Open-shell DLPNO-CCSD energy and density      
  Barbara Sandhoefer     : DKH picture change effects                    
  Kantharuban Sivalingam : CASSCF convergence/infrastructure, NEVPT2 and variants, FIC-MRCI 
  Bernardo de Souza      : ESD, SOC TD-DFT                               
  Georgi L. Stoychev     : AutoAux, RI-MP2 NMR, DLPNO-MP2 response, X2C  
  Van Anh Tran           : RI-MP2 g-tensors                              
  Willem Van den Heuvel  : Paramagnetic NMR                              
  Zikuan Wang            : NOTCH, Electric field optimization            
  Frank Wennmohs         : Technical directorship and infrastructure     
  Hang Xu                : AUTO-CI-Response properties                   
                                                                         
[FACCTs GmbH]                                                            
  Markus Bursch, Miquel Garcia-Rates, Christoph Riplinger, Bernardo de Souza, Georgi L. Stoychev 
                                                                 
  APM, Basis sets (HGBS, AHGBS, def-TZVP (Ac-Lr), def2-XVPD (La-Lu)), CI-OPT, improved COSX, DLPNO-Multilevel,           
  DOCKER, DRACO, updates on ESD, GOAT, IRC, LR-CPCM, MBIS, meta-GGA TD-DFT gradient, ML-optimized integration grids, 
  MM, NACMEs, nearIR, NEB, NEB-TS, NL-DFT gradient (VV10), 2- and 3-layer-ONIOM, interface openCOSMO-RS, QMMM,   
  Crystal-QMMM, SF, symmetry and pop. for TD-DFT, r2SCAN hybrids, SOLVATOR                                   
                                                                         
[Other institutions]                                                     
  V. Asgeirsson          : NEB                                           
  Christoph Bannwarth    : sTDA-DFT, sTD-DFT, PBEh-3c, B97-3c, D3        
  Sebastian Ehlert       : rSCAN, r2SCAN, r2SCAN-3c, D4, dhf basis sets  
  Marvin Friede          : D4 for Fr, Ra, Ac-Lr                          
  Lars Goerigk           : TD-DFT with DH, B97 family of functionals     
  Stefan Grimme          : VdW corrections, initial TS optimization, DFT functionals, gCP, sTDA/sTD-DF 
  Waldemar Hujo          : DFT-NL                                        
  H. Jonsson             : NEB                                           
  Holger Kruse           : gCP                                           
  Marcel Mueller         : wB97X-3c, vDZP basis set                      
  Hagen Neugebauer       : wr2SCAN                                       
  Tobias Risthaus        : range-separated hybrid DFT                    
  Lukas Wittmann         : regularized MP2, r2SCAN double-hybrids, wr2SCAN        
                                                                         
We gratefully acknowledge several colleagues who have allowed us to      
interface, adapt or use parts of their codes:                            
  Ed Valeev, F. Pavosevic, A. Kumar             : LibInt (2-el integral package), F12 methods 
  Garnet Chan, S. Sharma, J. Yang, R. Olivares  : DMRG                   
  Ulf Ekstrom                                   : XCFun DFT Library      
  Mihaly Kallay                                 : mrcc  (arbitrary order and MRCC methods)
  Frank Weinhold                                : gennbo (NPA and NBO analysis)           
  Simon Mueller                                 : openCOSMO-RS                            
  Christopher J. Cramer and Donald G. Truhlar   : smd solvation model                     
  S Lehtola, MJT Oliveira, MAL Marques          : LibXC Library                           
  Liviu Ungur et al                             : ANISO software                          


 Your calculation uses the libint2 library for the computation of 2-el integrals
 For citations please refer to: http://libint.valeyev.net

 Your ORCA version has been built with support for libXC version: 6.2.2
 For citations please refer to: https://libxc.gitlab.io

 This ORCA versions uses:
   CBLAS   interface :  Fast vector & matrix operations
   LAPACKE interface :  Fast linear algebra routines
   SCALAPACK package :  Parallel linear algebra routines
   Shared memory     :  Shared parallel matrices
   BLAS/LAPACK       :  OpenBLAS 0.3.27  USE64BITINT DYNAMIC_ARCH NO_AFFINITY Zen SINGLE_THREADED
        Core in use  :  Zen
   Copyright (c) 2011-2014, The OpenBLAS Project


Your calculation utilizes the geometrical counterpoise correction gCP
Please cite in your paper:
H.Kruse, S. Grimme J.Chem.Phys., 136, (2012), 154101 
   

Your calculation utilizes the atom-pairwise dispersion correction
based on EEQ partial charges (D4)


================================================================================

----- Orbital basis set information -----
Your calculation utilizes the basis: def2-mTZVPP
   Stefan Grimme, Andreas Hansen, Sebastian Ehlert, and Jan-Michael Mewes 
   J. Chem. Phys. 154, 064103 (2021). DOI: 10.1063/5.0040021

----- AuxJ basis set information -----
Your calculation utilizes the auxiliary basis: def2/J
   F. Weigend, Phys. Chem. Chem. Phys. 8, 1057 (2006).

================================================================================
                                        WARNINGS
                       Please study these warnings very carefully!
================================================================================



WARNING: SCAN, rSCAN, or r2SCAN functional requested.
  ===> : libXC variant has now been activated.



================================================================================
                                       INPUT FILE
================================================================================
NAME = sp.inp
|  1> ! r2scan-3c def2/J RI DEFGRID2 scfconv6 printgap
|  2> %output
|  3>     printlevel normal
|  4> end
|  5> * xyz 0 1
|  6> C -2.1947289262 0.1583988039 0.636575556
|  7> C -1.3958894678 -0.2973926937 -0.576008941
|  8> O -0.1046638655 -0.7792833933 -0.1995854851
|  9> C 0.8635875787 0.1287014964 -0.0325472528
| 10> O 0.712870181 1.3109359772 -0.1891221499
| 11> C 2.1600316831 -0.5385274366 0.3466248474
| 12> H -3.1902577338 0.4605593187 0.3244908202
| 13> H -2.2779143734 -0.6505582293 1.358476951
| 14> H -1.701337703 1.0047174934 1.1081142523
| 15> H -1.2727700517 0.531701701 -1.2805978546
| 16> H -1.8797841767 -1.1408858198 -1.0728299013
| 17> H 2.810258856 0.1786801526 0.8380106603
| 18> H 2.6466080138 -0.8922766563 -0.5603786079
| 19> H 1.9673803735 -1.391181311 0.9904754971
| 20> *
| 21> 
| 22>                          ****END OF INPUT****
================================================================================

                       ****************************
                       * Single Point Calculation *
                       ****************************

---------------------------------
CARTESIAN COORDINATES (ANGSTROEM)
---------------------------------
  C     -2.194729    0.158399    0.636576
  C     -1.395889   -0.297393   -0.576009
  O     -0.104664   -0.779283   -0.199585
  C      0.863588    0.128701   -0.032547
  O      0.712870    1.310936   -0.189122
  C      2.160032   -0.538527    0.346625
  H     -3.190258    0.460559    0.324491
  H     -2.277914   -0.650558    1.358477
  H     -1.701338    1.004717    1.108114
  H     -1.272770    0.531702   -1.280598
  H     -1.879784   -1.140886   -1.072830
  H      2.810259    0.178680    0.838011
  H      2.646608   -0.892277   -0.560379
  H      1.967380   -1.391181    0.990475

----------------------------
CARTESIAN COORDINATES (A.U.)
----------------------------
  NO LB      ZA    FRAG     MASS         X           Y           Z
   0 C     6.0000    0    12.011   -4.147437    0.299330    1.202953
   1 C     6.0000    0    12.011   -2.637849   -0.561991   -1.088499
   2 O     8.0000    0    15.999   -0.197786   -1.472632   -0.377162
   3 C     6.0000    0    12.011    1.631944    0.243211   -0.061505
   4 O     8.0000    0    15.999    1.347129    2.477310   -0.357389
   5 C     6.0000    0    12.011    4.081868   -1.017669    0.655026
   6 H     1.0000    0     1.008   -6.028713    0.870331    0.613199
   7 H     1.0000    0     1.008   -4.304634   -1.229377    2.567149
   8 H     1.0000    0     1.008   -3.215062    1.898641    2.094032
   9 H     1.0000    0     1.008   -2.405187    1.004771   -2.419979
  10 H     1.0000    0     1.008   -3.552277   -2.155962   -2.027355
  11 H     1.0000    0     1.008    5.310620    0.337657    1.583611
  12 H     1.0000    0     1.008    5.001364   -1.686159   -1.058962
  13 H     1.0000    0     1.008    3.717810   -2.628952    1.871727

--------------------------------
INTERNAL COORDINATES (ANGSTROEM)
--------------------------------
 C      0   0   0     0.000000000000     0.00000000     0.00000000
 C      1   0   0     1.521923628815     0.00000000     0.00000000
 O      2   1   0     1.428697595906   111.43684688     0.00000000
 C      3   2   1     1.337852454559   117.26296977   276.26328237
 O      4   3   2     1.202044009163   124.09005695   359.42143673
 C      4   3   2     1.506563389452   110.71023322   180.60483244
 H      1   2   3     1.086174693954   109.60125806   183.46126310
 H      1   2   3     1.087415709052   110.26075224   303.60161964
 H      1   2   3     1.087216153962   109.90635580    63.80815302
 H      2   1   3     1.094989243377   110.17787692   239.04697799
 H      2   1   3     1.092000828604   111.17564073   116.83665593
 H      6   4   3     1.085652854048   109.67792535   201.53873434
 H      6   4   3     1.088370481023   108.59789945    82.62053606
 H      6   4   3     1.085668833365   110.14417702   323.86084614

---------------------------
INTERNAL COORDINATES (A.U.)
---------------------------
 C      0   0   0     0.000000000000     0.00000000     0.00000000
 C      1   0   0     2.876018855204     0.00000000     0.00000000
 O      2   1   0     2.699847184454   111.43684688     0.00000000
 C      3   2   1     2.528174746710   117.26296977   276.26328237
 O      4   3   2     2.271533978238   124.09005695   359.42143673
 C      4   3   2     2.846992209456   110.71023322   180.60483244
 H      1   2   3     2.052572705168   109.60125806   183.46126310
 H      1   2   3     2.054917883832   110.26075224   303.60161964
 H      1   2   3     2.054540779363   109.90635580    63.80815302
 H      2   1   3     2.069229789573   110.17787692   239.04697799
 H      2   1   3     2.063582504077   111.17564073   116.83665593
 H      6   4   3     2.051586570661   109.67792535   201.53873434
 H      6   4   3     2.056722141377   108.59789945    82.62053606
 H      6   4   3     2.051616767193   110.14417702   323.86084614

---------------------
BASIS SET INFORMATION
---------------------
There are 3 groups of distinct atoms

 Group   1 Type C   : 11s6p1d contracted to 5s3p1d pattern {62111/411/1}
 Group   2 Type O   : 11s6p2d contracted to 5s3p2d pattern {62111/411/11}
 Group   3 Type H   : 4s1p contracted to 2s1p pattern {31/1}

Atom   0C    basis set group =>   1
Atom   1C    basis set group =>   1
Atom   2O    basis set group =>   2
Atom   3C    basis set group =>   1
Atom   4O    basis set group =>   2
Atom   5C    basis set group =>   1
Atom   6H    basis set group =>   3
Atom   7H    basis set group =>   3
Atom   8H    basis set group =>   3
Atom   9H    basis set group =>   3
Atom  10H    basis set group =>   3
Atom  11H    basis set group =>   3
Atom  12H    basis set group =>   3
Atom  13H    basis set group =>   3
---------------------------------
AUXILIARY/J BASIS SET INFORMATION
---------------------------------
There are 3 groups of distinct atoms

 Group   1 Type C   : 12s5p4d2f1g contracted to 6s4p3d1f1g pattern {711111/2111/211/2/1}
 Group   2 Type O   : 12s5p4d2f1g contracted to 6s4p3d1f1g pattern {711111/2111/211/2/1}
 Group   3 Type H   : 5s2p1d contracted to 3s1p1d pattern {311/2/1}

Atom   0C    basis set group =>   1
Atom   1C    basis set group =>   1
Atom   2O    basis set group =>   2
Atom   3C    basis set group =>   1
Atom   4O    basis set group =>   2
Atom   5C    basis set group =>   1
Atom   6H    basis set group =>   3
Atom   7H    basis set group =>   3
Atom   8H    basis set group =>   3
Atom   9H    basis set group =>   3
Atom  10H    basis set group =>   3
Atom  11H    basis set group =>   3
Atom  12H    basis set group =>   3
Atom  13H    basis set group =>   3

Checking for AutoStart:
The File: sp.gbw exists
Trying to determine its content:
     ... Fine, the file contains calculation information
     ... Fine, the calculation information was read
     ... Fine, the file contains a basis set
     ... Fine, the basis set was read
     ... Fine, the file contains a geometry
     ... Fine, the geometry was read
     ... Fine, the file contains a set of orbitals
     ... Fine, the orbitals can be read
     => possible old guess file was deleted
     => GBW file was renamed to GES file
     => GES file is set as startup file
     => Guess is set to MORead
     ... now leaving AutoStart

------------------------------------------------------------------------------
                             ORCA STARTUP CALCULATIONS
                           -- RI-GTO INTEGRALS CHOSEN --
------------------------------------------------------------------------------
------------------------------------------------------------------------------
                   ___                                                        
                  /   \      - P O W E R E D   B Y -                         
                 /     \                                                     
                 |  |  |   _    _      __       _____    __    __             
                 |  |  |  | |  | |    /  \     |  _  \  |  |  /  |          
                  \  \/   | |  | |   /    \    | | | |  |  | /  /          
                 / \  \   | |__| |  /  /\  \   | |_| |  |  |/  /          
                |  |  |   |  __  | /  /__\  \  |    /   |      \           
                |  |  |   | |  | | |   __   |  |    \   |  |\   \          
                \     /   | |  | | |  |  |  |  | |\  \  |  | \   \       
                 \___/    |_|  |_| |__|  |__|  |_| \__\ |__|  \__/        
                                                                              
                      - O R C A' S   B I G   F R I E N D -                    
                                      &                                       
                       - I N T E G R A L  F E E D E R -                       
                                                                              
 v1 FN, 2020, v2 2021, v3 2022-2024                                           
------------------------------------------------------------------------------


----------------------
SHARK INTEGRAL PACKAGE
----------------------

Number of atoms                             ...     14
Number of basis functions                   ...    164
Number of shells                            ...     80
Maximum angular momentum                    ...      2
Integral batch strategy                     ... SHARK/LIBINT Hybrid
RI-J (if used) integral strategy            ... SPLIT-RIJ (Revised 2003 algorithm where possible)
Printlevel                                  ...      1
Contraction scheme used                     ... SEGMENTED contraction
Prescreening option                         ... SCHWARTZ
   Thresh                                   ... 1.000e-10
   Tcut                                     ... 1.000e-11
   Tpresel                                  ... 1.000e-11 
Coulomb Range Separation                    ... NOT USED
Exchange Range Separation                   ... NOT USED
Multipole approximations                    ... NOT USED
Finite Nucleus Model                        ... NOT USED
CABS basis                                  ... NOT available
Auxiliary Coulomb fitting basis             ... AVAILABLE
   # of basis functions in Aux-J            ...    382
   # of shells in Aux-J                     ...    130
   Maximum angular momentum in Aux-J        ...      4
Auxiliary J/K fitting basis                 ... NOT available
Auxiliary Correlation fitting basis         ... NOT available
Auxiliary 'external' fitting basis          ... NOT available

Checking pre-screening integrals            ... done (  0.0 sec) Dimension = 80
Check shell pair data                       ... done (  0.0 sec)
Shell pair information
Shell pair cut-off parameter TPreSel        ...   1.0e-11
Total number of shell pairs                 ...      3240
Shell pairs after pre-screening             ...      3006
Total number of primitive shell pairs       ...     11481
Primitive shell pairs kept                  ...      7856
          la=0 lb=0:    984 shell pairs
          la=1 lb=0:   1106 shell pairs
          la=1 lb=1:    326 shell pairs
          la=2 lb=0:    353 shell pairs
          la=2 lb=1:    201 shell pairs
          la=2 lb=2:     36 shell pairs

Calculating one electron integrals          ... done (  0.0 sec)
Calculating RI/J V-Matrix + Cholesky decomp.... done (  0.0 sec)
Calculating Nuclear repulsion               ... done (  0.0 sec) ENN=    247.941146677265 Eh

Diagonalization of the overlap matrix:
Smallest eigenvalue                        ... 3.527e-04
Time for diagonalization                   ...    0.003 sec
Threshold for overlap eigenvalues          ... 1.000e-07
Number of eigenvalues below threshold      ... 0
Time for construction of square roots      ...    0.004 sec
Total time needed                          ...    0.008 sec

-------------------
DFT GRID GENERATION
-------------------

General Integration Accuracy     IntAcc      ... 4.388
Radial Grid Type                 RadialGrid  ... OptM3 with GC (2021)
Angular Grid (max. ang.)         AngularGrid ... 4 (Lebedev-302)
Angular grid pruning method      GridPruning ... 4 (adaptive)
Weight generation scheme         WeightScheme... mBecke (2022)
Basis function cutoff            BFCut       ... 1.0000e-10
Integration weight cutoff        WCut        ... 1.0000e-14
Partially contracted basis set               ... off
Rotationally invariant grid construction     ... off
Angular grids for H and He will be reduced by one unit
Diffuse basis detected: some atoms will have their outermost
                        angular grid increased by 1.

Total number of grid points                  ...    62822
Total number of batches                      ...      990
Average number of points per batch           ...       63
Average number of grid points per atom       ...     4487
Initializing property integral containers    ... done (  0.0 sec)

SHARK setup successfully completed in   0.6 seconds

Maximum memory used throughout the entire STARTUP-calculation: 28.5 MB
-------------------------------------------------------------------------------
                                 ORCA GUESS
                   Start orbitals & Density for SCF / CASSCF
-------------------------------------------------------------------------------

------------
SCF SETTINGS
------------
Hamiltonian:
 Density Functional     Method          .... DFT(GTOs)
  Functional kind                       .... Exchange
  Functional name                       .... Re-regularized SCAN exchange by Furness et al
  Functional family                     .... MGGA
  Functional refs                              
    [ 0] J. W. Furness, A. D. Kaplan, J. Ning, J. P. Perdew, and J. Sun.,  J. Phys. Chem. Lett. 11, 8208-8215 (2020), doi: 10.1021/acs.jpclett.0c02405
    [ 1] J. W. Furness, A. D. Kaplan, J. Ning, J. P. Perdew, and J. Sun.,  J. Phys. Chem. Lett. 11, 9248-9248 (2020), doi: 10.1021/acs.jpclett.0c03077
  Functional external parameters        .... 6
    Parameter  0 _c1        =  6.670000e-01 : c1 parameter        
    Parameter  1 _c2        =  8.000000e-01 : c2 parameter        
    Parameter  2 _d         =  1.240000e+00 : d parameter         
    Parameter  3 _k1        =  6.500000e-02 : k1 parameter        
    Parameter  4 _eta       =  1.000000e-03 : eta parameter       
    Parameter  5 _dp2       =  3.610000e-01 : dp2 parameter       
  Functional kind                       .... Correlation
  Functional name                       .... Re-regularized SCAN correlation by Furness et al
  Functional family                     .... MGGA
  Functional refs                              
    [ 0] J. W. Furness, A. D. Kaplan, J. Ning, J. P. Perdew, and J. Sun.,  J. Phys. Chem. Lett. 11, 8208-8215 (2020), doi: 10.1021/acs.jpclett.0c02405
    [ 1] J. W. Furness, A. D. Kaplan, J. Ning, J. P. Perdew, and J. Sun.,  J. Phys. Chem. Lett. 11, 9248-9248 (2020), doi: 10.1021/acs.jpclett.0c03077
  Functional external parameters        .... 1
    Parameter  0 _eta       =  1.000000e-03 : Regularization parameter
 Gradients option       PostSCFGGA      .... off
 RI-approximation to the Coulomb term is turned on
   Number of AuxJ basis functions       .... 382


General Settings:
 Integral files         IntName         .... sp
 Hartree-Fock type      HFTyp           .... RHF
 Total Charge           Charge          ....    0
 Multiplicity           Mult            ....    1
 Number of Electrons    NEL             ....   48
 Basis Dimension        Dim             ....  164
 Nuclear Repulsion      ENuc            ....    247.9411466773 Eh

Convergence Acceleration:
 AO-DIIS                CNVDIIS         .... on
   Start iteration      DIISMaxIt       ....    12
   Startup error        DIISStart       ....  0.200000
   # of expansion vecs  DIISMaxEq       ....     5
   Bias factor          DIISBfac        ....   1.050
   Max. coefficient     DIISMaxC        ....  10.000
 MO-DIIS                CNVKDIIS        .... off
 Trust-Rad. Augm. Hess. CNVTRAH         .... auto
   Auto Start mean grad. ratio tolernc. ....  1.125000
   Auto Start start iteration           ....     1
   Auto Start num. interpolation iter.  ....    10
   Max. Number of Micro iterations      ....    24
   Max. Number of Macro iterations      .... Maxiter - #DIIS iter
   Number of Davidson start vectors     ....     2
   Converg. threshold    (grad. norm)   ....   3.330e-04
   Grad. Scal. Fac. for Micro threshold ....   0.100
   Minimum threshold for Micro iter.    ....   1.000e-02
   NR start threshold (gradient norm)   ....   1.000e-04
   Initial trust radius                 ....   0.400
   Minimum AH scaling param. (alpha)    ....   1.000
   Maximum AH scaling param. (alpha)    .... 1000.000
   Quad. conv. algorithm                .... NR
   White noise on init. David. guess    .... on
   Maximum white noise                  ....   0.010
   Pseudo random numbers                .... off
   Inactive MOs                         .... canonical
   Orbital update algorithm             .... Taylor
   Preconditioner                       .... Diag
   Full preconditioner red. dimension   ....   250
   COSX micro iterations for RIJONX calc.... off
 SOSCF                  CNVSOSCF        .... on
   Start iteration      SOSCFMaxIt      ....   150
   Startup grad/error   SOSCFStart      ....  0.003300
   Hessian update       SOSCFHessUp     .... L-BFGS
 Level Shifting         CNVShift        .... on
   Level shift para.    LevelShift      ....    0.2500
   Turn off err/grad.   ShiftErr        ....    0.0010
 Zerner damping         CNVZerner       .... off
 Static damping         CNVDamp         .... on
   Fraction old density DampFac         ....    0.7000
   Max. Damping (<1)    DampMax         ....    0.9800
   Min. Damping (>=0)   DampMin         ....    0.0000
   Turn off err/grad.   DampErr         ....    0.1000

SCF Procedure:
 Maximum # iterations   MaxIter         ....   125
 SCF integral mode      SCFMode         .... Direct
   Integral package                     .... SHARK and LIBINT hybrid scheme
 Reset frequency        DirectResetFreq ....    20
 Integral Threshold     Thresh          ....  1.000e-10 Eh
 Primitive CutOff       TCut            ....  1.000e-11 Eh

Convergence Tolerance:
 Convergence Check Mode ConvCheckMode   .... Total+1el-Energy
 Convergence forced     ConvForced      .... 0
 Energy Change          TolE            ....  1.000e-06 Eh
 1-El. energy change                    ....  1.000e-03 Eh
 Orbital Gradient       TolG            ....  3.330e-04
 Orbital Rotation angle TolX            ....  3.330e-04
 DIIS Error             TolErr          ....  1.000e-06

---------------------
INITIAL GUESS: MOREAD
---------------------
Guess MOs are being read from file: sp.ges
Input Geometry matches current geometry (good)
Atom 0: N(Shells)= 9 and 6 - projection required
Input basis set needs projection
NBasis(read)= 100
NBasis(calc)= 164
Basis set overlap was calculated
Using GuessMode=FMatrix for the initial guess
C*T matrix was formed
Effective Fockian was calculated
Effective Fockian was diagonalized
Initial density was built
                      ------------------
                      INITIAL GUESS DONE (   0.0 sec)
                      ------------------
             **** ENERGY FILE WAS UPDATED (sp.en.tmp) ****
Finished Guess after   0.1 sec
Maximum memory used throughout the entire GUESS-calculation: 11.6 MB

-------------------------------------------------------------------------------------------
                                      ORCA LEAN-SCF
                              memory conserving SCF solver
-------------------------------------------------------------------------------------------

----------------------------------------D-I-I-S--------------------------------------------
Iteration    Energy (Eh)           Delta-E    RMSDP     MaxDP     DIISErr   Damp  Time(sec)
-------------------------------------------------------------------------------------------
               ***  Starting incremental Fock matrix formation  ***
    1    -307.4891563323650416     0.00e+00  3.68e-03  1.21e-01  6.26e-01  0.700   1.2
    2    -307.5352521256862701    -4.61e-02  3.05e-03  9.08e-02  4.40e-01  0.700   1.1
    3    -307.5678308610324621    -3.26e-02  2.25e-03  6.45e-02  3.08e-01  0.700   1.3
    4    -307.5907039299279404    -2.29e-02  1.62e-03  4.56e-02  2.16e-01  0.700   1.1
                               ***Turning on AO-DIIS***
    5    -307.6067476133417813    -1.60e-02  1.17e-03  3.28e-02  1.51e-01  0.700   1.1
    6    -307.6179929922016072    -1.12e-02  8.34e-04  2.32e-02  1.06e-01  0.700   1.1
    7    -307.6258761534548967    -7.88e-03  5.89e-04  1.63e-02  7.40e-02  0.700   1.0
    8    -307.6313990914783290    -5.52e-03  1.38e-03  3.81e-02  5.19e-02  0.000   1.0
                              *** Initializing SOSCF ***
---------------------------------------S-O-S-C-F--------------------------------------
Iteration    Energy (Eh)           Delta-E    RMSDP     MaxDP     MaxGrad    Time(sec)
--------------------------------------------------------------------------------------
    9    -307.6443022171791881    -1.29e-02  8.66e-06  2.29e-04  9.86e-05     1.1
               *** Restarting incremental Fock matrix formation ***
   10    -307.6443022575347186    -4.04e-08  5.00e-06  7.76e-05  2.95e-05     1.2
                  *** Gradient check signals convergence ***

               *****************************************************
               *                     SUCCESS                       *
               *           SCF CONVERGED AFTER  10 CYCLES          *
               *****************************************************

             **** ENERGY FILE WAS UPDATED (sp.en.tmp) ****

----------------
TOTAL SCF ENERGY
----------------

Total Energy       :       -307.64430225753472 Eh           -8371.42706 eV

Components:
Nuclear Repulsion  :        247.94114667726453 Eh            6746.82160 eV
Electronic Energy  :       -555.58544893479927 Eh          -15118.24866 eV
One Electron Energy:       -909.34488424678182 Eh          -24744.53229 eV
Two Electron Energy:        353.75943531198254 Eh            9626.28363 eV

Virial components:
Potential Energy   :       -614.08387962209372 Eh          -16710.07189 eV
Kinetic Energy     :        306.43957736455906 Eh            8338.64483 eV
Virial Ratio       :          2.00393136194527

DFT components:
N(Alpha)           :       23.999982650802 electrons
N(Beta)            :       23.999982650802 electrons
N(Total)           :       47.999965301603 electrons
E(X)               :      -40.237549068010 Eh       
E(C)               :       -1.538924135920 Eh       
E(XC)              :      -41.776473203930 Eh       

---------------
SCF CONVERGENCE
---------------

  Last Energy change         ...    4.0356e-08  Tolerance :   1.0000e-06
  Last MAX-Density change    ...    7.7640e-05  Tolerance :   1.0000e-05
  Last RMS-Density change    ...    4.9987e-06  Tolerance :   1.0000e-06
  Last DIIS Error            ...    9.8611e-05  Tolerance :   1.0000e-06
  Last Orbital Gradient      ...    2.9453e-05  Tolerance :   3.3300e-04
  Last Orbital Rotation      ...    1.1363e-04  Tolerance :   3.3300e-04


----------------
ORBITAL ENERGIES
----------------

  NO   OCC          E(Eh)            E(eV) 
   0   2.0000     -18.996019      -516.9079 
   1   2.0000     -18.931549      -515.1536 
   2   2.0000     -10.156100      -276.3615 
   3   2.0000     -10.089857      -274.5590 
   4   2.0000     -10.039203      -273.1806 
   5   2.0000     -10.027376      -272.8588 
   6   2.0000      -1.072592       -29.1867 
   7   2.0000      -0.982750       -26.7420 
   8   2.0000      -0.752319       -20.4716 
   9   2.0000      -0.704454       -19.1692 
  10   2.0000      -0.620405       -16.8821 
  11   2.0000      -0.523956       -14.2576 
  12   2.0000      -0.470655       -12.8072 
  13   2.0000      -0.451628       -12.2894 
  14   2.0000      -0.441345       -12.0096 
  15   2.0000      -0.403829       -10.9887 
  16   2.0000      -0.395789       -10.7700 
  17   2.0000      -0.377521       -10.2729 
  18   2.0000      -0.366594        -9.9755 
  19   2.0000      -0.343830        -9.3561 
  20   2.0000      -0.335545        -9.1307 
  21   2.0000      -0.307783        -8.3752 
  22   2.0000      -0.272838        -7.4243 
  23   2.0000      -0.239836        -6.5263 
  24   0.0000      -0.013556        -0.3689 
  25   0.0000       0.078079         2.1246 
  26   0.0000       0.094955         2.5839 
  27   0.0000       0.123694         3.3659 
  28   0.0000       0.125990         3.4284 
  29   0.0000       0.141180         3.8417 
  30   0.0000       0.155389         4.2283 
  31   0.0000       0.167051         4.5457 
  32   0.0000       0.171009         4.6534 
  33   0.0000       0.179826         4.8933 
  34   0.0000       0.182290         4.9604 
*Only the first 10 virtual orbitals were printed.

                    ********************************
                    * MULLIKEN POPULATION ANALYSIS *
                    ********************************

-----------------------
MULLIKEN ATOMIC CHARGES
-----------------------
   0 C :   -0.469909
   1 C :   -0.132618
   2 O :   -0.177395
   3 C :    0.430403
   4 O :   -0.424984
   5 C :   -0.519048
   6 H :    0.146049
   7 H :    0.150241
   8 H :    0.173783
   9 H :    0.163042
  10 H :    0.146947
  11 H :    0.173688
  12 H :    0.172091
  13 H :    0.167710
Sum of atomic charges:    0.0000000

--------------------------------
MULLIKEN REDUCED ORBITAL CHARGES
--------------------------------
  0 C s       :     3.324100  s :     3.324100
      pz      :     0.985576  p :     3.120182
      px      :     1.047676
      py      :     1.086930
      dz2     :     0.003510  d :     0.025627
      dxz     :     0.005603
      dyz     :     0.008407
      dx2y2   :     0.004538
      dxy     :     0.003570

  1 C s       :     3.244978  s :     3.244978
      pz      :     0.995042  p :     2.833194
      px      :     0.764827
      py      :     1.073325
      dz2     :     0.007298  d :     0.054446
      dxz     :     0.013199
      dyz     :     0.011181
      dx2y2   :     0.011551
      dxy     :     0.011216

  2 O s       :     3.704666  s :     3.704666
      pz      :     1.708402  p :     4.447652
      px      :     1.141775
      py      :     1.597475
      dz2     :     0.002024  d :     0.025077
      dxz     :     0.006917
      dyz     :     0.009477
      dx2y2   :     0.002016
      dxy     :     0.004642

  3 C s       :     3.106784  s :     3.106784
      pz      :     0.763253  p :     2.336887
      px      :     0.809375
      py      :     0.764259
      dz2     :     0.006976  d :     0.125926
      dxz     :     0.009685
      dyz     :     0.027470
      dx2y2   :     0.029287
      dxy     :     0.052507

  4 O s       :     3.837759  s :     3.837759
      pz      :     1.462515  p :     4.566489
      px      :     1.780950
      py      :     1.323024
      dz2     :     0.002812  d :     0.020736
      dxz     :     0.001344
      dyz     :     0.009007
      dx2y2   :     0.008319
      dxy     :    -0.000745

  5 C s       :     3.334088  s :     3.334088
      pz      :     1.082933  p :     3.160569
      px      :     0.993920
      py      :     1.083716
      dz2     :     0.003305  d :     0.024390
      dxz     :     0.004808
      dyz     :     0.005533
      dx2y2   :     0.004062
      dxy     :     0.006682

  6 H s       :     0.835506  s :     0.835506
      pz      :     0.004067  p :     0.018445
      px      :     0.009999
      py      :     0.004379

  7 H s       :     0.831573  s :     0.831573
      pz      :     0.007002  p :     0.018185
      px      :     0.003613
      py      :     0.007570

  8 H s       :     0.807966  s :     0.807966
      pz      :     0.004893  p :     0.018251
      px      :     0.005120
      py      :     0.008237

  9 H s       :     0.819168  s :     0.819168
      pz      :     0.006620  p :     0.017790
      px      :     0.002537
      py      :     0.008633

 10 H s       :     0.835741  s :     0.835741
      pz      :     0.005286  p :     0.017312
      px      :     0.004138
      py      :     0.007889

 11 H s       :     0.808236  s :     0.808236
      pz      :     0.005126  p :     0.018075
      px      :     0.006198
      py      :     0.006751

 12 H s       :     0.809273  s :     0.809273
      pz      :     0.008686  p :     0.018636
      px      :     0.005308
      py      :     0.004643

 13 H s       :     0.813959  s :     0.813959
      pz      :     0.006286  p :     0.018331
      px      :     0.003615
      py      :     0.008430


------------------------
MULLIKEN OVERLAP CHARGES
------------------------
B(  0-C ,  1-C ) :   0.5415 B(  0-C ,  2-O ) :  -0.1208 B(  0-C ,  6-H ) :   0.7956 
B(  0-C ,  7-H ) :   0.8255 B(  0-C ,  8-H ) :   0.8476 B(  0-C ,  9-H ) :  -0.0873 
B(  0-C , 10-H ) :  -0.0526 B(  1-C ,  2-O ) :   0.3397 B(  1-C ,  3-C ) :  -0.1978 
B(  1-C ,  6-H ) :  -0.0632 B(  1-C ,  7-H ) :  -0.0692 B(  1-C ,  8-H ) :  -0.0920 
B(  1-C ,  9-H ) :   0.8679 B(  1-C , 10-H ) :   0.7932 B(  2-O ,  3-C ) :   0.3643 
B(  2-O ,  4-O ) :  -0.2308 B(  2-O ,  5-C ) :  -0.0797 B(  2-O ,  9-H ) :  -0.0691 
B(  2-O , 10-H ) :  -0.0936 B(  3-C ,  4-O ) :   1.0067 B(  3-C ,  5-C ) :   0.5499 
B(  3-C , 11-H ) :  -0.1005 B(  3-C , 13-H ) :  -0.0839 B(  4-O ,  5-C ) :  -0.1281 
B(  5-C , 11-H ) :   0.8605 B(  5-C , 12-H ) :   0.7595 B(  5-C , 13-H ) :   0.8218 



                     *******************************
                     * LOEWDIN POPULATION ANALYSIS *
                     *******************************

----------------------
LOEWDIN ATOMIC CHARGES
----------------------
   0 C :   -0.391409
   1 C :    0.024506
   2 O :   -0.599771
   3 C :    0.353187
   4 O :   -0.424102
   5 C :   -0.337838
   6 H :    0.158913
   7 H :    0.156439
   8 H :    0.165943
   9 H :    0.186760
  10 H :    0.177197
  11 H :    0.174154
  12 H :    0.180653
  13 H :    0.175368

-------------------------------
LOEWDIN REDUCED ORBITAL CHARGES
-------------------------------
  0 C s       :     2.974520  s :     2.974520
      pz      :     1.098294  p :     3.356542
      px      :     1.109774
      py      :     1.148474
      dz2     :     0.008172  d :     0.060347
      dxz     :     0.012630
      dyz     :     0.020101
      dx2y2   :     0.011057
      dxy     :     0.008388

  1 C s       :     2.868268  s :     2.868268
      pz      :     1.049641  p :     2.984790
      px      :     0.859500
      py      :     1.075650
      dz2     :     0.013689  d :     0.122436
      dxz     :     0.029896
      dyz     :     0.026505
      dx2y2   :     0.025769
      dxy     :     0.026578

  2 O s       :     3.468901  s :     3.468901
      pz      :     1.692499  p :     4.662744
      px      :     1.345991
      py      :     1.624254
      dz2     :     0.053093  d :     0.468126
      dxz     :     0.104654
      dyz     :     0.052269
      dx2y2   :     0.131561
      dxy     :     0.126549

  3 C s       :     2.737558  s :     2.737558
      pz      :     0.729997  p :     2.635277
      px      :     0.923191
      py      :     0.982089
      dz2     :     0.018572  d :     0.273978
      dxz     :     0.017274
      dyz     :     0.052280
      dx2y2   :     0.068294
      dxy     :     0.117559

  4 O s       :     3.542816  s :     3.542816
      pz      :     1.447853  p :     4.663413
      px      :     1.728160
      py      :     1.487399
      dz2     :     0.025668  d :     0.217873
      dxz     :     0.014907
      dyz     :     0.045715
      dx2y2   :     0.061226
      dxy     :     0.070357

  5 C s       :     2.959321  s :     2.959321
      pz      :     1.141057  p :     3.322143
      px      :     1.055782
      py      :     1.125304
      dz2     :     0.006810  d :     0.056374
      dxz     :     0.011182
      dyz     :     0.014414
      dx2y2   :     0.008650
      dxy     :     0.015318

  6 H s       :     0.797187  s :     0.797187
      pz      :     0.009446  p :     0.043899
      px      :     0.024542
      py      :     0.009912

  7 H s       :     0.800145  s :     0.800145
      pz      :     0.016792  p :     0.043416
      px      :     0.007825
      py      :     0.018799

  8 H s       :     0.789734  s :     0.789734
      pz      :     0.011602  p :     0.044322
      px      :     0.012251
      py      :     0.020469

  9 H s       :     0.770564  s :     0.770564
      pz      :     0.015633  p :     0.042677
      px      :     0.006490
      py      :     0.020554

 10 H s       :     0.783205  s :     0.783205
      pz      :     0.011676  p :     0.039599
      px      :     0.008188
      py      :     0.019735

 11 H s       :     0.782212  s :     0.782212
      pz      :     0.011952  p :     0.043633
      px      :     0.014803
      py      :     0.016879

 12 H s       :     0.774739  s :     0.774739
      pz      :     0.021899  p :     0.044608
      px      :     0.012215
      py      :     0.010494

 13 H s       :     0.780304  s :     0.780304
      pz      :     0.014988  p :     0.044328
      px      :     0.008292
      py      :     0.021049


---------------------------------
LOEWDIN BOND ORDERS (THRESH 0.050000)
---------------------------------
B(  0-C ,  1-C ) :   1.0808 B(  0-C ,  2-O ) :   0.1575 B(  0-C ,  6-H ) :   0.9191 
B(  0-C ,  7-H ) :   0.9254 B(  0-C ,  8-H ) :   0.9183 B(  1-C ,  2-O ) :   1.3229 
B(  1-C ,  3-C ) :   0.0829 B(  1-C ,  4-O ) :   0.0652 B(  1-C ,  9-H ) :   0.8173 
B(  1-C , 10-H ) :   0.8331 B(  2-O ,  3-C ) :   1.4304 B(  2-O ,  4-O ) :   0.4564 
B(  2-O ,  5-C ) :   0.1850 B(  2-O ,  9-H ) :   0.0930 B(  2-O , 10-H ) :   0.0971 
B(  3-C ,  4-O ) :   2.2057 B(  3-C ,  5-C ) :   0.9678 B(  4-O ,  5-C ) :   0.1861 
B(  5-C , 11-H ) :   0.9093 B(  5-C , 12-H ) :   0.8982 B(  5-C , 13-H ) :   0.9027 


------------------------------------------
LOEWDIN REDUCED ORBITAL POPULATIONS PER MO
-------------------------------------------
THRESHOLD FOR PRINTING IS 0.1%%
                      0         1         2         3         4         5   
                 -18.99602 -18.93155 -10.15610 -10.08986 -10.03920 -10.02738
                   2.00000   2.00000   2.00000   2.00000   2.00000   2.00000
                  --------  --------  --------  --------  --------  --------
 0 C  s               0.0       0.0       0.0       0.0       0.0      99.7
 1 C  s               0.0       0.0       0.0      99.4       0.0       0.0
 2 O  s              99.9       0.0       0.0       0.0       0.0       0.0
 2 O  dx2y2           0.0       0.0       0.0       0.1       0.0       0.0
 2 O  dxy             0.0       0.0       0.2       0.1       0.0       0.0
 3 C  s               0.0       0.0      98.9       0.0       0.0       0.0
 4 O  s               0.0      99.9       0.0       0.0       0.0       0.0
 4 O  py              0.0       0.0       0.2       0.0       0.0       0.0
 4 O  dx2y2           0.0       0.0       0.2       0.0       0.0       0.0
 5 C  s               0.0       0.0       0.0       0.0      99.7       0.0

                      6         7         8         9        10        11   
                  -1.07259  -0.98275  -0.75232  -0.70445  -0.62041  -0.52396
                   2.00000   2.00000   2.00000   2.00000   2.00000   2.00000
                  --------  --------  --------  --------  --------  --------
 0 C  s               0.3       0.2      14.1      15.2      15.7       1.5
 0 C  pz              0.2       0.1       1.3       0.3       2.0       7.2
 0 C  px              0.5       0.1       0.4       0.0       1.0       0.1
 0 C  py              0.1       0.1       0.2       0.0       0.5       0.1
 1 C  s               4.4       2.1      17.6       4.7       6.3       6.8
 1 C  pz              0.4       0.2       0.8       0.9       4.4      10.2
 1 C  px              4.8       1.4       0.9       3.2       2.6       4.8
 1 C  py              0.2       0.5       0.0       0.6       2.7       5.4
 1 C  dxz             0.1       0.0       0.0       0.1       0.1       0.1
 1 C  dx2y2           0.2       0.1       0.0       0.0       0.0       0.1
 1 C  dxy             0.1       0.1       0.0       0.0       0.0       0.3
 2 O  s              39.7      18.2       0.3       2.1       0.1       4.9
 2 O  pz              0.0       0.0       0.7       0.1       2.8       0.7
 2 O  px              0.2       0.6      15.1       0.0      17.1      10.4
 2 O  py              2.7       0.4       0.1       0.1       1.2       7.5
 2 O  dz2             0.4       0.1       0.0       0.4       0.0       0.2
 2 O  dxz             0.1       0.0       0.0       0.1       0.7       0.8
 2 O  dyz             0.0       0.0       0.0       0.0       0.1       0.2
 2 O  dx2y2           0.0       0.6       0.0       1.6       0.3       0.2
 2 O  dxy             0.3       0.7       1.2       0.1       0.2       0.1
 3 C  s              16.8       3.6       4.3       2.2       1.5       3.5
 3 C  pz              0.3       0.0       0.3       0.8       0.0       0.5
 3 C  px              4.3       1.3       2.7       7.9       3.1       0.4
 3 C  py              0.1      22.2       6.2       1.4       1.9       1.7
 3 C  dz2             0.6       0.1       0.0       0.0       0.0       0.0
 3 C  dyz             0.0       0.1       0.0       0.0       0.0       0.0
 3 C  dx2y2           0.2       1.1       0.0       0.1       0.0       0.0
 3 C  dxy             0.3       0.6       0.0       0.2       0.2       0.0
 4 O  s              13.8      40.3       1.4       0.7       0.3       2.2
 4 O  pz              0.0       0.1       0.0       0.0       0.0       0.1
 4 O  px              0.0       0.2       0.1       0.3       0.2       0.2
 4 O  py              3.4       3.4       0.5       0.3       0.3       3.0
 4 O  dz2             0.4       0.0       0.1       0.1       0.0       0.1
 4 O  dx2y2           0.8       0.1       0.4       0.0       0.3       0.2
 4 O  dxy             0.1       0.2       0.3       0.5       0.1       0.0
 5 C  s               1.1       0.2      10.6      26.7       5.5       1.0
 5 C  pz              0.1       0.0       0.1       0.0       0.0       0.4
 5 C  px              1.6       0.1       0.8       0.1       1.7       2.9
 5 C  py              0.2       0.4       0.0       0.0       0.0       0.1
 6 H  s               0.0       0.0       2.2       3.1       5.1       0.2
 6 H  px              0.0       0.0       0.2       0.2       0.3       0.0
 7 H  s               0.0       0.0       2.1       2.8       4.5       2.6
 7 H  pz              0.0       0.0       0.1       0.1       0.1       0.0
 7 H  py              0.0       0.0       0.1       0.1       0.2       0.1
 8 H  s               0.0       0.0       2.0       2.7       4.9       1.1
 8 H  px              0.0       0.0       0.0       0.0       0.1       0.0
 8 H  py              0.0       0.0       0.1       0.1       0.2       0.1
 9 H  s               0.3       0.1       2.6       0.8       1.6      10.5
 9 H  pz              0.0       0.0       0.1       0.0       0.0       0.2
 9 H  py              0.0       0.0       0.1       0.0       0.1       0.3
10 H  s               0.3       0.2       3.2       0.9       3.2       3.5
10 H  px              0.0       0.0       0.1       0.0       0.1       0.0
10 H  py              0.0       0.0       0.2       0.1       0.1       0.3
11 H  s               0.1       0.0       1.5       5.4       2.2       1.3
11 H  px              0.0       0.0       0.1       0.2       0.0       0.0
11 H  py              0.0       0.0       0.1       0.2       0.1       0.1
12 H  s               0.1       0.0       1.8       5.5       1.8       0.5
12 H  pz              0.0       0.0       0.1       0.3       0.1       0.0
12 H  px              0.0       0.0       0.0       0.1       0.0       0.0
13 H  s               0.1       0.0       2.0       5.3       1.2       0.6
13 H  pz              0.0       0.0       0.1       0.2       0.0       0.0
13 H  py              0.0       0.0       0.1       0.3       0.1       0.0

                     12        13        14        15        16        17   
                  -0.47066  -0.45163  -0.44134  -0.40383  -0.39579  -0.37752
                   2.00000   2.00000   2.00000   2.00000   2.00000   2.00000
                  --------  --------  --------  --------  --------  --------
 0 C  s               0.0       0.3       0.4       0.0       0.2       0.0
 0 C  pz              0.0       0.1       3.0       0.0       0.3       6.2
 0 C  px              1.5       6.4       0.6       1.7      17.5       0.9
 0 C  py              4.2       0.1       1.0      18.8       3.0       1.1
 0 C  dxz             0.0       0.1       0.0       0.0       0.2       0.0
 1 C  s               0.1       0.3       0.4       0.0       0.4       0.0
 1 C  pz              0.1       5.5       0.3       0.4       8.8       1.4
 1 C  px              3.8       1.2       5.5       3.1       0.5       2.6
 1 C  py             13.8       0.7       0.1       8.6       0.4       0.1
 1 C  dz2             0.0       0.0       0.0       0.0       0.1       0.0
 1 C  dxy             0.0       0.0       0.0       0.2       0.0       0.0
 2 O  s               0.9       1.1       0.1       0.7       0.4       0.5
 2 O  pz              0.1       8.4      15.2       0.2       4.2       2.9
 2 O  px              0.1       6.8       1.8       0.3       0.2       1.4
 2 O  py             13.3       6.5       1.4       3.6       0.2       0.5
 2 O  dz2             0.0       0.0       0.0       0.0       0.4       0.0
 2 O  dxz             0.1       0.0       0.6       0.1       0.9       0.4
 2 O  dyz             0.1       0.4       0.2       0.0       0.0       0.0
 2 O  dx2y2           1.5       0.0       0.1       0.0       0.7       0.1
 2 O  dxy             1.3       0.0       0.2       0.5       0.2       0.0
 3 C  s               1.9       1.9       0.8       0.3       0.1       0.2
 3 C  pz              0.6      10.0      10.5       1.1       1.1       0.0
 3 C  px              9.8       0.0       2.4       8.7       1.1       0.8
 3 C  py              0.2       1.9       1.5       1.9       1.1       1.3
 3 C  dxz             0.0       0.0       0.0       0.0       0.1       0.0
 3 C  dx2y2           0.1       0.3       0.2       0.0       0.0       0.1
 3 C  dxy             0.0       0.0       0.0       0.0       0.0       0.4
 4 O  s               0.3       7.2       6.0       1.8       0.6       0.6
 4 O  pz              0.5       7.1       2.8       0.2       1.6       0.0
 4 O  px              7.9       0.2       2.3       2.7       0.0       0.1
 4 O  py              0.7      13.1      14.7      11.3       2.2       4.1
 4 O  dz2             0.0       0.0       0.2       0.0       0.0       0.0
 4 O  dxz             0.0       0.0       0.0       0.1       0.2       0.0
 4 O  dyz             0.1       0.8       0.5       0.0       0.0       0.0
 4 O  dx2y2           0.1       0.1       0.1       0.2       0.0       0.0
 4 O  dxy             1.1       0.0       0.2       0.3       0.0       0.0
 5 C  s               1.9       0.1       0.0       0.1       0.0       0.0
 5 C  pz              0.8       3.9       9.9       0.0      23.3       1.4
 5 C  px             10.2       0.8       1.3       5.3       0.8      15.1
 5 C  py              4.6       5.6       4.2       6.0       2.0      24.0
 5 C  dyz             0.0       0.0       0.0       0.0       0.0       0.5
 5 C  dxy             0.2       0.0       0.0       0.0       0.1       0.1
 6 H  s               0.1       2.7       0.4       0.0       9.1       0.6
 6 H  px              0.0       0.1       0.0       0.0       0.1       0.0
 6 H  py              0.0       0.0       0.0       0.1       0.0       0.0
 7 H  s               0.6       0.1       0.4       4.2       0.1       0.4
 7 H  pz              0.0       0.0       0.0       0.2       0.0       0.0
 7 H  px              0.0       0.0       0.0       0.0       0.1       0.0
 8 H  s               1.3       0.0       0.9       6.0       0.0       2.7
 8 H  pz              0.0       0.0       0.0       0.1       0.0       0.0
 8 H  px              0.0       0.0       0.0       0.0       0.1       0.0
 9 H  s               2.1       0.2       0.0       3.1       0.3       0.2
 9 H  pz              0.1       0.0       0.0       0.1       0.0       0.0
10 H  s               5.4       1.3       1.3       3.4       0.5       0.0
11 H  s               1.6       0.8       0.1       0.0       6.8      13.2
11 H  pz              0.0       0.0       0.1       0.0       0.0       0.3
11 H  px              0.0       0.1       0.0       0.0       0.1       0.0
11 H  py              0.2       0.0       0.0       0.0       0.1       0.0
12 H  s               2.6       3.1       2.0       1.9       7.4       0.7
12 H  pz              0.2       0.1       0.0       0.1       0.0       0.0
12 H  px              0.0       0.0       0.0       0.0       0.2       0.1
12 H  py              0.0       0.0       0.1       0.0       0.0       0.2
13 H  s               2.9       0.2       5.5       1.4       1.4      13.7
13 H  pz              0.0       0.0       0.0       0.0       0.0       0.2
13 H  px              0.1       0.0       0.0       0.1       0.0       0.0
13 H  py              0.0       0.0       0.1       0.0       0.1       0.1

                     18        19        20        21        22        23   
                  -0.36659  -0.34383  -0.33555  -0.30778  -0.27284  -0.23984
                   2.00000   2.00000   2.00000   2.00000   2.00000   2.00000
                  --------  --------  --------  --------  --------  --------
 0 C  s               0.0       0.2       0.2       0.0       0.6       0.0
 0 C  pz             19.2       7.5       2.1       0.6       4.6       0.2
 0 C  px              4.5       4.9      13.0       0.1       2.3       0.1
 0 C  py              9.5       7.8       1.3       8.1       1.5       0.1
 0 C  dyz             0.1       0.1       0.2       0.4       0.0       0.0
 0 C  dx2y2           0.3       0.2       0.0       0.0       0.0       0.0
 0 C  dxy             0.1       0.2       0.0       0.0       0.0       0.0
 1 C  s               0.1       0.3       0.0       0.2       0.1       0.1
 1 C  pz              2.3       6.8       3.1       1.9       4.6       0.5
 1 C  px              0.8       1.4       5.1       0.2       0.4       0.5
 1 C  py              0.2       3.8       0.1      16.0       0.3       0.1
 1 C  dxz             0.0       0.1       0.1       0.1       0.7       0.0
 1 C  dyz             0.0       0.1       0.1       0.8       0.2       0.0
 1 C  dx2y2           0.0       0.3       0.1       0.2       0.1       0.0
 1 C  dxy             0.2       0.1       0.0       0.1       0.1       0.0
 2 O  s               1.0       0.1       0.7       2.5       0.0       0.3
 2 O  pz              3.6       0.9       0.2       1.9      42.7       0.2
 2 O  px              1.2       2.4       3.9       1.3       3.3       1.0
 2 O  py              3.5       3.2       8.3      20.3       0.3       7.8
 2 O  dz2             0.1       0.1       0.1       0.2       0.1       0.3
 2 O  dxz             0.0       0.3       0.8       0.1       0.4       0.0
 2 O  dyz             0.0       0.5       0.1       0.4       0.4       0.0
 2 O  dx2y2           0.2       0.1       0.0       0.9       0.0       0.2
 2 O  dxy             0.0       0.2       0.0       0.8       0.2       0.1
 3 C  s               0.1       0.0       0.1       0.3       0.0       0.2
 3 C  pz              0.2       2.3       8.1       0.3       0.2       0.1
 3 C  px              0.1       2.3       0.1       0.1       0.0       1.0
 3 C  py              2.9       0.5       0.9       2.7       0.0       0.6
 3 C  dxz             0.1       0.1       0.0       0.1       0.2       0.1
 3 C  dyz             0.0       0.2       0.3       0.0       1.7       0.1
 3 C  dx2y2           0.1       0.1       0.3       0.5       0.1       0.2
 3 C  dxy             0.0       0.0       0.1       0.0       0.0       3.8
 4 O  s               0.9       0.2       0.4       0.4       0.0       0.0
 4 O  pz              1.3      10.6      14.9       1.4      28.8       2.9
 4 O  px              0.1       2.4       1.2       0.8       0.6      67.0
 4 O  py              6.2       1.1       4.9       3.6       0.3       1.2
 4 O  dxz             0.1       0.1       0.0       0.2       0.0       0.0
 4 O  dyz             0.0       0.1       0.3       0.0       0.1       0.0
 4 O  dx2y2           0.0       0.0       0.1       0.2       0.0       0.0
 4 O  dxy             0.0       0.0       0.0       0.0       0.0       0.6
 5 C  s               0.0       0.1       0.1       0.1       0.0       0.7
 5 C  pz              4.0       3.9       8.9       0.1       0.0       0.2
 5 C  px              0.2       5.2       1.5       1.5       0.0       3.7
 5 C  py              5.2       0.0       0.1       0.2       0.1       3.3
 5 C  dxz             0.1       0.1       0.1       0.0       0.0       0.0
 5 C  dyz             0.0       0.2       0.0       0.0       0.0       0.0
 5 C  dxy             0.0       0.0       0.2       0.0       0.0       0.0
 6 H  s               8.6       2.5       3.8       0.6       0.7       0.1
 6 H  px              0.2       0.0       0.0       0.0       0.0       0.0
 6 H  py              0.0       0.1       0.0       0.0       0.0       0.0
 7 H  s              13.6       0.1       2.1       6.2       0.1       0.0
 7 H  pz              0.0       0.1       0.0       0.0       0.1       0.0
 7 H  px              0.1       0.0       0.1       0.0       0.0       0.0
 7 H  py              0.2       0.0       0.0       0.0       0.0       0.0
 8 H  s               0.2      11.5       2.4       3.2       0.3       0.1
 8 H  pz              0.1       0.0       0.1       0.0       0.0       0.0
 8 H  py              0.1       0.1       0.1       0.0       0.0       0.0
 9 H  s               0.8       0.0       0.9      13.0       1.9       0.1
10 H  s               0.6       7.8       0.1       6.1       1.3       0.2
10 H  pz              0.0       0.0       0.0       0.1       0.0       0.0
11 H  s               2.7       0.2       3.1       0.0       0.0       0.1
12 H  s               3.4       3.9       3.4       0.4       0.0       0.2
13 H  s               0.1       2.2       1.2       0.0       0.0       1.0

                     24        25        26        27        28        29   
                  -0.01356   0.07808   0.09495   0.12369   0.12599   0.14118
                   0.00000   0.00000   0.00000   0.00000   0.00000   0.00000
                  --------  --------  --------  --------  --------  --------
 0 C  s               0.4       3.7      10.8       2.0      23.5       0.2
 0 C  pz              0.3       0.9       1.2      11.8       4.0       0.9
 0 C  px              0.2       1.4       0.3       2.7      11.7       0.0
 0 C  py              0.1       0.6       0.4       1.4       0.8       3.7
 0 C  dz2             0.0       0.6       0.1       0.7       0.0       0.1
 0 C  dxz             0.0       0.1       0.5       0.3       0.3       0.1
 0 C  dyz             0.0       0.0       0.0       0.4       0.0       0.1
 0 C  dx2y2           0.0       0.1       0.3       0.1       0.0       0.1
 0 C  dxy             0.0       0.0       0.4       0.0       0.0       0.0
 1 C  s               0.0       3.7       7.6      11.3       1.5       0.4
 1 C  pz              0.0       1.7       2.0       9.8      12.7       1.2
 1 C  px              0.1       7.7      25.2       5.5       2.7       0.2
 1 C  py              0.0       2.5       2.5       4.5       2.4      11.1
 1 C  dz2             0.0       0.2       0.6       0.4       0.2       0.1
 1 C  dxz             0.2       0.2       0.7       0.1       0.0       0.1
 1 C  dyz             0.1       0.0       0.1       0.3       0.0       1.0
 1 C  dx2y2           0.0       0.4       1.0       0.2       0.8       0.1
 1 C  dxy             0.0       0.3       0.3       0.2       0.7       0.1
 2 O  s               0.0       5.2       5.0       0.4       1.0       0.1
 2 O  pz              8.7       0.0       1.9       0.3       0.3       0.0
 2 O  px              0.5       0.3       4.0       0.5       2.2       0.3
 2 O  py              0.2       0.7       1.3       0.2       0.5       1.1
 2 O  dz2             0.7       2.7       1.2       0.2       3.5       0.0
 2 O  dxz             2.9       1.3       1.7       0.1       0.0       0.2
 2 O  dyz             2.0       0.0       0.0       0.4       0.0       0.1
 2 O  dx2y2           0.4       0.9       1.7       0.5       0.1       1.8
 2 O  dxy             0.0       0.1       0.8       0.0       0.1       5.9
 3 C  s               0.0      14.3       1.0       1.7       0.6       5.2
 3 C  pz             37.8       0.2       0.9       2.2       1.0       0.9
 3 C  px              2.4       0.4       0.1       1.4       1.7       3.5
 3 C  py              0.3       0.2       2.4       0.1       0.2       3.2
 3 C  dz2             0.2       1.5       0.0       0.3       0.1       0.5
 3 C  dxz             0.3       0.3       0.1       0.0       0.0       0.1
 3 C  dyz             0.6       0.1       0.0       0.0       0.0       0.0
 3 C  dx2y2           0.0       0.0       0.9       0.0       0.2       0.1
 4 O  s               0.0       2.2       0.4       0.1       0.0       0.3
 4 O  pz             22.6       0.1       0.1       0.2       0.2       0.1
 4 O  px              1.4       0.2       0.1       0.7       1.6       0.3
 4 O  py              0.2       0.4       0.3       0.0       0.1       0.2
 4 O  dz2             0.7       2.0       0.1       0.1       0.5       0.4
 4 O  dxz             0.2       0.1       0.3       0.2       0.1       0.0
 4 O  dyz             5.9       0.2       0.0       0.0       0.0       0.0
 4 O  dx2y2           0.0       0.1       0.1       0.1       0.5       1.5
 4 O  dxy             0.5       0.1       0.5       0.1       0.1       0.7
 5 C  s               0.1      22.0       0.4      13.5       2.3       1.5
 5 C  pz              0.1       0.1       0.0       1.4       0.1       3.1
 5 C  px              0.0       0.4       1.4       2.9       0.3      18.2
 5 C  py              0.0       0.0       1.0       0.2       0.8       4.3
 5 C  dz2             0.0       0.1       0.1       0.1       0.2       0.4
 5 C  dxz             1.1       0.0       0.2       0.0       0.1       0.4
 5 C  dyz             0.5       0.0       0.1       0.0       0.1       0.0
 5 C  dx2y2           0.1       0.0       0.2       0.0       0.1       1.3
 5 C  dxy             0.2       0.0       0.1       0.0       0.0       1.6
 6 H  s               0.0       3.3       0.9       1.0       2.1       0.1
 6 H  pz              0.0       0.1       0.9       0.2       0.0       0.0
 6 H  px              0.0       0.4       0.1       0.0       1.9       0.1
 6 H  py              0.0       0.0       0.0       0.0       0.3       0.0
 7 H  s               0.0       0.3       2.1       0.1       3.2       0.2
 7 H  pz              0.0       0.0       0.3       0.3       0.7       0.2
 7 H  px              0.0       0.1       0.0       0.2       0.1       0.0
 7 H  py              0.0       0.2       0.7       0.0       1.3       0.0
 8 H  s               0.0       0.6       3.7       0.4       1.2       0.7
 8 H  pz              0.0       0.0       0.2       0.6       0.1       0.1
 8 H  px              0.0       0.4       0.5       0.0       0.1       0.0
 8 H  py              0.0       0.0       0.6       0.3       0.9       0.2
 9 H  s               0.2       1.5       0.8       0.8       0.3       5.6
 9 H  pz              0.0       0.2       0.2       0.5       0.7       1.3
 9 H  px              0.0       0.7       0.7       0.3       0.1       0.0
 9 H  py              0.0       0.2       0.5       0.2       0.2       0.9
10 H  s               0.1       0.9       0.8       4.7       1.5       3.0
10 H  pz              0.0       0.0       0.1       1.1       0.3       0.4
10 H  px              0.0       0.0       1.6       0.1       0.1       0.2
10 H  py              0.0       0.7       0.0       2.2       0.8       0.2
11 H  s               0.8       1.6       1.6       0.7       0.3       1.3
11 H  pz              0.0       0.3       0.1       0.2       0.0       0.0
11 H  px              0.0       0.2       0.3       0.2       0.0       0.2
11 H  py              0.0       0.4       0.0       0.3       0.0       1.3
12 H  s               4.3       3.3       0.2       2.5       1.2       0.5
12 H  pz              0.0       1.1       0.0       0.8       0.6       0.8
12 H  px              0.2       0.1       0.0       0.3       0.0       0.4
13 H  s               1.7       1.6       0.6       1.5       1.2       3.6
13 H  pz              0.0       0.4       0.1       0.6       0.4       0.2
13 H  px              0.0       0.1       0.0       0.0       0.0       1.4
13 H  py              0.1       0.4       0.0       0.4       0.1       0.4

                     30        31        32        33        34        35   
                   0.15539   0.16705   0.17101   0.17983   0.18229   0.19274
                   0.00000   0.00000   0.00000   0.00000   0.00000   0.00000
                  --------  --------  --------  --------  --------  --------
 0 C  s               0.4       0.7       0.0       0.0       0.2       0.4
 0 C  pz              4.2       3.4       5.4       7.2       4.6       2.6
 0 C  px              1.0       8.8      12.5       7.3       0.2       4.5
 0 C  py              3.1       1.8       3.7       3.2      10.6      16.9
 0 C  dz2             0.0       0.0       0.1       0.0       0.5       0.0
 0 C  dxz             0.1       0.4       0.2       0.1       1.0       0.1
 0 C  dyz             0.6       0.8       0.2       1.0       0.7       1.3
 0 C  dx2y2           0.1       1.1       0.3       1.3       0.2       0.1
 0 C  dxy             0.1       0.6       0.4       0.1       0.4       1.0
 1 C  s               1.4       0.6       0.5       1.0       1.1       0.2
 1 C  pz              0.1       5.1      15.4       3.9       1.8       0.2
 1 C  px              2.2       1.5       4.1       0.1       3.8       0.3
 1 C  py              4.5       1.3       1.7       0.2       0.1      10.8
 1 C  dz2             0.2       0.3       0.1       0.4       0.1       0.1
 1 C  dxz             0.2       0.1       0.4       0.0       0.0       0.0
 1 C  dyz             0.4       0.7       0.0       0.0       0.1       0.0
 1 C  dx2y2           0.0       0.2       0.1       0.0       0.2       0.2
 1 C  dxy             0.0       0.3       0.0       0.3       0.1       0.1
 2 O  s               0.6       0.3       0.4       0.3       0.2       0.1
 2 O  pz              0.0       0.8       0.0       0.0       0.5       1.3
 2 O  px              0.2       0.1       0.4       2.6       0.5       1.0
 2 O  py              0.4       0.3       0.1       1.1       0.4       2.4
 2 O  dz2             1.1       3.8       0.6       0.4       0.3       0.0
 2 O  dxz             0.2       0.5       0.7       0.1       0.8       0.2
 2 O  dyz             0.1       0.4       0.6       0.2       0.0       0.0
 2 O  dx2y2           0.6       0.2       1.1       0.3       0.0       0.2
 2 O  dxy             0.1       0.1       2.1       1.5       3.1       0.0
 3 C  s               2.2       0.3       0.5       0.2       0.1       1.7
 3 C  pz              1.2       7.0       1.9       1.1       5.2       0.9
 3 C  px              3.4       2.4       1.1       1.2       1.1       1.2
 3 C  py              0.1       6.3       1.2       1.3       1.7       0.3
 3 C  dz2             0.1       0.0       0.1       0.0       0.3       0.3
 3 C  dx2y2           0.0       0.1       0.5       0.4       0.1       0.0
 3 C  dxy             0.1       0.1       0.2       0.5       0.0       0.0
 4 O  s               0.4       1.4       0.7       0.1       0.0       0.0
 4 O  pz              0.1       0.6       0.1       0.2       1.1       0.2
 4 O  px              0.6       0.2       0.1       0.7       0.0       0.4
 4 O  py              0.2       2.2       0.4       0.3       0.6       0.4
 4 O  dz2             1.9       0.0       0.0       0.0       0.0       1.0
 4 O  dxz             0.1       0.6       0.6       0.3       0.3       0.3
 4 O  dyz             0.3       0.0       0.1       0.1       0.0       0.3
 4 O  dx2y2           0.1       2.3       0.0       0.0       1.0       0.6
 4 O  dxy             0.5       0.0       0.3       0.4       0.1       0.3
 5 C  s               6.8       0.1       2.0       0.2       0.5       0.2
 5 C  pz              0.2       5.8       2.2       1.3       8.7       6.1
 5 C  px             24.7       1.2       7.7       3.9       3.2       0.6
 5 C  py             13.2       0.8       1.9       9.6       2.2       1.3
 5 C  dz2             0.4       0.0       0.0       0.0       0.6       0.1
 5 C  dxz             0.1       0.2       0.0       0.3       0.4       0.0
 5 C  dyz             0.3       0.0       1.2       1.9       0.1       0.5
 5 C  dx2y2           0.0       0.4       0.0       0.2       0.0       0.5
 5 C  dxy             0.5       0.1       0.5       0.5       0.6       0.6
 6 H  s               1.5      10.8       1.7       3.4       1.5       2.6
 6 H  pz              0.0       0.6       0.0       0.1       0.2       0.3
 6 H  px              0.2       1.0       0.9       1.8       0.6       0.2
 6 H  py              0.0       0.4       0.1       0.0       0.9       1.8
 7 H  s               2.6       0.6       1.2       8.3       7.9       4.7
 7 H  pz              0.1       0.9       0.0       0.3       1.8       0.3
 7 H  px              0.1       1.0       0.0       0.0       0.0       0.8
 7 H  py              0.2       0.0       1.0       1.5       0.3       0.1
 8 H  s               1.1       4.5       1.0       0.1       7.2       5.4
 8 H  pz              0.6       0.0       0.1       0.5       0.5       0.5
 8 H  px              0.3       0.1       0.2       0.1       1.3       0.1
 8 H  py              0.1       1.3       0.4       0.2       0.1       0.0
 9 H  s               0.3       6.5       0.5       0.1       0.5       1.6
 9 H  pz              0.3       0.2       0.3       0.0       0.0       0.3
 9 H  px              0.0       0.2       0.2       0.1       0.1       0.1
 9 H  py              0.0       1.7       0.1       0.1       0.1       0.5
10 H  s               4.3       0.0       0.1       0.2       0.2       2.0
10 H  pz              0.4       0.9       0.1       0.1       0.0       0.1
10 H  px              0.5       0.0       0.2       0.0       0.1       0.8
10 H  py              1.0       0.3       0.1       0.0       0.0       0.2
11 H  s               0.4       0.0       8.5      10.9       5.5       0.4
11 H  pz              0.0       0.1       1.0       1.8       0.0       0.5
11 H  px              0.4       0.1       0.5       1.0       1.5       0.0
11 H  py              0.0       0.2       1.0       0.9       1.2       0.5
12 H  s               0.9       0.1       1.5       0.3       5.3       3.1
12 H  pz              0.1       0.2       0.9       0.0       1.0       0.2
12 H  px              0.5       0.0       0.0       0.3       0.3       0.2
12 H  py              0.1       0.0       0.6       0.5       0.1       0.5
13 H  s               2.6       1.6       2.3       7.9       1.0       7.8
13 H  pz              0.3       0.0       0.5       1.1       0.2       0.2
13 H  px              0.1       0.0       0.2       0.1       0.1       0.2
13 H  py              1.3       0.1       0.3       0.9       0.8       2.1

                     36        37        38        39        40        41   
                   0.20103   0.20778   0.20957   0.22931   0.24284   0.24482
                   0.00000   0.00000   0.00000   0.00000   0.00000   0.00000
                  --------  --------  --------  --------  --------  --------
 0 C  s               0.0       0.8       2.1       0.0       0.1       2.4
 0 C  pz              0.1      20.3       4.7       0.3       3.1       6.3
 0 C  px              2.0       2.6       1.4      11.5       4.3       5.8
 0 C  py              1.8       0.2       1.9      41.0       1.1       7.7
 0 C  dz2             0.0       0.4       0.2       0.0       0.0       0.1
 0 C  dxz             0.0       0.3       0.7       0.0       0.1       0.0
 0 C  dyz             0.6       0.0       0.0       0.2       0.9       0.0
 0 C  dx2y2           0.1       0.1       0.1       0.0       0.1       0.7
 0 C  dxy             0.0       0.0       0.3       0.2       0.1       0.5
 1 C  s               0.1       1.5       0.9       0.2       1.2       0.2
 1 C  pz              0.3      10.5       6.6       0.1       0.7       6.2
 1 C  px              0.3       3.3       0.3       0.5       1.5       5.3
 1 C  py              1.2       0.8       1.4       5.5      11.3       0.2
 1 C  dz2             0.0       0.0       0.1       0.0       0.0       0.5
 1 C  dxz             0.0       0.0       0.1       0.1       0.3       0.6
 1 C  dyz             0.5       0.2       0.0       0.3       1.5       0.5
 1 C  dx2y2           0.1       0.3       0.2       0.0       0.0       0.2
 1 C  dxy             0.0       0.3       0.2       0.1       0.0       0.0
 2 O  s               0.1       0.2       0.2       0.1       0.6       1.0
 2 O  pz              0.2       0.2       0.8       0.2       1.3       4.0
 2 O  px              0.1       1.6       0.1       0.0       0.1       1.6
 2 O  py              2.4       0.3       0.2       0.1       2.8       0.5
 2 O  dz2             0.4       0.6       0.7       0.2       0.4       1.8
 2 O  dxz             1.2       0.1       0.1       0.0       0.1       1.8
 2 O  dyz             0.1       0.8       0.0       0.9       1.1       0.0
 2 O  dx2y2           0.3       0.4       0.1       0.2       0.0       0.9
 2 O  dxy             0.5       0.2       1.0       0.3       1.2       0.9
 3 C  s               0.9       1.1       0.1       0.3       2.9       2.7
 3 C  pz              1.9       4.1       3.4       2.4       0.9       0.4
 3 C  px              0.7       0.2       0.0       0.5       1.0       0.9
 3 C  py              1.9       0.4       1.4       2.2      17.5       0.5
 3 C  dz2             0.1       0.0       0.0       0.0       0.3       0.8
 3 C  dxz             0.1       0.3       0.0       0.0       0.1       0.0
 3 C  dyz             0.0       0.0       0.1       0.0       0.2       0.1
[...]
 5 C  px              1.2       0.6       0.1       0.3       1.6       0.0
 5 C  py              8.1       2.0       0.2       0.0       0.0       0.0
 5 C  dz2             0.2       0.1       0.0       0.0       0.1       0.0
 5 C  dxz             3.4       0.9       0.1       0.0       0.0       0.0
 5 C  dyz            13.9       2.9       0.3       0.0       0.4       0.0
 5 C  dx2y2           3.5       0.3       0.0       0.2       1.1       0.0
 5 C  dxy             0.3       0.5       0.1       0.7       3.2       0.1
 6 H  s               0.3       1.0       2.7       0.1       0.0       0.1
 6 H  pz              0.0       0.0       0.2       0.1       0.0       0.0
 6 H  px              0.9       2.7       3.5       0.1       0.0       0.2
 6 H  py              0.0       0.0       1.7       0.5       0.0       0.0
 7 H  s               1.8       6.7       0.5       0.3       0.8       0.0
 7 H  pz              2.0       6.6       1.0       0.5       0.9       0.0
 7 H  px              0.0       0.0       0.2       0.3       0.0       0.0
 7 H  py              2.3      11.0       0.1       0.3       1.0       0.0
 8 H  s               0.3       0.1      10.9       0.1       0.4       0.0
 8 H  pz              0.4       0.5       4.9       0.1       0.1       0.0
 8 H  px              0.2       0.0       6.2       0.0       0.1       0.1
 8 H  py              0.3       0.0      18.0       0.3       0.4       0.0
 9 H  s               0.0       0.2       0.6       6.9       0.6       0.3
 9 H  pz              0.0       0.1       0.8       9.0       0.6       0.2
 9 H  px              0.0       0.0       0.1       0.0       0.8       0.3
 9 H  py              0.0       0.9       1.0       7.3       0.8       0.3
10 H  s               0.3       1.6       0.0       7.1       0.5       0.4
10 H  pz              0.1       0.5       0.0       4.3       0.3       0.0
10 H  px              0.2       2.6       0.0       3.4       0.0       0.0
10 H  py              0.3       2.0       0.1       7.7       1.0       1.0
11 H  s               4.3       1.5       0.2       0.2       1.0       0.0
11 H  pz              2.6       0.8       0.1       0.2       0.4       0.0
11 H  px              3.1       1.0       0.1       0.1       0.5       0.0
11 H  py              3.9       1.4       0.1       0.3       1.0       0.0
12 H  py              0.4       0.1       0.0       0.0       0.0       0.0
13 H  s               7.7       1.3       0.1       0.0       0.0       0.0
13 H  pz              7.7       1.5       0.1       0.0       0.0       0.0
13 H  px              0.6       0.1       0.0       0.0       0.0       0.0
13 H  py             10.2       1.7       0.2       0.1       0.1       0.0

                    156       157       158       159       160       161   
                   4.28551   4.44595  21.91581  21.94925  22.06206  22.22666
                   0.00000   0.00000   0.00000   0.00000   0.00000   0.00000
                  --------  --------  --------  --------  --------  --------
 0 C  s               0.0       0.0       2.6      96.9       0.1       0.0
 1 C  s               0.6       0.1       5.9       0.6      92.4       0.7
 1 C  pz              0.3       0.0       0.0       0.0       0.0       0.0
 1 C  px              2.1       0.3       0.0       0.0       0.0       0.0
 1 C  py              0.3       0.0       0.0       0.0       0.0       0.0
 1 C  dz2             0.4       0.0       0.0       0.0       0.0       0.0
 1 C  dxz             0.4       0.0       0.0       0.0       0.0       0.0
 1 C  dx2y2           1.8       0.1       0.0       0.0       0.0       0.0
 1 C  dxy             1.1       0.3       0.0       0.0       0.0       0.0
 2 O  s               3.5       1.0       0.0       0.0       0.1       0.1
 2 O  pz              1.3       0.0       0.0       0.0       0.0       0.0
 2 O  px             26.0       0.5       0.0       0.0       0.0       0.1
 2 O  py              4.0       0.1       0.0       0.0       0.0       0.0
 2 O  dz2             2.2       0.4       0.0       0.0       0.0       0.0
 2 O  dxz             0.0       0.5       0.0       0.0       0.0       0.0
 2 O  dyz             1.1       0.0       0.0       0.0       0.0       0.0
 2 O  dx2y2           0.6       0.6       0.0       0.0       0.0       0.0
 2 O  dxy            27.1       0.2       0.0       0.0       0.0       0.0
 3 C  s               2.3       5.8       0.0       0.1       0.7      98.2
 3 C  pz              0.1       0.1       0.0       0.0       0.0       0.0
 3 C  px              3.8       0.1       0.0       0.0       0.0       0.0
 3 C  py              2.7       7.6       0.0       0.0       0.0       0.1
 3 C  dz2             1.6       1.5       0.0       0.0       0.0       0.0
 3 C  dyz             0.4       0.3       0.0       0.0       0.0       0.0
 3 C  dx2y2           0.0       4.1       0.0       0.0       0.0       0.0
 3 C  dxy            10.7       0.3       0.0       0.0       0.0       0.0
 4 O  s               0.5      18.8       0.0       0.0       0.0       0.2
 4 O  pz              0.0       0.4       0.0       0.0       0.0       0.0
 4 O  px              0.2       0.3       0.0       0.0       0.0       0.0
 4 O  py              0.2      21.2       0.0       0.0       0.0       0.2
 4 O  dz2             0.2       7.5       0.0       0.0       0.0       0.0
 4 O  dxz             0.2       0.0       0.0       0.0       0.0       0.0
 4 O  dyz             0.2       1.7       0.0       0.0       0.0       0.0
 4 O  dx2y2           0.2      23.6       0.0       0.0       0.0       0.0
 4 O  dxy             1.7       1.5       0.0       0.0       0.0       0.0
 5 C  s               0.0       0.0      91.1       2.2       6.3       0.1
 5 C  px              0.1       0.0       0.0       0.0       0.0       0.0
 5 C  dz2             0.0       0.1       0.0       0.0       0.0       0.0
 5 C  dx2y2           0.1       0.0       0.0       0.0       0.0       0.0
 5 C  dxy             0.3       0.1       0.0       0.0       0.0       0.0
 9 H  s               0.1       0.0       0.0       0.0       0.0       0.0
 9 H  px              0.2       0.0       0.0       0.0       0.0       0.0
10 H  s               0.1       0.0       0.0       0.0       0.0       0.0
10 H  py              0.2       0.0       0.0       0.0       0.0       0.0

                    162       163   
                  43.66592  43.73252
                   0.00000   0.00000
                  --------  --------
 2 O  s               0.4      99.6
 4 O  s              99.5       0.4


                      *****************************
                      * MAYER POPULATION ANALYSIS *
                      *****************************

  NA   - Mulliken gross atomic population
  ZA   - Total nuclear charge
  QA   - Mulliken gross atomic charge
  VA   - Mayer's total valence
  BVA  - Mayer's bonded valence
  FA   - Mayer's free valence

  ATOM       NA         ZA         QA         VA         BVA        FA
  0 C      6.4699     6.0000    -0.4699     3.8088     3.8088     0.0000
  1 C      6.1326     6.0000    -0.1326     3.6937     3.6937     0.0000
  2 O      8.1774     8.0000    -0.1774     1.8895     1.8895     0.0000
  3 C      5.5696     6.0000     0.4304     3.7875     3.7875    -0.0000
  4 O      8.4250     8.0000    -0.4250     1.9518     1.9518    -0.0000
  5 C      6.5190     6.0000    -0.5190     3.8698     3.8698     0.0000
  6 H      0.8540     1.0000     0.1460     0.9651     0.9651     0.0000
  7 H      0.8498     1.0000     0.1502     0.9625     0.9625     0.0000
  8 H      0.8262     1.0000     0.1738     0.9580     0.9580    -0.0000
  9 H      0.8370     1.0000     0.1630     0.9610     0.9610    -0.0000
 10 H      0.8531     1.0000     0.1469     0.9523     0.9523    -0.0000
 11 H      0.8263     1.0000     0.1737     0.9590     0.9590     0.0000
 12 H      0.8279     1.0000     0.1721     0.9572     0.9572     0.0000
 13 H      0.8323     1.0000     0.1677     0.9598     0.9598     0.0000

  Mayer bond orders larger than 0.100000
B(  0-C ,  1-C ) :   0.9349 B(  0-C ,  6-H ) :   0.9652 B(  0-C ,  7-H ) :   0.9734 
B(  0-C ,  8-H ) :   0.9717 B(  1-C ,  2-O ) :   0.8350 B(  1-C ,  9-H ) :   0.9675 
B(  1-C , 10-H ) :   0.9604 B(  2-O ,  3-C ) :   1.0444 B(  3-C ,  4-O ) :   1.8461 
B(  3-C ,  5-C ) :   0.9538 B(  5-C , 11-H ) :   0.9819 B(  5-C , 12-H ) :   0.9377 
B(  5-C , 13-H ) :   0.9699 

-------
TIMINGS
-------

Total SCF time: 0 days 0 hours 0 min 14 sec 

Total time                  ....      14.721 sec
Sum of individual times     ....      14.667 sec  ( 99.6%)

SCF preparation             ....       0.806 sec  (  5.5%)
Fock matrix formation       ....      10.829 sec  ( 73.6%)
  Startup                   ....       0.010 sec  (  0.1% of F)
  Split-RI-J                ....       1.769 sec  ( 16.3% of F)
  XC integration            ....       8.723 sec  ( 80.5% of F)
    Basis function eval.    ....       1.575 sec  ( 18.1% of XC)
    Density eval.           ....       2.778 sec  ( 31.8% of XC)
    XC-Functional eval.     ....       1.213 sec  ( 13.9% of XC)
    XC-Potential eval.      ....       2.827 sec  ( 32.4% of XC)
Diagonalization             ....       0.000 sec  (  0.0%)
Density matrix formation    ....       0.047 sec  (  0.3%)
Total Energy calculation    ....       0.002 sec  (  0.0%)
Population analysis         ....       2.821 sec  ( 19.2%)
Orbital Transformation      ....       0.018 sec  (  0.1%)
Orbital Orthonormalization  ....       0.000 sec  (  0.0%)
DIIS solution               ....       0.123 sec  (  0.8%)
  MO trafo                  ....       0.000 sec  (  0.0 % of DIIS)
  Orb grad                  ....       0.000 sec  (  0.0 % of DIIS)
  Energy W gradient         ....       0.000 sec  (  0.0 % of DIIS)
  DIIS error                ....       0.009 sec  (  7.3 % of DIIS)
  DIIS work                 ....       0.103 sec  ( 84.3 % of DIIS)
  Form Q                    ....       0.000 sec  (  0.0 % of DIIS)
  Form QpQm                 ....       0.000 sec  (  0.0 % of DIIS)
  Exp/Cayley                ....       0.000 sec  (  0.0 % of DIIS)
  Orb update                ....       0.000 sec  (  0.0 % of DIIS)
  Wake-sleep                ....       0.002 sec  (  1.3 % of DIIS)
SOSCF solution              ....       0.021 sec  (  0.1%)
  MO trafo                  ....       0.017 sec  ( 83.6 % of SOSCF)
  Orb grad                  ....       0.000 sec  (  0.4 % of SOSCF)
  Rot update                ....       0.000 sec  (  0.1 % of SOSCF)
  Step                      ....       0.003 sec  ( 15.7 % of SOSCF)
Finished LeanSCF after  17.7 sec

Maximum memory used throughout the entire LEANSCF-calculation: 17.5 MB


-------------------------------------------------------------------------------
                          DFT DISPERSION CORRECTION                            
                                                                               
                                DFTD4 V3.4.0                                   
-------------------------------------------------------------------------------
The R2SCAN3C composite method is recognized
Using three-body term ABC
Active option DFTDOPT                   ...         5   

-------------------------   ----------------
Dispersion correction           -0.002990382
-------------------------   ----------------

------------------   -----------------
gCP correction             0.009157169
------------------   -----------------

-------------------------   --------------------
FINAL SINGLE POINT ENERGY      -307.638135470770
-------------------------   --------------------


------------------------------------------------------------------------------
                              ORCA PROPERTY CALCULATIONS
------------------------------------------------------------------------------

GBWName                                 ... sp.gbw
Number of atoms                         ...     14
Number of basis functions               ...    164
Max core memory                         ...   1024 MB

Electric properties:
Dipole moment                           ... YES
Quadrupole moment                       ...  NO
Static polarizability (Dipole/Dipole)   ...  NO
Static polarizability (Dipole/Quad.)    ...  NO
Static polarizability (Quad./Quad.)     ...  NO
Static polarizability (Velocity)        ...  NO

Atomic electric properties:
Dipole moment                           ...  NO
Quadrupole moment                       ...  NO
Static polarizability                   ...  NO

Choice of electric origin               ... Center of mass
Position of electric origin             ...    -0.000011    -0.000009     0.000007

General magnetic properties:
Magnetizability                         ...  NO

EPR properties:
g-Tensor (aka g-matrix)                 ...  NO
Zero-Field splitting spin-orbit         ...  NO
Zero-field splitting spin-spin          ...  NO
Hyperfine couplings                     ...  NO (   0 nuclei)
Quadrupole couplings                    ...  NO (   0 nuclei)
Contact density                         ...  NO (   0 nuclei)

NMR properties:
Chemical shifts                         ...  NO (   0 nuclei)
Spin-rotation constants                 ...  NO (   0 nuclei)
Spin-spin couplings                     ...  NO (   0 nuclei,    0 pairs)

Choice of magnetic origin               ... GIAO
Position of magnetic origin             ...     0.000000     0.000000     0.000000

Properties with geometric perturbations:
SCF Hessian                             ...  NO
IR spectrum                             ...  NO
VCD spectrum                            ...  NO
X-ray spectroscopy properties:
SCF XES/XAS/RIXS spectra                ...  NO


-------------
DIPOLE MOMENT
-------------

Method             : SCF
Type of density    : Electron Density
Multiplicity       :   1
Irrep              :   0
Energy             :  -307.6443022575347186 Eh
Relativity type    : 
Basis              : AO
                                X                 Y                 Z
Electronic contribution:      2.497480606       1.067484437      -1.534049674
Nuclear contribution   :     -2.709622843      -1.773928122       1.594528910
                        -----------------------------------------
Total Dipole Moment    :     -0.212142238      -0.706443685       0.060479236
                        -----------------------------------------
Magnitude (a.u.)       :      0.740084284
Magnitude (Debye)      :      1.881144753



--------------------
Rotational spectrum 
--------------------
 
Rotational constants in cm-1:             0.248475             0.077817             0.068698 
Rotational constants in MHz :          7449.098725          2332.881148          2059.513421 

Dipole components along the rotational axes: 
x,y,z [a.u.] :    -0.210025    -0.707665     0.053147 
x,y,z [Debye]:    -0.533842    -1.798741     0.135088 

 

Dipole moment calculation done in   1.7 sec 

Maximum memory used throughout the entire PROP-calculation: 9.9 MB

--------------------------------
SUGGESTED CITATIONS FOR THIS RUN
--------------------------------

Below you find a list of papers that are relevant to this ORCA run
We neither can nor want to force you to cite these papers, but we appreciate if you do
You receive ORCA, which is the product of decades of hard work by many enthusiastic individuals, for free
The only thing we kindly ask in return is that you cite our papers,
We deeply appreciate it, if you show your appreciation for ORCA by not just citing the generic ORCA reference.

Please note that relegating all ORCA citations to the supporting information does *not* help us.
SI sections are not indexed - citations you put there will not count into any citation statistics
But we need these citations in order to attract the funding resources that allow us to do what we are doing

Therefore, if you are a happy ORCA user, please consider citing a few of the papers listed below in the main body of your paper

In addition to the list printed below, the program has created the file sp.bibtex that contains the list in bibtex format
You can import this file easily into all common literature databanks and citation aid programs


List of essential papers. We consider these as the minimum necessary citations

  1. Neese,F.
     Software update: the ORCA program system, version 5.0
     WIRES Comput. Molec. Sci., 2022 12(1)e1606
     doi.org/10.1002/wcms.1606
  2. Grimme,S.; Hansen,A.; Ehlert,S.; Mewes,J.
     r2SCAN-3c: A 'Swiss army knife' composite electronic-structure method
     J. Chem. Phys., 2021 154 064103
     doi.org/10.1063/5.0040021

List of papers to cite with high priority. The work reported in these papers was absolutely
necessary for this run to complete.
Our perspective: the developers of density functionals and basis sets usually get cited in chemistry papers
Good! But without the algorithms to do something with them, the functionals or basis sets would not do anything.
Hence, in our opinion, the algorithm design and method developments papers are equally worthy of getting cited

  1. Neese,F.
     An improvement of the resolution of the identity approximation for the formation of the Coulomb matrix
     J. Comp. Chem., 2003 24(14)1740-1747
     doi.org/10.1002/jcc.10318
  2. Neese,F.
     The SHARK Integral Generation and Digestion System
     J. Comp. Chem., 2022  1-16
     doi.org/10.1002/jcc.26942
  3. Lehtola,S.; Steigemann,C.; Oliveira,M.; Marques,M.
     Recent developments in Libxc - A comprehensive library of functionals for density functional theory
     Software X, 2018 7 
     doi.org/10.1016/j.softx.2017.11.002
  4. Caldeweyher,E.; Bannwarth,C.; Grimme,S.
     Extension of the D3 dispersion coefficient model
     J. Chem. Phys., 2017 147 034112
     doi.org/10.1063/1.4993215
  5. Caldeweyher,E.; Ehlert,S.; Hansen,A.; Neugebauer,H.; Spicher,S.; Bannwarth,C.; Grimme,S.
     A generally applicable atomic-charge dependent London dispersion correction
     J. Chem. Phys., 2019 150 154122
     doi.org/10.1063/1.5090222
  6. Caldeweyher,E.; Mewes,J.; Ehlert,S.; Grimme,S.
     Extension and evaluation of the D4 London-dispersion model for periodic systems
     Phys. Chem. Chem. Phys., 2020 22(16)8499-8512
     doi.org/10.1039/D0CP00502A
  7. Wittmann,L.; Gordiy,I.; Friede,M.; Helmich-Paris,B.; Grimme,S.; Hansen,A.; Bursch,M.
     Extension of the D3 and D4 London Dispersion Corrections to the full Actinides Series
     Phys. Chem. Chem. Phys., 2024 26(32)21379-21394
     doi.org/https://doi.org/10.1039/D4CP01514B 

List of suggested additional citations. These are papers that are important in the 'surrounding' of 
of this run, or papers that preceded the highly important papers. If you like your results we are grateful for a citation.

  1. Neese,F.
     The ORCA program system
     WIRES Comput. Molec. Sci., 2012 2(1)73-78
     doi.org/10.1002/wcms.81
  2. Neese,F.
     Software update: the ORCA program system, version 4.0
     WIRES Comput. Molec. Sci., 2018 8(1)1-6
     doi.org/10.1002/wcms.1327
  3. Neese,F.; Wennmohs,F.; Becker,U.; Riplinger,C.
     The ORCA quantum chemistry program package
     J. Chem. Phys., 2020 152 Art. No. L224108
     doi.org/10.1063/5.0004608

List of optional additional citations

  1. Neese,F.
     Approximate second-order SCF convergence for spin unrestricted wavefunctions
     Chem. Phys. Lett., 2000 325(1-3)93-98
     doi.org/10.1016/s0009-2614(00)00662-x

Timings for individual modules:

Sum of individual times          ...       20.314 sec (=   0.339 min)
Startup calculation              ...        0.630 sec (=   0.010 min)   3.1 %
SCF iterations                   ...       17.864 sec (=   0.298 min)  87.9 %
Property calculations            ...        1.820 sec (=   0.030 min)   9.0 %
                             ****ORCA TERMINATED NORMALLY****
TOTAL RUN TIME: 0 days 0 hours 0 minutes 27 seconds 69 msec
