
                                 *****************
                                 * O   R   C   A *
                                 *****************

                                            #,                                       
                                            ###                                      
                                            ####                                     
                                            #####                                    
                                            ######                                   
                                           ########,                                 
                                     ,,################,,,,,                         
                               ,,#################################,,                 
                          ,,##########################################,,             
                       ,#########################################, ''#####,          
                    ,#############################################,,   '####,        
                  ,##################################################,,,,####,       
                ,###########''''           ''''###############################       
              ,#####''   ,,,,##########,,,,          '''####'''          '####       
            ,##' ,,,,###########################,,,                        '##       
           ' ,,###''''                  '''############,,,                           
         ,,##''                                '''############,,,,        ,,,,,,###''
      ,#''                                            '''#######################'''  
     '                                                          ''''####''''         
             ,#######,   #######,   ,#######,      ##                                
            ,#'     '#,  ##    ##  ,#'     '#,    #''#        ,####,   ,####,        
            ##       ##  ##   ,#'  ##            #'  '#       #'       #'  '#        
            ##       ##  #######   ##           ,######,      #####,   #    #        
            '#,     ,#'  ##    ##  '#,     ,#' ,#      #,     #,   #   #,  ,#        
             '#######'   ##     ##  '#######'  #'      '#     '####' # '####'        



                #########################################################
                #                        -***-                          #
                #          Department of theory and spectroscopy        #
                #                                                       #
                #                      Frank Neese                      #
                #                                                       #
                #     Directorship, Architecture, Infrastructure        #
                #                    SHARK, DRIVERS                     #
                #        Core code/Algorithms in most modules           #
                #                                                       #
                #        Max Planck Institute fuer Kohlenforschung      #
                #                Kaiser Wilhelm Platz 1                 #
                #                 D-45470 Muelheim/Ruhr                 #
                #                      Germany                          #
                #                                                       #
                #                  All rights reserved                  #
                #                        -***-                          #
                #########################################################


                         Program Version 6.0.1  -  RELEASE   -


 With contributions from (in alphabetic order):
[Max-Planck-Institut fuer Kohlenforschung]                               
  Daniel Aravena         : Magnetic Suceptibility                        
  Michael Atanasov       : Ab Initio Ligand Field Theory (pilot matlab implementation)
  Alexander A. Auer      : GIAO ZORA, VPT2 properties, NMR spectrum      
  Ute Becker             : All parallelization in ORCA, NUMFREQ, NUMCALC 
  Giovanni Bistoni       : ED, misc. LED, open-shell LED, HFLD           
  Martin Brehm           : Molecular dynamics                            
  Dmytro Bykov           : pre 5.0 version of the SCF Hessian            
  Marcos Casanova-Páez   : Triplet and SCS-CIS(D). UHF-(DLPNO)-IP/EA/STEOM-CCSD. UHF-CVS-IP/STEOM-CCSD   
  Vijay G. Chilkuri      : MRCI spin determinant printing, contributions to CSF-ICE 
  Pauline Colinet        : FMM embedding                                 
  Dipayan Datta          : RHF DLPNO-CCSD density                        
  Achintya Kumar Dutta   : EOM-CC, STEOM-CC                              
  Nicolas Foglia         : Exact transition moments, OPA infrastructure, MCD improvements    
  Dmitry Ganyushin       : Spin-Orbit,Spin-Spin,Magnetic field MRCI      
  Miquel Garcia-Rates    : C-PCM and meta-GGA Hessian, CCSD/C-PCM, Gaussian charge scheme 
  Tiago L. C. Gouveia    : GS-ROHF, GS-ROCIS                             
  Yang Guo               : DLPNO-NEVPT2, F12-NEVPT2, CIM, IAO-localization        
  Andreas Hansen         : Spin unrestricted coupled pair/coupled cluster methods 
  Ingolf Harden          : AUTO-CI MPn and infrastructure                
  Benjamin Helmich-Paris : MC-RPA, TRAH-(SCF,CASSCF), AVAS, COSX integrals, SCF dyn. polar. 
  Lee Huntington         : MR-EOM, pCC                                   
  Robert Izsak           : Overlap fitted RIJCOSX, COSX-SCS-MP3, EOM     
  Riya Kayal             : Wick's Theorem for AUTO-CI, AUTO-CI UHF-CCSDT 
  Emily Kempfer          : AUTO-CI, RHF CISDT and CCSDT                  
  Christian Kollmar      : KDIIS, OOCD, Brueckner-CCSD(T), CCSD density, CASPT2, CASPT2-K, improved NEVPT2 
  Axel Koslowski         : Symmetry handling                             
  Simone Kossmann        : meta-GGA functionals, TD-DFT gradient, OOMP2, (MP2 Hessian; deprecated post 5.0) 
  Lucas Lang             : DCDCAS                                        
  Marvin Lechner         : AUTO-CI (C++ implementation), FIC-MRCC        
  Spencer Leger          : CASSCF response                               
  Dagmar Lenk            : GEPOL surface, SMD, ORCA-2-JSON               
  Dimitrios Liakos       : Extrapolation schemes; Compound Job, initial MDCI parallelization 
  Dimitrios Manganas     : Further ROCIS development; embedding schemes. LFT, Crystal Embedding 
  Dimitrios Pantazis     : SARC Basis sets                               
  Anastasios Papadopoulos: AUTO-CI, single reference methods and gradients 
  Taras Petrenko         : pre 6.0 DFT Hessian and TD-DFT gradient, (ASA, deprecated), ECA, 1-Electron XAS/XES, NRVS 
  Peter Pinski           : DLPNO-MP2, DLPNO-MP2 Gradient                 
  Christoph Reimann      : Effective Core Potentials                     
  Marius Retegan         : Local ZFS, SOC                                
  Christoph Riplinger    : Optimizer, TS searches, QM/MM, DLPNO-CCSD(T), (RO)-DLPNO pert. Triples 
  Michael Roemelt        : Original ROCIS implementation                 
  Masaaki Saitow         : Open-shell DLPNO-CCSD energy and density      
  Barbara Sandhoefer     : DKH picture change effects                    
  Kantharuban Sivalingam : CASSCF convergence/infrastructure, NEVPT2 and variants, FIC-MRCI 
  Bernardo de Souza      : ESD, SOC TD-DFT                               
  Georgi L. Stoychev     : AutoAux, RI-MP2 NMR, DLPNO-MP2 response, X2C  
  Van Anh Tran           : RI-MP2 g-tensors                              
  Willem Van den Heuvel  : Paramagnetic NMR                              
  Zikuan Wang            : NOTCH, Electric field optimization            
  Frank Wennmohs         : Technical directorship and infrastructure     
  Hang Xu                : AUTO-CI-Response properties                   
                                                                         
[FACCTs GmbH]                                                            
  Markus Bursch, Miquel Garcia-Rates, Christoph Riplinger, Bernardo de Souza, Georgi L. Stoychev 
                                                                 
  APM, Basis sets (HGBS, AHGBS, def-TZVP (Ac-Lr), def2-XVPD (La-Lu)), CI-OPT, improved COSX, DLPNO-Multilevel,           
  DOCKER, DRACO, updates on ESD, GOAT, IRC, LR-CPCM, MBIS, meta-GGA TD-DFT gradient, ML-optimized integration grids, 
  MM, NACMEs, nearIR, NEB, NEB-TS, NL-DFT gradient (VV10), 2- and 3-layer-ONIOM, interface openCOSMO-RS, QMMM,   
  Crystal-QMMM, SF, symmetry and pop. for TD-DFT, r2SCAN hybrids, SOLVATOR                                   
                                                                         
[Other institutions]                                                     
  V. Asgeirsson          : NEB                                           
  Christoph Bannwarth    : sTDA-DFT, sTD-DFT, PBEh-3c, B97-3c, D3        
  Sebastian Ehlert       : rSCAN, r2SCAN, r2SCAN-3c, D4, dhf basis sets  
  Marvin Friede          : D4 for Fr, Ra, Ac-Lr                          
  Lars Goerigk           : TD-DFT with DH, B97 family of functionals     
  Stefan Grimme          : VdW corrections, initial TS optimization, DFT functionals, gCP, sTDA/sTD-DF 
  Waldemar Hujo          : DFT-NL                                        
  H. Jonsson             : NEB                                           
  Holger Kruse           : gCP                                           
  Marcel Mueller         : wB97X-3c, vDZP basis set                      
  Hagen Neugebauer       : wr2SCAN                                       
  Tobias Risthaus        : range-separated hybrid DFT                    
  Lukas Wittmann         : regularized MP2, r2SCAN double-hybrids, wr2SCAN        
                                                                         
We gratefully acknowledge several colleagues who have allowed us to      
interface, adapt or use parts of their codes:                            
  Ed Valeev, F. Pavosevic, A. Kumar             : LibInt (2-el integral package), F12 methods 
  Garnet Chan, S. Sharma, J. Yang, R. Olivares  : DMRG                   
  Ulf Ekstrom                                   : XCFun DFT Library      
  Mihaly Kallay                                 : mrcc  (arbitrary order and MRCC methods)
  Frank Weinhold                                : gennbo (NPA and NBO analysis)           
  Simon Mueller                                 : openCOSMO-RS                            
  Christopher J. Cramer and Donald G. Truhlar   : smd solvation model                     
  S Lehtola, MJT Oliveira, MAL Marques          : LibXC Library                           
  Liviu Ungur et al                             : ANISO software                          


 Your calculation uses the libint2 library for the computation of 2-el integrals
 For citations please refer to: http://libint.valeyev.net

 Your ORCA version has been built with support for libXC version: 6.2.2
 For citations please refer to: https://libxc.gitlab.io

 This ORCA versions uses:
   CBLAS   interface :  Fast vector & matrix operations
   LAPACKE interface :  Fast linear algebra routines
   SCALAPACK package :  Parallel linear algebra routines
   Shared memory     :  Shared parallel matrices
   BLAS/LAPACK       :  OpenBLAS 0.3.27  USE64BITINT DYNAMIC_ARCH NO_AFFINITY Zen SINGLE_THREADED
        Core in use  :  Zen
   Copyright (c) 2011-2014, The OpenBLAS Project


Your calculation utilizes the geometrical counterpoise correction gCP
Please cite in your paper:
H.Kruse, S. Grimme J.Chem.Phys., 136, (2012), 154101 
   

Your calculation utilizes the atom-pairwise dispersion correction
based on EEQ partial charges (D4)


================================================================================

----- Orbital basis set information -----
Your calculation utilizes the basis: def2-mTZVPP
   Stefan Grimme, Andreas Hansen, Sebastian Ehlert, and Jan-Michael Mewes 
   J. Chem. Phys. 154, 064103 (2021). DOI: 10.1063/5.0040021

----- AuxJ basis set information -----
Your calculation utilizes the auxiliary basis: def2/J
   F. Weigend, Phys. Chem. Chem. Phys. 8, 1057 (2006).

================================================================================
                                        WARNINGS
                       Please study these warnings very carefully!
================================================================================



WARNING: SCAN, rSCAN, or r2SCAN functional requested.
  ===> : libXC variant has now been activated.



================================================================================
                                       INPUT FILE
================================================================================
NAME = sp.inp
|  1> ! r2scan-3c def2/J RI DEFGRID2 scfconv6 printgap
|  2> %output
|  3>     printlevel normal
|  4> end
|  5> * xyz 0 1
|  6> C -2.5306814032 0.8715419312 0.8810979568
|  7> C -1.4505620965 0.3638679874 -0.0778270474
|  8> C -1.9734587849 -0.8750257204 -0.8011552287
|  9> C -0.1671933614 0.1104833257 0.7273982535
| 10> C 1.1755825826 -0.0676498611 -0.0132975704
| 11> C 1.3205756896 -1.4587658066 -0.6353400562
| 12> C 1.3653950168 0.9981449147 -1.0943338334
| 13> C 2.2878016556 0.0944587132 1.0328825851
| 14> H -2.7405079794 0.125330867 1.6448442636
| 15> H -2.2133436279 1.787447021 1.3750529324
| 16> H -3.4533943657 1.0785550314 0.3432508881
| 17> H -1.2649450223 1.1496205609 -0.8156099357
| 18> H -2.969738808 -0.683207062 -1.1955445851
| 19> H -1.3367847693 -1.1517898598 -1.6354306827
| 20> H -2.0345506932 -1.7188353191 -0.1172677782
| 21> H -0.0440380977 0.9686540939 1.393947515
| 22> H -0.3271697959 -0.7651480554 1.3620068089
| 23> H 1.1110864973 -2.2324713195 0.0997970765
| 24> H 2.3379282611 -1.5990620853 -0.9962097875
| 25> H 0.6497662335 -1.5935673091 -1.4773345911
| 26> H 0.6776373815 0.8452109278 -1.9219633749
| 27> H 2.3787055193 0.9531346602 -1.4880282405
| 28> H 1.2023674836 1.9927369868 -0.6850466537
| 29> H 3.2647911331 -0.0614621808 0.5804097656
| 30> H 2.1649226144 -0.6292021549 1.8359361903
| 31> H 2.2700395056 1.0924702985 1.4657045387
| 32> *
| 33> 
| 34>                          ****END OF INPUT****
================================================================================

                       ****************************
                       * Single Point Calculation *
                       ****************************

---------------------------------
CARTESIAN COORDINATES (ANGSTROEM)
---------------------------------
  C     -2.530681    0.871542    0.881098
  C     -1.450562    0.363868   -0.077827
  C     -1.973459   -0.875026   -0.801155
  C     -0.167193    0.110483    0.727398
  C      1.175583   -0.067650   -0.013298
  C      1.320576   -1.458766   -0.635340
  C      1.365395    0.998145   -1.094334
  C      2.287802    0.094459    1.032883
  H     -2.740508    0.125331    1.644844
  H     -2.213344    1.787447    1.375053
  H     -3.453394    1.078555    0.343251
  H     -1.264945    1.149621   -0.815610
  H     -2.969739   -0.683207   -1.195545
  H     -1.336785   -1.151790   -1.635431
  H     -2.034551   -1.718835   -0.117268
  H     -0.044038    0.968654    1.393948
  H     -0.327170   -0.765148    1.362007
  H      1.111086   -2.232471    0.099797
  H      2.337928   -1.599062   -0.996210
  H      0.649766   -1.593567   -1.477335
  H      0.677637    0.845211   -1.921963
  H      2.378706    0.953135   -1.488028
  H      1.202367    1.992737   -0.685047
  H      3.264791   -0.061462    0.580410
  H      2.164923   -0.629202    1.835936
  H      2.270040    1.092470    1.465705

----------------------------
CARTESIAN COORDINATES (A.U.)
----------------------------
  NO LB      ZA    FRAG     MASS         X           Y           Z
   0 C     6.0000    0    12.011   -4.782295    1.646976    1.665034
   1 C     6.0000    0    12.011   -2.741165    0.687611   -0.147072
   2 C     6.0000    0    12.011   -3.729297   -1.653559   -1.513964
   3 C     6.0000    0    12.011   -0.315950    0.208783    1.374583
   4 C     6.0000    0    12.011    2.221529   -0.127840   -0.025129
   5 C     6.0000    0    12.011    2.495526   -2.756668   -1.200619
   6 C     6.0000    0    12.011    2.580223    1.886221   -2.067991
   7 C     6.0000    0    12.011    4.323319    0.178501    1.951865
   8 H     1.0000    0     1.008   -5.178810    0.236841    3.108305
   9 H     1.0000    0     1.008   -4.182613    3.377785    2.598473
  10 H     1.0000    0     1.008   -6.525970    2.038174    0.648650
  11 H     1.0000    0     1.008   -2.390400    2.172468   -1.541279
  12 H     1.0000    0     1.008   -5.611993   -1.291074   -2.259252
  13 H     1.0000    0     1.008   -2.526157   -2.176567   -3.090516
  14 H     1.0000    0     1.008   -3.844744   -3.248128   -0.221604
  15 H     1.0000    0     1.008   -0.083220    1.830491    2.634179
  16 H     1.0000    0     1.008   -0.618261   -1.445920    2.573820
  17 H     1.0000    0     1.008    2.099649   -4.218759    0.188589
  18 H     1.0000    0     1.008    4.418044   -3.021789   -1.882564
  19 H     1.0000    0     1.008    1.227880   -3.011406   -2.791758
  20 H     1.0000    0     1.008    1.280549    1.597217   -3.631984
  21 H     1.0000    0     1.008    4.495102    1.801163   -2.811966
  22 H     1.0000    0     1.008    2.272145    3.765727   -1.294551
  23 H     1.0000    0     1.008    6.169561   -0.116147    1.096816
  24 H     1.0000    0     1.008    4.091111   -1.189020    3.469417
  25 H     1.0000    0     1.008    4.289753    2.064470    2.769780

--------------------------------
INTERNAL COORDINATES (ANGSTROEM)
--------------------------------
 C      0   0   0     0.000000000000     0.00000000     0.00000000
 C      1   0   0     1.530989129158     0.00000000     0.00000000
 C      2   1   0     1.526919193615   108.91450941     0.00000000
 C      2   1   3     1.536107705282   108.40886752   235.92050216
 C      4   2   1     1.543829320737   119.61691226   195.11444232
 C      5   4   2     1.530739503979   112.47070993   282.42600332
 C      5   4   2     1.529897599913   111.50265070    45.90774168
 C      5   4   2     1.535514042257   106.91395599   164.40111780
 H      1   2   3     1.088194176406   110.38002356    62.98330578
 H      1   2   3     1.087923211938   110.96268282   183.11921882
 H      1   2   3     1.087903076625   110.59868160   303.15567387
 H      2   1   3     1.093702151074   107.69906479   117.77886219
 H      3   2   1     1.088536286295   110.00394267    48.57920773
 H      3   2   1     1.085342215223   111.72479145   168.08696110
 H      3   2   1     1.087864378068   110.53451884   289.09922130
 H      4   2   1     1.093577708431   106.50798850   315.80702850
 H      4   2   1     1.093183787727   108.31058230    70.51610975
 H      6   5   4     1.087627025343   110.70596381   309.07650179
 H      6   5   4     1.088538590737   109.89963083   189.60348444
 H      6   5   4     1.084947726055   111.69825327    70.08925716
 H      7   5   4     1.086908472332   111.19356226   290.32479072
 H      7   5   4     1.088034642679   110.02361817   170.79585913
 H      7   5   4     1.087799320616   110.64008181    51.19998269
 H      8   5   4     1.087911493053   110.60840839   177.65277775
 H      8   5   4     1.087970313754   110.54044554    57.77819242
 H      8   5   4     1.087969421392   110.85877085   297.62161604

---------------------------
INTERNAL COORDINATES (A.U.)
---------------------------
 C      0   0   0     0.000000000000     0.00000000     0.00000000
 C      1   0   0     2.893150168119     0.00000000     0.00000000
 C      2   1   0     2.885459104560   108.91450941     0.00000000
 C      2   1   3     2.902822875189   108.40886752   235.92050216
 C      4   2   1     2.917414613711   119.61691226   195.11444232
 C      5   4   2     2.892678444895   112.47070993   282.42600332
 C      5   4   2     2.891087476780   111.50265070    45.90774168
 C      5   4   2     2.901701014656   106.91395599   164.40111780
 H      1   2   3     2.056388973936   110.38002356    62.98330578
 H      1   2   3     2.055876925299   110.96268282   183.11921882
 H      1   2   3     2.055838875071   110.59868160   303.15567387
 H      2   1   3     2.066797537611   107.69906479   117.77886219
 H      3   2   1     2.057035467933   110.00394267    48.57920773
 H      3   2   1     2.050999548355   111.72479145   168.08696110
 H      3   2   1     2.055765745397   110.53451884   289.09922130
 H      4   2   1     2.066562375095   106.50798850   315.80702850
 H      4   2   1     2.065817972847   108.31058230    70.51610975
 H      6   5   4     2.055317213750   110.70596381   309.07650179
 H      6   5   4     2.057039822697   109.89963083   189.60348444
 H      6   5   4     2.050254071864   111.69825327    70.08925716
 H      7   5   4     2.053959345345   111.19356226   290.32479072
 H      7   5   4     2.056087498881   110.02361817   170.79585913
 H      7   5   4     2.055642804629   110.64008181    51.19998269
 H      8   5   4     2.055854779816   110.60840839   177.65277775
 H      8   5   4     2.055965934832   110.54044554    57.77819242
 H      8   5   4     2.055964248511   110.85877085   297.62161604

---------------------
BASIS SET INFORMATION
---------------------
There are 2 groups of distinct atoms

 Group   1 Type C   : 11s6p1d contracted to 5s3p1d pattern {62111/411/1}
 Group   2 Type H   : 4s1p contracted to 2s1p pattern {31/1}

Atom   0C    basis set group =>   1
Atom   1C    basis set group =>   1
Atom   2C    basis set group =>   1
Atom   3C    basis set group =>   1
Atom   4C    basis set group =>   1
Atom   5C    basis set group =>   1
Atom   6C    basis set group =>   1
Atom   7C    basis set group =>   1
Atom   8H    basis set group =>   2
Atom   9H    basis set group =>   2
Atom  10H    basis set group =>   2
Atom  11H    basis set group =>   2
Atom  12H    basis set group =>   2
Atom  13H    basis set group =>   2
Atom  14H    basis set group =>   2
Atom  15H    basis set group =>   2
Atom  16H    basis set group =>   2
Atom  17H    basis set group =>   2
Atom  18H    basis set group =>   2
Atom  19H    basis set group =>   2
Atom  20H    basis set group =>   2
Atom  21H    basis set group =>   2
Atom  22H    basis set group =>   2
Atom  23H    basis set group =>   2
Atom  24H    basis set group =>   2
Atom  25H    basis set group =>   2
---------------------------------
AUXILIARY/J BASIS SET INFORMATION
---------------------------------
There are 2 groups of distinct atoms

 Group   1 Type C   : 12s5p4d2f1g contracted to 6s4p3d1f1g pattern {711111/2111/211/2/1}
 Group   2 Type H   : 5s2p1d contracted to 3s1p1d pattern {311/2/1}

Atom   0C    basis set group =>   1
Atom   1C    basis set group =>   1
Atom   2C    basis set group =>   1
Atom   3C    basis set group =>   1
Atom   4C    basis set group =>   1
Atom   5C    basis set group =>   1
Atom   6C    basis set group =>   1
Atom   7C    basis set group =>   1
Atom   8H    basis set group =>   2
Atom   9H    basis set group =>   2
Atom  10H    basis set group =>   2
Atom  11H    basis set group =>   2
Atom  12H    basis set group =>   2
Atom  13H    basis set group =>   2
Atom  14H    basis set group =>   2
Atom  15H    basis set group =>   2
Atom  16H    basis set group =>   2
Atom  17H    basis set group =>   2
Atom  18H    basis set group =>   2
Atom  19H    basis set group =>   2
Atom  20H    basis set group =>   2
Atom  21H    basis set group =>   2
Atom  22H    basis set group =>   2
Atom  23H    basis set group =>   2
Atom  24H    basis set group =>   2
Atom  25H    basis set group =>   2

Checking for AutoStart:
The File: sp.gbw exists
Trying to determine its content:
     ... Fine, the file contains calculation information
     ... Fine, the calculation information was read
     ... Fine, the file contains a basis set
     ... Fine, the basis set was read
     ... Fine, the file contains a geometry
     ... Fine, the geometry was read
     ... Fine, the file contains a set of orbitals
     ... Fine, the orbitals can be read
     => possible old guess file was deleted
     => GBW file was renamed to GES file
     => GES file is set as startup file
     => Guess is set to MORead
     ... now leaving AutoStart

------------------------------------------------------------------------------
                             ORCA STARTUP CALCULATIONS
                           -- RI-GTO INTEGRALS CHOSEN --
------------------------------------------------------------------------------
------------------------------------------------------------------------------
                   ___                                                        
                  /   \      - P O W E R E D   B Y -                         
                 /     \                                                     
                 |  |  |   _    _      __       _____    __    __             
                 |  |  |  | |  | |    /  \     |  _  \  |  |  /  |          
                  \  \/   | |  | |   /    \    | | | |  |  | /  /          
                 / \  \   | |__| |  /  /\  \   | |_| |  |  |/  /          
                |  |  |   |  __  | /  /__\  \  |    /   |      \           
                |  |  |   | |  | | |   __   |  |    \   |  |\   \          
                \     /   | |  | | |  |  |  |  | |\  \  |  | \   \       
                 \___/    |_|  |_| |__|  |__|  |_| \__\ |__|  \__/        
                                                                              
                      - O R C A' S   B I G   F R I E N D -                    
                                      &                                       
                       - I N T E G R A L  F E E D E R -                       
                                                                              
 v1 FN, 2020, v2 2021, v3 2022-2024                                           
------------------------------------------------------------------------------


----------------------
SHARK INTEGRAL PACKAGE
----------------------

Number of atoms                             ...     26
Number of basis functions                   ...    242
Number of shells                            ...    126
Maximum angular momentum                    ...      2
Integral batch strategy                     ... SHARK/LIBINT Hybrid
RI-J (if used) integral strategy            ... SPLIT-RIJ (Revised 2003 algorithm where possible)
Printlevel                                  ...      1
Contraction scheme used                     ... SEGMENTED contraction
Prescreening option                         ... SCHWARTZ
   Thresh                                   ... 1.000e-10
   Tcut                                     ... 1.000e-11
   Tpresel                                  ... 1.000e-11 
Coulomb Range Separation                    ... NOT USED
Exchange Range Separation                   ... NOT USED
Multipole approximations                    ... NOT USED
Finite Nucleus Model                        ... NOT USED
CABS basis                                  ... NOT available
Auxiliary Coulomb fitting basis             ... AVAILABLE
   # of basis functions in Aux-J            ...    590
   # of shells in Aux-J                     ...    210
   Maximum angular momentum in Aux-J        ...      4
Auxiliary J/K fitting basis                 ... NOT available
Auxiliary Correlation fitting basis         ... NOT available
Auxiliary 'external' fitting basis          ... NOT available

Checking pre-screening integrals            ... done (  0.0 sec) Dimension = 126
Check shell pair data                       ... done (  0.0 sec)
Shell pair information
Shell pair cut-off parameter TPreSel        ...   1.0e-11
Total number of shell pairs                 ...      8001
Shell pairs after pre-screening             ...      7213
Total number of primitive shell pairs       ...     27725
Primitive shell pairs kept                  ...     17798
          la=0 lb=0:   2643 shell pairs
          la=1 lb=0:   2875 shell pairs
          la=1 lb=1:    809 shell pairs
          la=2 lb=0:    550 shell pairs
          la=2 lb=1:    303 shell pairs
          la=2 lb=2:     33 shell pairs

Calculating one electron integrals          ... done (  0.0 sec)
Calculating RI/J V-Matrix + Cholesky decomp.... done (  0.0 sec)
Calculating Nuclear repulsion               ... done (  0.0 sec) ENN=    420.887568606187 Eh

Diagonalization of the overlap matrix:
Smallest eigenvalue                        ... 1.288e-04
Time for diagonalization                   ...    0.005 sec
Threshold for overlap eigenvalues          ... 1.000e-07
Number of eigenvalues below threshold      ... 0
Time for construction of square roots      ...    0.004 sec
Total time needed                          ...    0.011 sec

-------------------
DFT GRID GENERATION
-------------------

General Integration Accuracy     IntAcc      ... 4.388
Radial Grid Type                 RadialGrid  ... OptM3 with GC (2021)
Angular Grid (max. ang.)         AngularGrid ... 4 (Lebedev-302)
Angular grid pruning method      GridPruning ... 4 (adaptive)
Weight generation scheme         WeightScheme... mBecke (2022)
Basis function cutoff            BFCut       ... 1.0000e-10
Integration weight cutoff        WCut        ... 1.0000e-14
Partially contracted basis set               ... off
Rotationally invariant grid construction     ... off
Angular grids for H and He will be reduced by one unit

Total number of grid points                  ...   104944
Total number of batches                      ...     1651
Average number of points per batch           ...       63
Average number of grid points per atom       ...     4036
Initializing property integral containers    ... done (  0.0 sec)

SHARK setup successfully completed in   1.1 seconds

Maximum memory used throughout the entire STARTUP-calculation: 46.3 MB
-------------------------------------------------------------------------------
                                 ORCA GUESS
                   Start orbitals & Density for SCF / CASSCF
-------------------------------------------------------------------------------

------------
SCF SETTINGS
------------
Hamiltonian:
 Density Functional     Method          .... DFT(GTOs)
  Functional kind                       .... Exchange
  Functional name                       .... Re-regularized SCAN exchange by Furness et al
  Functional family                     .... MGGA
  Functional refs                              
    [ 0] J. W. Furness, A. D. Kaplan, J. Ning, J. P. Perdew, and J. Sun.,  J. Phys. Chem. Lett. 11, 8208-8215 (2020), doi: 10.1021/acs.jpclett.0c02405
    [ 1] J. W. Furness, A. D. Kaplan, J. Ning, J. P. Perdew, and J. Sun.,  J. Phys. Chem. Lett. 11, 9248-9248 (2020), doi: 10.1021/acs.jpclett.0c03077
  Functional external parameters        .... 6
    Parameter  0 _c1        =  6.670000e-01 : c1 parameter        
    Parameter  1 _c2        =  8.000000e-01 : c2 parameter        
    Parameter  2 _d         =  1.240000e+00 : d parameter         
    Parameter  3 _k1        =  6.500000e-02 : k1 parameter        
    Parameter  4 _eta       =  1.000000e-03 : eta parameter       
    Parameter  5 _dp2       =  3.610000e-01 : dp2 parameter       
  Functional kind                       .... Correlation
  Functional name                       .... Re-regularized SCAN correlation by Furness et al
  Functional family                     .... MGGA
  Functional refs                              
    [ 0] J. W. Furness, A. D. Kaplan, J. Ning, J. P. Perdew, and J. Sun.,  J. Phys. Chem. Lett. 11, 8208-8215 (2020), doi: 10.1021/acs.jpclett.0c02405
    [ 1] J. W. Furness, A. D. Kaplan, J. Ning, J. P. Perdew, and J. Sun.,  J. Phys. Chem. Lett. 11, 9248-9248 (2020), doi: 10.1021/acs.jpclett.0c03077
  Functional external parameters        .... 1
    Parameter  0 _eta       =  1.000000e-03 : Regularization parameter
 Gradients option       PostSCFGGA      .... off
 RI-approximation to the Coulomb term is turned on
   Number of AuxJ basis functions       .... 590


General Settings:
 Integral files         IntName         .... sp
 Hartree-Fock type      HFTyp           .... RHF
 Total Charge           Charge          ....    0
 Multiplicity           Mult            ....    1
 Number of Electrons    NEL             ....   66
 Basis Dimension        Dim             ....  242
 Nuclear Repulsion      ENuc            ....    420.8875686062 Eh

Convergence Acceleration:
 AO-DIIS                CNVDIIS         .... on
   Start iteration      DIISMaxIt       ....    12
   Startup error        DIISStart       ....  0.200000
   # of expansion vecs  DIISMaxEq       ....     5
   Bias factor          DIISBfac        ....   1.050
   Max. coefficient     DIISMaxC        ....  10.000
 MO-DIIS                CNVKDIIS        .... off
 Trust-Rad. Augm. Hess. CNVTRAH         .... auto
   Auto Start mean grad. ratio tolernc. ....  1.125000
   Auto Start start iteration           ....     1
   Auto Start num. interpolation iter.  ....    10
   Max. Number of Micro iterations      ....    24
   Max. Number of Macro iterations      .... Maxiter - #DIIS iter
   Number of Davidson start vectors     ....     2
   Converg. threshold    (grad. norm)   ....   3.330e-04
   Grad. Scal. Fac. for Micro threshold ....   0.100
   Minimum threshold for Micro iter.    ....   1.000e-02
   NR start threshold (gradient norm)   ....   1.000e-04
   Initial trust radius                 ....   0.400
   Minimum AH scaling param. (alpha)    ....   1.000
   Maximum AH scaling param. (alpha)    .... 1000.000
   Quad. conv. algorithm                .... NR
   White noise on init. David. guess    .... on
   Maximum white noise                  ....   0.010
   Pseudo random numbers                .... off
   Inactive MOs                         .... canonical
   Orbital update algorithm             .... Taylor
   Preconditioner                       .... Diag
   Full preconditioner red. dimension   ....   250
   COSX micro iterations for RIJONX calc.... off
 SOSCF                  CNVSOSCF        .... on
   Start iteration      SOSCFMaxIt      ....   150
   Startup grad/error   SOSCFStart      ....  0.003300
   Hessian update       SOSCFHessUp     .... L-BFGS
 Level Shifting         CNVShift        .... on
   Level shift para.    LevelShift      ....    0.2500
   Turn off err/grad.   ShiftErr        ....    0.0010
 Zerner damping         CNVZerner       .... off
 Static damping         CNVDamp         .... on
   Fraction old density DampFac         ....    0.7000
   Max. Damping (<1)    DampMax         ....    0.9800
   Min. Damping (>=0)   DampMin         ....    0.0000
   Turn off err/grad.   DampErr         ....    0.1000

SCF Procedure:
 Maximum # iterations   MaxIter         ....   125
 SCF integral mode      SCFMode         .... Direct
   Integral package                     .... SHARK and LIBINT hybrid scheme
 Reset frequency        DirectResetFreq ....    20
 Integral Threshold     Thresh          ....  1.000e-10 Eh
 Primitive CutOff       TCut            ....  1.000e-11 Eh

Convergence Tolerance:
 Convergence Check Mode ConvCheckMode   .... Total+1el-Energy
 Convergence forced     ConvForced      .... 0
 Energy Change          TolE            ....  1.000e-06 Eh
 1-El. energy change                    ....  1.000e-03 Eh
 Orbital Gradient       TolG            ....  3.330e-04
 Orbital Rotation angle TolX            ....  3.330e-04
 DIIS Error             TolErr          ....  1.000e-06

---------------------
INITIAL GUESS: MOREAD
---------------------
Guess MOs are being read from file: sp.ges
Input Geometry matches current geometry (good)
Atom 0: N(Shells)= 9 and 6 - projection required
Input basis set needs projection
NBasis(read)= 148
NBasis(calc)= 242
Basis set overlap was calculated
Using GuessMode=FMatrix for the initial guess
C*T matrix was formed
Effective Fockian was calculated
Effective Fockian was diagonalized
Initial density was built
                      ------------------
                      INITIAL GUESS DONE (   0.0 sec)
                      ------------------
             **** ENERGY FILE WAS UPDATED (sp.en.tmp) ****
Finished Guess after   0.1 sec
Maximum memory used throughout the entire GUESS-calculation: 18.9 MB

-------------------------------------------------------------------------------------------
                                      ORCA LEAN-SCF
                              memory conserving SCF solver
-------------------------------------------------------------------------------------------

----------------------------------------D-I-I-S--------------------------------------------
Iteration    Energy (Eh)           Delta-E    RMSDP     MaxDP     DIISErr   Damp  Time(sec)
-------------------------------------------------------------------------------------------
               ***  Starting incremental Fock matrix formation  ***
    1    -315.4188914744484578     0.00e+00  4.36e-03  2.25e-01  2.88e-01  0.700   2.3
    2    -315.4700231568502318    -5.11e-02  3.41e-03  1.50e-01  2.02e-01  0.700   2.0
                               ***Turning on AO-DIIS***
    3    -315.5062352526221616    -3.62e-02  2.49e-03  9.97e-02  1.42e-01  0.700   1.9
    4    -315.5316652635511332    -2.54e-02  1.77e-03  6.80e-02  9.90e-02  0.700   1.9
    5    -315.5495060388695379    -1.78e-02  4.18e-03  1.56e-01  6.93e-02  0.000   1.9
                              *** Initializing SOSCF ***
---------------------------------------S-O-S-C-F--------------------------------------
Iteration    Energy (Eh)           Delta-E    RMSDP     MaxDP     MaxGrad    Time(sec)
--------------------------------------------------------------------------------------
    6    -315.5912788437821632    -4.18e-02  5.24e-05  1.67e-03  2.04e-04     2.2
               *** Restarting incremental Fock matrix formation ***
    7    -315.5912797122528559    -8.68e-07  2.21e-05  5.43e-04  4.25e-05     2.3
                  *** Gradient check signals convergence ***

               *****************************************************
               *                     SUCCESS                       *
               *           SCF CONVERGED AFTER   7 CYCLES          *
               *****************************************************

             **** ENERGY FILE WAS UPDATED (sp.en.tmp) ****

----------------
TOTAL SCF ENERGY
----------------

Total Energy       :       -315.59127971225286 Eh           -8587.67531 eV

Components:
Nuclear Repulsion  :        420.88756860618713 Eh           11452.93300 eV
Electronic Energy  :       -736.47884831843999 Eh          -20040.60831 eV
One Electron Energy:      -1257.77101950990709 Eh          -34225.68944 eV
Two Electron Energy:        521.29217119146711 Eh           14185.08113 eV

Virial components:
Potential Energy   :       -629.68492786453567 Eh          -17134.59799 eV
Kinetic Energy     :        314.09364815228275 Eh            8546.92268 eV
Virial Ratio       :          2.00476810520932

DFT components:
N(Alpha)           :       33.000016944637 electrons
N(Beta)            :       33.000016944637 electrons
N(Total)           :       66.000033889274 electrons
E(X)               :      -48.059405659545 Eh       
E(C)               :       -2.032907041419 Eh       
E(XC)              :      -50.092312700964 Eh       

---------------
SCF CONVERGENCE
---------------

  Last Energy change         ...    8.6847e-07  Tolerance :   1.0000e-06
  Last MAX-Density change    ...    5.4266e-04  Tolerance :   1.0000e-05
  Last RMS-Density change    ...    2.2087e-05  Tolerance :   1.0000e-06
  Last DIIS Error            ...    2.0381e-04  Tolerance :   1.0000e-06
  Last Orbital Gradient      ...    4.2504e-05  Tolerance :   3.3300e-04
  Last Orbital Rotation      ...    8.8841e-05  Tolerance :   3.3300e-04


----------------
ORBITAL ENERGIES
----------------

  NO   OCC          E(Eh)            E(eV) 
   0   2.0000     -10.039329      -273.1840 
   1   2.0000     -10.029926      -272.9282 
   2   2.0000     -10.017585      -272.5924 
   3   2.0000     -10.012499      -272.4540 
   4   2.0000     -10.012314      -272.4489 
   5   2.0000     -10.012010      -272.4407 
   6   2.0000     -10.011436      -272.4250 
   7   2.0000     -10.010553      -272.4010 
   8   2.0000      -0.795225       -21.6392 
   9   2.0000      -0.752576       -20.4786 
  10   2.0000      -0.653841       -17.7919 
  11   2.0000      -0.650150       -17.6915 
  12   2.0000      -0.642739       -17.4898 
  13   2.0000      -0.639236       -17.3945 
  14   2.0000      -0.533775       -14.5247 
  15   2.0000      -0.494231       -13.4487 
  16   2.0000      -0.439216       -11.9517 
  17   2.0000      -0.421779       -11.4772 
  18   2.0000      -0.416043       -11.3211 
  19   2.0000      -0.399869       -10.8810 
  20   2.0000      -0.384074       -10.4512 
  21   2.0000      -0.372185       -10.1277 
  22   2.0000      -0.357920        -9.7395 
  23   2.0000      -0.353934        -9.6310 
  24   2.0000      -0.346243        -9.4217 
  25   2.0000      -0.331094        -9.0095 
  26   2.0000      -0.326511        -8.8848 
  27   2.0000      -0.316556        -8.6139 
  28   2.0000      -0.299302        -8.1444 
  29   2.0000      -0.296479        -8.0676 
  30   2.0000      -0.283072        -7.7028 
  31   2.0000      -0.276600        -7.5267 
  32   2.0000      -0.267036        -7.2664 
  33   0.0000       0.072669         1.9774 
  34   0.0000       0.100726         2.7409 
  35   0.0000       0.113295         3.0829 
  36   0.0000       0.120923         3.2905 
  37   0.0000       0.124752         3.3947 
  38   0.0000       0.128531         3.4975 
  39   0.0000       0.132266         3.5992 
  40   0.0000       0.135798         3.6953 
  41   0.0000       0.142052         3.8654 
  42   0.0000       0.152024         4.1368 
  43   0.0000       0.154701         4.2096 
*Only the first 10 virtual orbitals were printed.

                    ********************************
                    * MULLIKEN POPULATION ANALYSIS *
                    ********************************

-----------------------
MULLIKEN ATOMIC CHARGES
-----------------------
   0 C :   -0.486389
   1 C :   -0.008899
   2 C :   -0.510092
   3 C :   -0.348574
   4 C :    0.172723
   5 C :   -0.515773
   6 C :   -0.521166
   7 C :   -0.492655
   8 H :    0.146633
   9 H :    0.145015
  10 H :    0.146274
  11 H :    0.153233
  12 H :    0.141662
  13 H :    0.139648
  14 H :    0.157315
  15 H :    0.144838
  16 H :    0.156622
  17 H :    0.156805
  18 H :    0.150320
  19 H :    0.145363
  20 H :    0.157746
  21 H :    0.152149
  22 H :    0.157743
  23 H :    0.153752
  24 H :    0.152782
  25 H :    0.152929
Sum of atomic charges:   -0.0000000

--------------------------------
MULLIKEN REDUCED ORBITAL CHARGES
--------------------------------
  0 C s       :     3.335029  s :     3.335029
      pz      :     1.030509  p :     3.124117
      px      :     1.021722
      py      :     1.071886
      dz2     :     0.002522  d :     0.027244
      dxz     :     0.007008
      dyz     :     0.008070
      dx2y2   :     0.006101
      dxy     :     0.003543

  1 C s       :     3.073951  s :     3.073951
      pz      :     0.974811  p :     2.888781
      px      :     0.942741
      py      :     0.971229
      dz2     :     0.005193  d :     0.046168
      dxz     :     0.011294
      dyz     :     0.012118
      dx2y2   :     0.009734
      dxy     :     0.007829

  2 C s       :     3.348836  s :     3.348836
      pz      :     1.071768  p :     3.134126
      px      :     1.080201
      py      :     0.982157
      dz2     :     0.002617  d :     0.027130
      dxz     :     0.006138
      dyz     :     0.008039
      dx2y2   :     0.006964
      dxy     :     0.003371

  3 C s       :     3.254469  s :     3.254469
      pz      :     0.990347  p :     3.057729
      px      :     0.950061
      py      :     1.117322
      dz2     :     0.002954  d :     0.036375
      dxz     :     0.008931
      dyz     :     0.010122
      dx2y2   :     0.010096
      dxy     :     0.004273

  4 C s       :     2.947664  s :     2.947664
      pz      :     0.924013  p :     2.824929
      px      :     0.978608
      py      :     0.922309
      dz2     :     0.007745  d :     0.054684
      dxz     :     0.013271
      dyz     :     0.013042
      dx2y2   :     0.013324
      dxy     :     0.007302

  5 C s       :     3.346687  s :     3.346687
      pz      :     1.080494  p :     3.141928
      px      :     1.089992
      py      :     0.971441
      dz2     :     0.002837  d :     0.027158
      dxz     :     0.005999
      dyz     :     0.007709
      dx2y2   :     0.007721
      dxy     :     0.002892

  6 C s       :     3.344430  s :     3.344430
      pz      :     1.022656  p :     3.149509
      px      :     1.106385
      py      :     1.020468
      dz2     :     0.004128  d :     0.027228
      dxz     :     0.007383
      dyz     :     0.006121
      dx2y2   :     0.008097
      dxy     :     0.001498

  7 C s       :     3.337051  s :     3.337051
      pz      :     1.023187  p :     3.128363
      px      :     1.005868
      py      :     1.099308
      dz2     :     0.003397  d :     0.027241
      dxz     :     0.006420
      dyz     :     0.007744
      dx2y2   :     0.008138
      dxy     :     0.001542

  8 H s       :     0.835166  s :     0.835166
      pz      :     0.007318  p :     0.018201
      px      :     0.003935
      py      :     0.006948

  9 H s       :     0.836728  s :     0.836728
      pz      :     0.005320  p :     0.018257
      px      :     0.004132
      py      :     0.008805

 10 H s       :     0.835481  s :     0.835481
      pz      :     0.005253  p :     0.018245
      px      :     0.009044
      py      :     0.003948

 11 H s       :     0.828931  s :     0.828931
      pz      :     0.006864  p :     0.017837
      px      :     0.003659
      py      :     0.007313

 12 H s       :     0.840020  s :     0.840020
      pz      :     0.004659  p :     0.018318
      px      :     0.009873
      py      :     0.003786

 13 H s       :     0.841603  s :     0.841603
      pz      :     0.008068  p :     0.018750
      px      :     0.006441
      py      :     0.004241

 14 H s       :     0.824462  s :     0.824462
      pz      :     0.006376  p :     0.018224
      px      :     0.003734
      py      :     0.008113

 15 H s       :     0.837206  s :     0.837206
      pz      :     0.006517  p :     0.017956
      px      :     0.003505
      py      :     0.007934

 16 H s       :     0.825532  s :     0.825532
      pz      :     0.006176  p :     0.017846
      px      :     0.003465
      py      :     0.008205

 17 H s       :     0.824949  s :     0.824949
      pz      :     0.006841  p :     0.018246
      px      :     0.004008
      py      :     0.007397

 18 H s       :     0.831439  s :     0.831439
      pz      :     0.004530  p :     0.018241
      px      :     0.010005
      py      :     0.003706

 19 H s       :     0.835918  s :     0.835918
      pz      :     0.008184  p :     0.018719
      px      :     0.006805
      py      :     0.003730

 20 H s       :     0.823866  s :     0.823866
      pz      :     0.007970  p :     0.018388
      px      :     0.006701
      py      :     0.003716

 21 H s       :     0.829621  s :     0.829621
      pz      :     0.004648  p :     0.018231
      px      :     0.009958
      py      :     0.003625

 22 H s       :     0.824099  s :     0.824099
      pz      :     0.004530  p :     0.018158
      px      :     0.003833
      py      :     0.009795

 23 H s       :     0.828058  s :     0.828058
      pz      :     0.004718  p :     0.018190
      px      :     0.009612
      py      :     0.003860

 24 H s       :     0.829014  s :     0.829014
      pz      :     0.007703  p :     0.018204
      px      :     0.003664
      py      :     0.006837

 25 H s       :     0.828874  s :     0.828874
      pz      :     0.004875  p :     0.018197
      px      :     0.003565
      py      :     0.009757


------------------------
MULLIKEN OVERLAP CHARGES
------------------------
B(  0-C ,  1-C ) :   0.5604 B(  0-C ,  2-C ) :  -0.2382 B(  0-C ,  3-C ) :  -0.2140 
B(  0-C ,  8-H ) :   0.8572 B(  0-C ,  9-H ) :   0.8180 B(  0-C , 10-H ) :   0.8209 
B(  0-C , 11-H ) :  -0.0645 B(  1-C ,  2-C ) :   0.4380 B(  1-C ,  3-C ) :   0.2262 
B(  1-C ,  8-H ) :  -0.0813 B(  1-C ,  9-H ) :  -0.0894 B(  1-C , 10-H ) :  -0.1030 
B(  1-C , 11-H ) :   0.8868 B(  1-C , 12-H ) :  -0.0923 B(  1-C , 14-H ) :  -0.1200 
B(  1-C , 15-H ) :  -0.1083 B(  1-C , 16-H ) :  -0.0691 B(  2-C ,  3-C ) :  -0.1868 
B(  2-C , 11-H ) :  -0.0621 B(  2-C , 12-H ) :   0.8052 B(  2-C , 13-H ) :   0.7880 
B(  2-C , 14-H ) :   0.8778 B(  3-C ,  4-C ) :   0.1498 B(  3-C ,  5-C ) :  -0.2130 
B(  3-C ,  6-C ) :  -0.2239 B(  3-C ,  7-C ) :  -0.3272 B(  3-C , 11-H ) :  -0.0955 
B(  3-C , 15-H ) :   0.8519 B(  3-C , 16-H ) :   0.8501 B(  4-C ,  5-C ) :   0.5639 
B(  4-C ,  6-C ) :   0.4947 B(  4-C ,  7-C ) :   0.6987 B(  4-C , 15-H ) :  -0.0954 
B(  4-C , 16-H ) :  -0.0822 B(  4-C , 17-H ) :  -0.0934 B(  4-C , 18-H ) :  -0.0978 
B(  4-C , 20-H ) :  -0.0558 B(  4-C , 21-H ) :  -0.0875 B(  4-C , 22-H ) :  -0.0932 
B(  4-C , 23-H ) :  -0.1049 B(  4-C , 24-H ) :  -0.0754 B(  4-C , 25-H ) :  -0.0762 
B(  5-C ,  6-C ) :  -0.3103 B(  5-C ,  7-C ) :  -0.2889 B(  5-C , 17-H ) :   0.8195 
B(  5-C , 18-H ) :   0.8219 B(  5-C , 19-H ) :   0.7847 B(  6-C ,  7-C ) :  -0.3072 
B(  6-C , 20-H ) :   0.8093 B(  6-C , 21-H ) :   0.8039 B(  6-C , 22-H ) :   0.8044 
B(  7-C , 23-H ) :   0.8349 B(  7-C , 24-H ) :   0.8114 B(  7-C , 25-H ) :   0.8172 



                     *******************************
                     * LOEWDIN POPULATION ANALYSIS *
                     *******************************

----------------------
LOEWDIN ATOMIC CHARGES
----------------------
   0 C :   -0.417902
   1 C :   -0.242135
   2 C :   -0.415404
   3 C :   -0.290137
   4 C :   -0.209191
   5 C :   -0.406132
   6 C :   -0.408870
   7 C :   -0.410607
   8 H :    0.154433
   9 H :    0.151396
  10 H :    0.151081
  11 H :    0.157828
  12 H :    0.152377
  13 H :    0.149502
  14 H :    0.154518
  15 H :    0.164463
  16 H :    0.163236
  17 H :    0.156904
  18 H :    0.155583
  19 H :    0.153209
  20 H :    0.154765
  21 H :    0.157157
  22 H :    0.157682
  23 H :    0.153957
  24 H :    0.157392
  25 H :    0.154896

-------------------------------
LOEWDIN REDUCED ORBITAL CHARGES
-------------------------------
  0 C s       :     2.973494  s :     2.973494
      pz      :     1.125352  p :     3.380466
      px      :     1.112267
      py      :     1.142847
      dz2     :     0.004973  d :     0.063942
      dxz     :     0.016952
      dyz     :     0.019570
      dx2y2   :     0.014429
      dxy     :     0.008016

  1 C s       :     2.905518  s :     2.905518
      pz      :     1.094040  p :     3.241960
      px      :     1.055934
      py      :     1.091986
      dz2     :     0.008813  d :     0.094657
      dxz     :     0.024431
      dyz     :     0.026454
      dx2y2   :     0.019791
      dxy     :     0.015167

  2 C s       :     2.969252  s :     2.969252
      pz      :     1.137375  p :     3.382231
      px      :     1.141051
      py      :     1.103805
      dz2     :     0.005660  d :     0.063921
      dxz     :     0.015086
      dyz     :     0.019368
      dx2y2   :     0.016560
      dxy     :     0.007247

  3 C s       :     2.929308  s :     2.929308
      pz      :     1.095189  p :     3.281443
      px      :     1.047783
      py      :     1.138471
      dz2     :     0.005359  d :     0.079386
      dxz     :     0.019577
      dyz     :     0.023152
      dx2y2   :     0.023285
      dxy     :     0.008012

  4 C s       :     2.882221  s :     2.882221
      pz      :     1.077869  p :     3.219192
      px      :     1.065267
      py      :     1.076055
      dz2     :     0.013427  d :     0.107779
      dxz     :     0.027777
      dyz     :     0.026859
      dx2y2   :     0.027581
      dxy     :     0.012135

  5 C s       :     2.964961  s :     2.964961
      pz      :     1.142385  p :     3.376925
      px      :     1.151682
      py      :     1.082858
      dz2     :     0.006522  d :     0.064246
      dxz     :     0.014995
      dyz     :     0.018197
      dx2y2   :     0.018675
      dxy     :     0.005857

  6 C s       :     2.964470  s :     2.964470
      pz      :     1.112207  p :     3.380208
      px      :     1.154546
      py      :     1.113455
      dz2     :     0.009025  d :     0.064192
      dxz     :     0.017621
      dyz     :     0.014755
      dx2y2   :     0.019742
      dxy     :     0.003048

  7 C s       :     2.970184  s :     2.970184
      pz      :     1.116761  p :     3.376210
      px      :     1.106009
      py      :     1.153439
      dz2     :     0.007240  d :     0.064213
      dxz     :     0.015548
      dyz     :     0.018543
      dx2y2   :     0.019854
      dxy     :     0.003028

  8 H s       :     0.801972  s :     0.801972
      pz      :     0.017727  p :     0.043595
      px      :     0.008857
      py      :     0.017011

  9 H s       :     0.805152  s :     0.805152
      pz      :     0.012311  p :     0.043452
      px      :     0.009532
      py      :     0.021608

 10 H s       :     0.805421  s :     0.805421
      pz      :     0.012585  p :     0.043498
      px      :     0.022190
      py      :     0.008724

 11 H s       :     0.798451  s :     0.798451
      pz      :     0.016952  p :     0.043721
      px      :     0.008849
      py      :     0.017920

 12 H s       :     0.804146  s :     0.804146
      pz      :     0.010598  p :     0.043477
      px      :     0.024246
      py      :     0.008633

 13 H s       :     0.805881  s :     0.805881
      pz      :     0.019561  p :     0.044617
      px      :     0.015367
      py      :     0.009690

 14 H s       :     0.801953  s :     0.801953
      pz      :     0.015521  p :     0.043529
      px      :     0.008117
      py      :     0.019891

 15 H s       :     0.791874  s :     0.791874
      pz      :     0.015787  p :     0.043663
      px      :     0.008175
      py      :     0.019700

 16 H s       :     0.793061  s :     0.793061
      pz      :     0.014972  p :     0.043703
      px      :     0.008541
      py      :     0.020191

 17 H s       :     0.799429  s :     0.799429
      pz      :     0.016681  p :     0.043666
      px      :     0.008848
      py      :     0.018137

 18 H s       :     0.800695  s :     0.800695
      pz      :     0.010313  p :     0.043722
      px      :     0.024854
      py      :     0.008554

 19 H s       :     0.801917  s :     0.801917
      pz      :     0.020012  p :     0.044875
      px      :     0.016215
      py      :     0.008647

 20 H s       :     0.801157  s :     0.801157
      pz      :     0.019545  p :     0.044078
      px      :     0.016055
      py      :     0.008479

 21 H s       :     0.799092  s :     0.799092
      pz      :     0.010764  p :     0.043751
      px      :     0.024785
      py      :     0.008202

 22 H s       :     0.798669  s :     0.798669
      pz      :     0.010760  p :     0.043649
      px      :     0.008450
      py      :     0.024439

 23 H s       :     0.802360  s :     0.802360
      pz      :     0.011199  p :     0.043683
      px      :     0.024002
      py      :     0.008482

 24 H s       :     0.798874  s :     0.798874
      pz      :     0.018908  p :     0.043734
      px      :     0.008316
      py      :     0.016510

 25 H s       :     0.801403  s :     0.801403
      pz      :     0.011430  p :     0.043701
      px      :     0.008030
      py      :     0.024241


---------------------------------
LOEWDIN BOND ORDERS (THRESH 0.050000)
---------------------------------
B(  0-C ,  1-C ) :   1.1072 B(  0-C ,  2-C ) :   0.0737 B(  0-C ,  3-C ) :   0.0824 
B(  0-C ,  8-H ) :   0.9209 B(  0-C ,  9-H ) :   0.9257 B(  0-C , 10-H ) :   0.9245 
B(  1-C ,  2-C ) :   1.1097 B(  1-C ,  3-C ) :   1.0637 B(  1-C ,  4-C ) :   0.0566 
B(  1-C , 11-H ) :   0.8573 B(  2-C ,  3-C ) :   0.0632 B(  2-C , 12-H ) :   0.9214 
B(  2-C , 13-H ) :   0.9214 B(  2-C , 14-H ) :   0.9230 B(  3-C ,  4-C ) :   1.0391 
B(  3-C ,  5-C ) :   0.0646 B(  3-C ,  6-C ) :   0.0616 B(  3-C ,  7-C ) :   0.0839 
B(  3-C , 15-H ) :   0.8670 B(  3-C , 16-H ) :   0.8761 B(  4-C ,  5-C ) :   1.0809 
B(  4-C ,  6-C ) :   1.0804 B(  4-C ,  7-C ) :   1.0767 B(  5-C ,  6-C ) :   0.0716 
B(  5-C ,  7-C ) :   0.0747 B(  5-C , 17-H ) :   0.9182 B(  5-C , 18-H ) :   0.9159 
B(  5-C , 19-H ) :   0.9143 B(  6-C ,  7-C ) :   0.0728 B(  6-C , 20-H ) :   0.9166 
B(  6-C , 21-H ) :   0.9157 B(  6-C , 22-H ) :   0.9169 B(  7-C , 23-H ) :   0.9182 
B(  7-C , 24-H ) :   0.9168 B(  7-C , 25-H ) :   0.9189 

------------------------------------------
LOEWDIN REDUCED ORBITAL POPULATIONS PER MO
-------------------------------------------
THRESHOLD FOR PRINTING IS 0.1%%
                      0         1         2         3         4         5   
                 -10.03933 -10.02993 -10.01759 -10.01250 -10.01231 -10.01201
                   2.00000   2.00000   2.00000   2.00000   2.00000   2.00000
                  --------  --------  --------  --------  --------  --------
 0 C  s               0.0       0.0       0.0       0.0      99.7       0.0
 1 C  s               0.0      99.6       0.0       0.0       0.0       0.0
 2 C  s               0.0       0.0       0.0       0.0       0.0      99.7
 3 C  s               0.0       0.0      99.7       0.0       0.0       0.0
 4 C  s              99.6       0.0       0.0       0.0       0.0       0.0
 6 C  s               0.0       0.0       0.0      99.7       0.0       0.0

                      6         7         8         9        10        11   
                 -10.01144 -10.01055  -0.79522  -0.75258  -0.65384  -0.65015
                   2.00000   2.00000   2.00000   2.00000   2.00000   2.00000
                  --------  --------  --------  --------  --------  --------
 0 C  s               0.0       0.0       2.9      11.7       3.1       0.1
 0 C  pz              0.0       0.0       0.3       1.0       0.3       0.0
 0 C  px              0.0       0.0       0.8       0.9       0.1       0.0
 0 C  py              0.0       0.0       0.2       0.4       0.2       0.0
 1 C  s               0.0       0.0       9.5      19.2       0.0       0.0
 1 C  pz              0.0       0.0       0.3       0.1       4.5       0.1
 1 C  px              0.0       0.0       0.5       1.3       0.6       0.0
 1 C  py              0.0       0.0       0.2       0.2       3.0       0.2
 2 C  s               0.0       0.0       3.0      10.5      14.3       0.0
 2 C  pz              0.0       0.0       0.3       0.7       0.3       0.0
 2 C  px              0.0       0.0       0.3       0.1       0.0       0.0
 2 C  py              0.0       0.0       0.7       1.5       0.3       0.0
 3 C  s               0.0       0.0      13.9       1.2       5.1       0.5
 3 C  pz              0.0       0.0       1.2       0.1       1.1       0.4
 3 C  px              0.0       0.0       0.3       7.6       0.0       0.1
 3 C  py              0.0       0.0       0.0       0.2       0.7       0.6
 3 C  dxz             0.0       0.0       0.0       0.1       0.0       0.0
 4 C  s               0.0       0.0      21.1       7.1       0.0       0.0
 4 C  pz              0.0       0.0       0.0       0.1       6.3       6.8
 4 C  px              0.0       0.0       0.1       2.0       0.0       0.1
 4 C  py              0.0       0.1       0.0       0.0       3.8       9.3
 4 C  dyz             0.0       0.0       0.0       0.0       0.0       0.3
 4 C  dx2y2           0.0       0.0       0.0       0.0       0.2       0.0
 5 C  s               0.0      99.7       6.7       3.9      15.1       6.2
 5 C  pz              0.0       0.0       0.5       0.1       0.4       0.4
 5 C  py              0.0       0.0       2.2       0.7       0.2       0.5
 6 C  s               0.0       0.0       7.0       3.7       0.3      31.7
 6 C  pz              0.0       0.0       1.4       0.4       0.4       0.4
 6 C  px              0.0       0.0       0.1       0.1       0.0       0.0
 6 C  py              0.0       0.0       1.3       0.5       0.2       0.6
 7 C  s              99.7       0.0       6.9       4.6       5.7       6.0
 7 C  pz              0.0       0.0       1.2       0.6       0.4       0.4
 7 C  px              0.0       0.0       1.6       0.2       0.0       0.0
 7 C  py              0.0       0.0       0.0       0.0       0.2       0.6
 8 H  s               0.0       0.0       0.3       1.6       0.7       0.0
 9 H  s               0.0       0.0       0.3       1.6       0.9       0.0
10 H  s               0.0       0.0       0.3       1.6       0.5       0.0
10 H  px              0.0       0.0       0.0       0.1       0.0       0.0
11 H  s               0.0       0.0       1.1       2.5       0.0       0.1
11 H  pz              0.0       0.0       0.0       0.1       0.0       0.0
11 H  py              0.0       0.0       0.1       0.1       0.0       0.0
12 H  s               0.0       0.0       0.3       1.6       3.3       0.0
12 H  px              0.0       0.0       0.0       0.1       0.2       0.0
13 H  s               0.0       0.0       0.4       1.4       3.9       0.0
13 H  pz              0.0       0.0       0.0       0.1       0.2       0.0
13 H  px              0.0       0.0       0.0       0.0       0.1       0.0
14 H  s               0.0       0.0       0.4       1.4       3.2       0.0
14 H  pz              0.0       0.0       0.0       0.0       0.1       0.0
14 H  py              0.0       0.0       0.0       0.1       0.2       0.0
15 H  s               0.0       0.0       1.7       0.2       1.9       0.1
15 H  py              0.0       0.0       0.1       0.0       0.1       0.0
16 H  s               0.0       0.0       1.6       0.2       1.0       0.3
17 H  s               0.0       0.0       0.8       0.5       3.2       1.9
17 H  pz              0.0       0.0       0.0       0.0       0.1       0.1
17 H  py              0.0       0.0       0.0       0.0       0.1       0.1
18 H  s               0.0       0.0       0.8       0.6       3.5       1.4
18 H  px              0.0       0.0       0.1       0.0       0.3       0.1
19 H  s               0.0       0.0       0.8       0.5       4.2       1.1
19 H  pz              0.0       0.0       0.0       0.0       0.2       0.1
19 H  px              0.0       0.0       0.0       0.0       0.1       0.0
20 H  s               0.0       0.0       0.8       0.5       0.2       7.7
20 H  pz              0.0       0.0       0.0       0.0       0.0       0.4
20 H  px              0.0       0.0       0.0       0.0       0.0       0.3
21 H  s               0.0       0.0       0.8       0.6       0.1       7.2
21 H  px              0.0       0.0       0.1       0.0       0.0       0.5
22 H  s               0.0       0.0       0.8       0.5       0.0       7.6
22 H  pz              0.0       0.0       0.0       0.0       0.0       0.1
22 H  py              0.0       0.0       0.1       0.0       0.0       0.5
23 H  s               0.0       0.0       0.8       0.7       1.0       1.3
24 H  s               0.0       0.0       0.8       0.6       1.3       1.9
25 H  s               0.0       0.0       0.8       0.6       1.6       1.1
25 H  py              0.0       0.0       0.1       0.0       0.1       0.1

                     12        13        14        15        16        17   
                  -0.64274  -0.63924  -0.53377  -0.49423  -0.43922  -0.42178
                   2.00000   2.00000   2.00000   2.00000   2.00000   2.00000
                  --------  --------  --------  --------  --------  --------
 0 C  s              10.3      14.7       4.1       0.0       0.2       0.1
 0 C  pz              0.4       0.0       3.6       2.1       0.1       0.1
 0 C  px              0.0       1.0       4.6       0.1       0.8       3.4
 0 C  py              0.3       0.0       0.1       0.2       7.4       0.2
 0 C  dxz             0.0       0.0       0.1       0.0       0.0       0.0
 1 C  s               0.0       0.0      13.1       1.6       0.7       0.0
 1 C  pz              4.1       0.0       1.6       4.7       5.4       1.9
 1 C  px              0.1      10.5       1.4       0.5       0.4       0.1
 1 C  py              3.9       0.6       2.7       1.7       7.7       1.4
 1 C  dxz             0.1       0.3       0.0       0.0       0.0       0.0
 2 C  s              14.5       0.3       3.7       0.3       0.2       0.3
 2 C  pz              0.2       0.0       0.5       0.1       9.8       0.4
 2 C  px              0.0       0.6       1.6       0.0       0.0       1.6
 2 C  py              0.3       0.0       5.6       2.8       0.1       1.2
 3 C  s               0.1      17.8       0.8       2.6       0.0       0.1
 3 C  pz              0.0       0.0       1.6       7.6       0.1       2.1
 3 C  px              0.2       0.0       6.5       3.0       5.4       0.7
 3 C  py              0.0       0.1       1.0       0.1       6.6      12.9
 3 C  dxz             0.0       0.0       0.2       0.0       0.0       0.0
 3 C  dx2y2           0.0       0.0       0.0       0.1       0.0       0.0
 4 C  s               0.0       0.1       3.4      11.5       0.4       0.0
 4 C  pz              2.9       0.2       0.7       0.1       1.3       0.3
 4 C  px              1.0      10.4       1.3       0.0       4.4       6.3
 4 C  py              3.0       0.0       0.0       0.0       2.1       4.8
 4 C  dxz             0.1       0.2       0.0       0.0       0.0       0.0
 5 C  s              11.2       0.1       1.0       1.6       0.5       0.2
 5 C  pz              0.2       0.0       0.5       1.1       1.0       3.2
 5 C  px              0.0       0.6       0.5       0.0       1.8       7.6
 5 C  py              0.2       0.0       1.1       7.3       4.2       0.1
 5 C  dyz             0.0       0.0       0.0       0.1       0.0       0.0
 5 C  dx2y2           0.0       0.0       0.0       0.1       0.0       0.0
 6 C  s               0.0       0.7       0.2       2.6       0.0       0.4
 6 C  pz              0.2       0.0       0.7       4.7       0.3       6.5
 6 C  px              0.1       0.6       0.0       0.6       4.8       4.1
 6 C  py              0.2       0.0       0.3       4.9       2.1       0.5
 6 C  dyz             0.0       0.0       0.0       0.2       0.0       0.1
 7 C  s               9.9      10.1       1.9       1.1       0.1       0.3
 7 C  pz              0.3       0.0       0.5       3.8       4.0       7.3
 7 C  px              0.1       0.9       2.9       2.8       0.7       0.0
 7 C  py              0.2       0.0       0.0       0.1       1.8       3.8
 7 C  dxz             0.0       0.0       0.1       0.2       0.0       0.0
 8 H  s               2.4       3.4       3.2       0.5       0.7       0.2
 8 H  pz              0.1       0.1       0.1       0.0       0.0       0.0
 8 H  py              0.1       0.1       0.1       0.0       0.0       0.0
 9 H  s               2.8       3.3       1.9       0.1       1.8       0.3
 9 H  py              0.2       0.2       0.1       0.0       0.0       0.0
10 H  s               2.3       4.2       2.5       0.1       1.1       1.2
10 H  px              0.1       0.2       0.1       0.0       0.0       0.0
11 H  s               0.0       0.0       8.3       3.0       2.7       0.1
11 H  pz              0.0       0.0       0.3       0.1       0.0       0.0
11 H  py              0.0       0.0       0.3       0.1       0.0       0.0
12 H  s               3.4       0.2       2.3       0.0       1.0       1.0
12 H  px              0.2       0.0       0.1       0.0       0.0       0.0
13 H  s               3.6       0.0       1.6       0.2       2.9       0.1
13 H  pz              0.2       0.0       0.0       0.0       0.0       0.0
13 H  px              0.1       0.0       0.1       0.0       0.1       0.0
14 H  s               3.4       0.0       2.9       1.1       0.6       0.3
14 H  pz              0.1       0.0       0.1       0.0       0.0       0.0
14 H  py              0.2       0.0       0.1       0.0       0.1       0.0
15 H  s               0.0       3.7       0.4       2.7       1.9       5.7
15 H  pz              0.0       0.1       0.0       0.0       0.1       0.1
15 H  py              0.0       0.2       0.0       0.1       0.0       0.1
16 H  s               0.0       4.3       1.0       4.2       1.9       1.1
16 H  pz              0.0       0.1       0.0       0.0       0.1       0.1
16 H  py              0.0       0.2       0.0       0.2       0.0       0.0
17 H  s               2.6       0.0       0.4       2.0       0.9       0.5
17 H  pz              0.1       0.0       0.0       0.1       0.1       0.0
17 H  py              0.1       0.0       0.0       0.0       0.0       0.0
18 H  s               2.6       0.1       1.0       1.5       0.0       4.7
18 H  px              0.2       0.0       0.1       0.1       0.0       0.1
19 H  s               2.7       0.0       0.4       1.7       2.5       0.0
19 H  pz              0.1       0.0       0.0       0.0       0.1       0.0
19 H  px              0.1       0.0       0.0       0.0       0.0       0.0
20 H  s               0.0       0.1       0.3       1.8       0.3       5.1
21 H  s               0.0       0.4       0.2       2.6       1.7       0.1
21 H  px              0.0       0.0       0.0       0.1       0.0       0.0
22 H  s               0.0       0.1       0.1       2.4       1.1       0.1
23 H  s               2.3       3.0       1.7       1.0       0.7       0.1
23 H  px              0.1       0.2       0.1       0.0       0.0       0.0
24 H  s               2.3       2.2       0.8       1.4       0.2       5.3
25 H  s               2.7       2.3       0.8       1.4       1.9       0.0
25 H  py              0.2       0.2       0.0       0.1       0.1       0.0

                     18        19        20        21        22        23   
                  -0.41604  -0.39987  -0.38407  -0.37218  -0.35792  -0.35393
                   2.00000   2.00000   2.00000   2.00000   2.00000   2.00000
                  --------  --------  --------  --------  --------  --------
 0 C  s               0.2       0.0       0.1       0.1       0.0       0.0
 0 C  pz              7.3       0.2       5.4       0.9       2.0       8.8
 0 C  px              0.2       0.9       1.7       8.3      10.3       1.4
 0 C  py              0.7      10.4       1.5       1.1       5.0       8.0
 0 C  dyz             0.0       0.0       0.0       0.0       0.2       0.1
 1 C  s               0.1       0.2       0.1       0.0       0.2       0.2
 1 C  pz              0.6       0.5       0.0       4.5       1.8       0.4
 1 C  px              7.2       1.2       3.0       0.1       2.3       0.2
 1 C  py              0.5       4.8       0.1       1.0       1.6       0.8
 1 C  dz2             0.0       0.0       0.0       0.0       0.0       0.1
 2 C  s               0.0       0.2       0.0       0.1       0.0       0.0
 2 C  pz              0.3       9.0       0.1       4.2       1.5       4.5
 2 C  px              8.1       0.0       9.5       7.5       0.1       4.3
 2 C  py              3.8       0.5       3.0       3.9       2.2       4.1
 2 C  dyz             0.0       0.0       0.0       0.1       0.0       0.1
 3 C  s               0.0       0.3       0.7       0.6       0.7       0.5
 3 C  pz              4.3       2.0       3.6       0.7       0.6       0.9
 3 C  px              2.3       0.3       0.4       0.0       0.0       0.1
 3 C  py              0.1       0.0       0.1       6.4       0.6       0.6
 4 C  s               0.0       0.0       0.0       0.2       0.1       0.0
 4 C  pz              7.3       0.0       2.5       0.2       0.0       1.2
 4 C  px              0.8       1.3       0.6       0.3       0.2       1.3
 4 C  py              0.1       5.8       0.0       0.1       0.5       0.0
 4 C  dz2             0.0       0.0       0.2       0.0       0.1       0.1
 4 C  dxy             0.0       0.0       0.0       0.2       0.2       0.0
 5 C  s               0.1       0.3       0.0       0.0       0.0       0.0
 5 C  pz              6.7       2.2      11.5       0.7       0.0       1.3
 5 C  px              2.6       2.7       0.0       0.7      13.5       1.1
 5 C  py              3.3       2.8       3.6       0.2       0.2       0.1
 6 C  s               0.3       0.0       0.0       0.0       0.0       0.0
 6 C  pz              0.0       7.8       4.7       0.3       0.9       1.1
 6 C  px              1.7       1.0       0.4      14.1       8.4       1.2
 6 C  py              6.8       1.0       9.8       0.0       1.2       0.3
 7 C  s               0.5       0.0       0.1       0.0       0.0       0.0
 7 C  pz              0.1       0.5       2.3       3.1       2.0       3.7
 7 C  px              5.6       0.5       0.6       0.8       5.3      16.0
 7 C  py              1.0      13.5       0.4       5.2       3.5       0.1
 7 C  dxz             0.1       0.0       0.0       0.0       0.0       0.1
 8 H  s               1.0       1.6       0.3       0.2       4.9       7.4
 9 H  s               2.2       4.2       2.9       0.1       2.3       0.2
10 H  s               0.5       0.0       1.7       4.9       1.4       4.5
10 H  px              0.0       0.0       0.0       0.1       0.0       0.1
11 H  s               0.3       1.2       0.1       0.1       0.0       0.0
12 H  s               2.6       0.7       4.4       0.9       0.1       0.5
13 H  s               3.2       2.8       1.6       2.9       0.2       3.1
13 H  pz              0.1       0.0       0.1       0.0       0.0       0.0
14 H  s               0.4       0.3       1.1       4.5       1.8       4.4
15 H  s               0.5       0.6       1.9       0.2       0.1       0.2
16 H  s               0.7       0.7       0.7       4.3       0.0       0.4
17 H  s               3.6       0.4       5.4       0.0       0.2       0.7
18 H  s               0.5       0.1       0.4       0.0       6.3       0.6
19 H  s               2.8       2.8       2.0       0.7       2.2       0.1
20 H  s               0.3       1.3       2.4       3.4       0.4       0.0
20 H  pz              0.0       0.0       0.0       0.1       0.0       0.0
21 H  s               0.9       2.1       0.0       4.9       4.3       0.9
22 H  s               2.8       1.6       5.6       0.1       1.4       0.5
22 H  py              0.1       0.1       0.1       0.0       0.0       0.0
23 H  s               2.1       0.8       0.0       0.6       4.4       9.5
23 H  px              0.0       0.0       0.0       0.0       0.1       0.1
24 H  s               0.0       1.2       0.2       3.8       0.0       2.1
25 H  s               0.9       5.8       0.7       0.6       2.5       0.1
25 H  px              0.0       0.0       0.0       0.0       0.0       0.1

                     24        25        26        27        28        29   
                  -0.34624  -0.33109  -0.32651  -0.31656  -0.29930  -0.29648
                   2.00000   2.00000   2.00000   2.00000   2.00000   2.00000
                  --------  --------  --------  --------  --------  --------
 0 C  s               0.0       0.0       0.0       0.1       0.2       0.0
 0 C  pz              4.0       1.5       0.9       4.4       9.3       0.1
 0 C  px              4.4       0.3       5.8       1.2       0.1       0.7
 0 C  py              4.4       0.1       6.1       1.9       0.6       5.8
 0 C  dyz             0.0       0.0       0.2       0.0       0.0       0.3
 0 C  dx2y2           0.0       0.0       0.1       0.0       0.2       0.0
 0 C  dxy             0.0       0.0       0.0       0.0       0.1       0.0
 1 C  s               0.0       0.0       0.0       0.0       0.0       0.1
 1 C  pz              0.6       0.8       0.0       0.4      10.8       0.2
 1 C  px              0.2       0.7       1.0       6.9       0.1       2.0
 1 C  py              0.4       0.1       0.6       0.6       0.2      13.2
 1 C  dz2             0.1       0.0       0.0       0.0       0.0       0.0
 1 C  dxz             0.0       0.0       0.0       0.2       0.0       0.1
 1 C  dyz             0.0       0.0       0.0       0.0       0.0       0.5
 1 C  dx2y2           0.1       0.0       0.1       0.0       0.2       0.0
 1 C  dxy             0.0       0.0       0.0       0.0       0.2       0.0
 2 C  s               0.0       0.0       0.0       0.0       0.1       0.6
 2 C  pz              9.3       0.3       0.2       0.3      10.2       0.6
 2 C  px              7.5       0.0       0.6       8.6       0.5       1.3
 2 C  py              4.2       0.0       3.0       1.1       1.0      11.2
 2 C  dxz             0.0       0.0       0.0       0.2       0.0       0.0
 2 C  dyz             0.0       0.0       0.0       0.0       0.1       0.2
 2 C  dx2y2           0.2       0.0       0.0       0.1       0.1       0.0
 3 C  s               0.0       0.0       0.1       0.6       0.0       0.0
 3 C  pz              0.0       0.2       0.8      11.4       0.2       0.2
 3 C  px              0.2       0.0       0.3       0.1       6.8       0.1
 3 C  py              0.0       0.0      15.4       0.0       0.0       0.9
 3 C  dyz             0.0       0.0       0.2       0.0       0.0       0.0
 3 C  dxy             0.0       0.0       0.0       0.0       0.0       0.1
 4 C  pz              0.5       0.0       0.1       1.0       7.4       0.5
 4 C  px              0.2       0.0       0.1       4.7       0.1       0.0
 4 C  py              0.4       0.0       0.1       0.0       0.0       9.0
 4 C  dxz             0.0       0.0       0.0       0.2       0.0       0.0
 4 C  dyz             0.0       0.0       0.0       0.0       0.0       0.3
 4 C  dx2y2           0.0       0.0       0.0       0.0       0.2       0.0
 5 C  s               0.0       0.0       0.0       0.0       0.0       0.2
 5 C  pz              3.7      11.2       1.7       0.0       5.7       0.1
 5 C  px             11.6       3.9       4.3       1.4       1.1       0.1
 5 C  py              0.1       2.2       2.0       0.0       0.4       8.5
 5 C  dxz             0.0       0.2       0.0       0.1       0.1       0.0
 5 C  dyz             0.0       0.1       0.1       0.0       0.0       0.2
 5 C  dx2y2           0.1       0.0       0.0       0.0       0.1       0.0
 6 C  s               0.0       0.0       0.0       0.0       0.3       0.6
 6 C  pz              0.2       8.6       1.4       1.1       3.7       0.9
 6 C  px              0.0       0.9       6.3      10.9       0.2       0.5
 6 C  py              0.1       6.9       2.4       0.0       0.6       6.9
 6 C  dxz             0.0       0.1       0.1       0.4       0.0       0.0
 6 C  dx2y2           0.0       0.2       0.2       0.0       0.1       0.0
 7 C  s               0.0       0.0       0.0       0.1       0.1       0.0
 7 C  pz              2.2       0.2       0.1       9.3       7.1       0.0
 7 C  px              5.4       0.0       0.2       0.2       0.1       0.1
 7 C  py              0.4      17.4       3.2       0.1       0.5       3.7
 7 C  dyz             0.0       0.3       0.0       0.0       0.0       0.2
 7 C  dx2y2           0.0       0.0       0.0       0.1       0.3       0.0
 8 H  s               2.8       0.3       1.2       0.1       1.5       3.6
[...]
12 H  px              6.5       1.1       0.0       0.0       0.6       0.0
12 H  py              0.2       0.0       0.0       0.0       0.1       0.0
13 H  s               2.9       0.1       0.4       1.3       0.0       0.0
13 H  pz              5.1       0.1       0.9       1.5       0.1       0.1
13 H  px              1.4       0.2       0.4       1.6       0.0       0.0
13 H  py              0.2       0.0       0.0       0.3       0.0       0.0
14 H  s               0.2       0.4       0.2       1.7       0.1       0.2
14 H  pz              0.3       0.4       0.5       1.4       0.1       0.1
14 H  px              0.4       0.0       0.0       0.0       0.0       0.0
14 H  py              0.2       0.5       0.2       2.7       0.1       0.6
15 H  s               0.1       0.1       0.4       2.2       7.1       0.3
15 H  pz              0.1       0.0       0.7       2.6       6.1       0.1
15 H  px              0.0       0.1       0.2       0.1       0.5       0.0
15 H  py              0.2       0.5       0.1       2.0      11.8       1.2
16 H  s               0.0       0.5       2.6       2.9       0.7       2.7
16 H  pz              0.0       0.4       2.6       2.9       1.8       2.1
16 H  px              0.0       0.1       0.0       0.4       0.0       0.2
16 H  py              0.0       0.9       4.2       3.3       0.2       5.8
17 H  s               0.8       2.0       0.4       0.9       0.1       0.0
17 H  pz              0.9       1.6       0.3       1.4       0.3       0.1
17 H  px              0.0       0.4       0.0       0.1       0.2       0.0
17 H  py              1.1       2.9       0.6       0.9       0.1       0.0
18 H  s               3.6       0.1       0.2       0.1       0.9       0.0
18 H  pz              1.0       0.4       0.0       0.2       0.3       0.0
18 H  px              7.7       0.0       0.4       0.2       2.0       0.0
18 H  py              0.1       0.0       0.0       0.0       0.0       0.0
19 H  s               0.5       5.0       0.2       0.4       0.3       0.0
19 H  pz              1.0       7.5       0.1       0.2       0.6       0.0
19 H  px              0.0       5.0       0.3       0.6       0.1       0.0
19 H  py              0.0       0.2       0.0       0.1       0.1       0.0
20 H  s               0.1       0.1       1.7       1.1       0.1       0.2
20 H  pz              0.0       0.0       2.6       1.6       0.2       0.1
20 H  px              0.1       0.3       1.3       0.9       0.0       0.3
21 H  s               0.0       1.2       0.6       0.2       0.0       0.0
21 H  pz              0.0       0.2       0.5       0.1       0.0       0.0
21 H  px              0.0       3.3       1.1       0.3       0.1       0.0
21 H  py              0.0       0.1       0.1       0.1       0.0       0.0
22 H  s               0.6       0.1       0.7       0.5       0.1       0.0
22 H  pz              0.4       0.0       0.2       0.1       0.1       0.0
22 H  px              0.0       0.0       0.3       0.0       0.0       0.0
22 H  py              1.2       0.2       1.4       1.1       0.2       0.1
23 H  s               0.7       0.3       1.3       0.0       0.2       0.0
23 H  pz              0.1       0.4       1.0       0.1       0.1       0.0
23 H  px              1.5       0.5       2.5       0.0       0.3       0.1
23 H  py              0.0       0.0       0.1       0.0       0.0       0.0
24 H  s               1.3       0.5       0.1       0.1       0.0       0.1
24 H  pz              1.6       0.5       0.1       0.1       0.1       0.1
24 H  px              0.0       0.2       0.1       0.0       0.0       0.0
24 H  py              1.8       0.9       0.1       0.0       0.0       0.0
25 H  s               0.0       0.1       0.0       0.5       0.1       0.2
25 H  pz              0.1       0.1       0.0       0.1       0.0       0.1
25 H  px              0.0       0.0       0.2       0.0       0.0       0.0
25 H  py              0.0       0.1       0.0       1.2       0.2       0.3

                    234       235       236       237       238       239   
                  21.94583  21.98030  22.03215  22.07066  22.08367  22.10843
                   0.00000   0.00000   0.00000   0.00000   0.00000   0.00000
                  --------  --------  --------  --------  --------  --------
 0 C  s              43.7      24.0      17.9       1.7       0.0       8.7
 1 C  s               2.4       1.6       0.0      31.1       0.0       3.7
 2 C  s              33.0       0.4      59.2       0.3       3.2       1.5
 3 C  s               6.4       0.2       4.9       4.3       5.3      75.6
 4 C  s               2.6      14.7       0.1       0.1       0.6       3.3
 5 C  s               2.7      16.8       0.9      40.8       4.7       4.2
 6 C  s               5.5      19.5       1.0      20.1      40.2       1.1
 7 C  s               3.3      22.5      15.7       1.3      45.6       1.5

                    240       241   
                  22.15372  22.20945
                   0.00000   0.00000
                  --------  --------
 0 C  s               2.8       0.7
 1 C  s              57.2       3.8
 2 C  s               0.5       1.6
 3 C  s               0.3       2.7
 4 C  s               3.6      75.0
 5 C  s              27.7       1.8
 6 C  s               6.5       5.8
 7 C  s               1.1       8.3


                      *****************************
                      * MAYER POPULATION ANALYSIS *
                      *****************************

  NA   - Mulliken gross atomic population
  ZA   - Total nuclear charge
  QA   - Mulliken gross atomic charge
  VA   - Mayer's total valence
  BVA  - Mayer's bonded valence
  FA   - Mayer's free valence

  ATOM       NA         ZA         QA         VA         BVA        FA
  0 C      6.4864     6.0000    -0.4864     3.7658     3.7658     0.0000
  1 C      6.0089     6.0000    -0.0089     3.5197     3.5197    -0.0000
  2 C      6.5101     6.0000    -0.5101     3.7586     3.7586    -0.0000
  3 C      6.3486     6.0000    -0.3486     3.4945     3.4945    -0.0000
  4 C      5.8273     6.0000     0.1727     3.4982     3.4982    -0.0000
  5 C      6.5158     6.0000    -0.5158     3.6920     3.6920    -0.0000
  6 C      6.5212     6.0000    -0.5212     3.6689     3.6689    -0.0000
  7 C      6.4927     6.0000    -0.4927     3.6819     3.6819    -0.0000
  8 H      0.8534     1.0000     0.1466     0.9666     0.9666     0.0000
  9 H      0.8550     1.0000     0.1450     0.9652     0.9652    -0.0000
 10 H      0.8537     1.0000     0.1463     0.9642     0.9642     0.0000
 11 H      0.8468     1.0000     0.1532     0.9604     0.9604    -0.0000
 12 H      0.8583     1.0000     0.1417     0.9653     0.9653    -0.0000
 13 H      0.8604     1.0000     0.1396     0.9665     0.9665     0.0000
 14 H      0.8427     1.0000     0.1573     0.9636     0.9636    -0.0000
 15 H      0.8552     1.0000     0.1448     0.9660     0.9660     0.0000
 16 H      0.8434     1.0000     0.1566     0.9676     0.9676     0.0000
 17 H      0.8432     1.0000     0.1568     0.9632     0.9632     0.0000
 18 H      0.8497     1.0000     0.1503     0.9653     0.9653    -0.0000
 19 H      0.8546     1.0000     0.1454     0.9667     0.9667     0.0000
 20 H      0.8423     1.0000     0.1577     0.9602     0.9602    -0.0000
 21 H      0.8479     1.0000     0.1521     0.9650     0.9650    -0.0000
 22 H      0.8423     1.0000     0.1577     0.9614     0.9614     0.0000
 23 H      0.8462     1.0000     0.1538     0.9641     0.9641     0.0000
 24 H      0.8472     1.0000     0.1528     0.9647     0.9647     0.0000
 25 H      0.8471     1.0000     0.1529     0.9643     0.9643     0.0000

  Mayer bond orders larger than 0.100000
B(  0-C ,  1-C ) :   0.9068 B(  0-C ,  8-H ) :   0.9842 B(  0-C ,  9-H ) :   0.9784 
B(  0-C , 10-H ) :   0.9777 B(  1-C ,  2-C ) :   0.8908 B(  1-C ,  3-C ) :   0.8937 
B(  1-C , 11-H ) :   0.9601 B(  2-C , 12-H ) :   0.9740 B(  2-C , 13-H ) :   0.9684 
B(  2-C , 14-H ) :   0.9894 B(  3-C ,  4-C ) :   0.8716 B(  3-C , 15-H ) :   0.9876 
B(  3-C , 16-H ) :   0.9869 B(  4-C ,  5-C ) :   0.9384 B(  4-C ,  6-C ) :   0.8995 
B(  4-C ,  7-C ) :   0.9343 B(  5-C , 17-H ) :   0.9783 B(  5-C , 18-H ) :   0.9771 
B(  5-C , 19-H ) :   0.9667 B(  6-C , 20-H ) :   0.9751 B(  6-C , 21-H ) :   0.9720 
B(  6-C , 22-H ) :   0.9766 B(  7-C , 23-H ) :   0.9798 B(  7-C , 24-H ) :   0.9759 
B(  7-C , 25-H ) :   0.9775 

-------
TIMINGS
-------

Total SCF time: 0 days 0 hours 0 min 18 sec 

Total time                  ....      18.844 sec
Sum of individual times     ....      18.814 sec  ( 99.8%)

SCF preparation             ....       1.025 sec  (  5.4%)
Fock matrix formation       ....      14.297 sec  ( 75.9%)
  Startup                   ....       0.009 sec  (  0.1% of F)
  Split-RI-J                ....       3.182 sec  ( 22.3% of F)
  XC integration            ....      10.808 sec  ( 75.6% of F)
    Basis function eval.    ....       1.973 sec  ( 18.3% of XC)
    Density eval.           ....       3.691 sec  ( 34.2% of XC)
    XC-Functional eval.     ....       1.118 sec  ( 10.3% of XC)
    XC-Potential eval.      ....       3.743 sec  ( 34.6% of XC)
Diagonalization             ....       0.000 sec  (  0.0%)
Density matrix formation    ....       0.032 sec  (  0.2%)
Total Energy calculation    ....       0.002 sec  (  0.0%)
Population analysis         ....       3.291 sec  ( 17.5%)
Orbital Transformation      ....       0.027 sec  (  0.1%)
Orbital Orthonormalization  ....       0.000 sec  (  0.0%)
DIIS solution               ....       0.115 sec  (  0.6%)
  MO trafo                  ....       0.000 sec  (  0.0 % of DIIS)
  Orb grad                  ....       0.000 sec  (  0.0 % of DIIS)
  Energy W gradient         ....       0.000 sec  (  0.0 % of DIIS)
  DIIS error                ....       0.013 sec  ( 11.3 % of DIIS)
  DIIS work                 ....       0.088 sec  ( 76.7 % of DIIS)
  Form Q                    ....       0.000 sec  (  0.0 % of DIIS)
  Form QpQm                 ....       0.000 sec  (  0.0 % of DIIS)
  Exp/Cayley                ....       0.000 sec  (  0.0 % of DIIS)
  Orb update                ....       0.000 sec  (  0.0 % of DIIS)
  Wake-sleep                ....       0.001 sec  (  1.0 % of DIIS)
SOSCF solution              ....       0.024 sec  (  0.1%)
  MO trafo                  ....       0.019 sec  ( 76.7 % of SOSCF)
  Orb grad                  ....       0.000 sec  (  0.4 % of SOSCF)
  Rot update                ....       0.000 sec  (  0.1 % of SOSCF)
  Step                      ....       0.006 sec  ( 22.5 % of SOSCF)
Finished LeanSCF after  22.1 sec

Maximum memory used throughout the entire LEANSCF-calculation: 29.7 MB


-------------------------------------------------------------------------------
                          DFT DISPERSION CORRECTION                            
                                                                               
                                DFTD4 V3.4.0                                   
-------------------------------------------------------------------------------
The R2SCAN3C composite method is recognized
Using three-body term ABC
Active option DFTDOPT                   ...         5   

-------------------------   ----------------
Dispersion correction           -0.008006149
-------------------------   ----------------

------------------   -----------------
gCP correction             0.012935511
------------------   -----------------

-------------------------   --------------------
FINAL SINGLE POINT ENERGY      -315.586350350431
-------------------------   --------------------


------------------------------------------------------------------------------
                              ORCA PROPERTY CALCULATIONS
------------------------------------------------------------------------------

GBWName                                 ... sp.gbw
Number of atoms                         ...     26
Number of basis functions               ...    242
Max core memory                         ...   1024 MB

Electric properties:
Dipole moment                           ... YES
Quadrupole moment                       ...  NO
Static polarizability (Dipole/Dipole)   ...  NO
Static polarizability (Dipole/Quad.)    ...  NO
Static polarizability (Quad./Quad.)     ...  NO
Static polarizability (Velocity)        ...  NO

Atomic electric properties:
Dipole moment                           ...  NO
Quadrupole moment                       ...  NO
Static polarizability                   ...  NO

Choice of electric origin               ... Center of mass
Position of electric origin             ...    -0.000001    -0.000001    -0.000000

General magnetic properties:
Magnetizability                         ...  NO

EPR properties:
g-Tensor (aka g-matrix)                 ...  NO
Zero-Field splitting spin-orbit         ...  NO
Zero-field splitting spin-spin          ...  NO
Hyperfine couplings                     ...  NO (   0 nuclei)
Quadrupole couplings                    ...  NO (   0 nuclei)
Contact density                         ...  NO (   0 nuclei)

NMR properties:
Chemical shifts                         ...  NO (   0 nuclei)
Spin-rotation constants                 ...  NO (   0 nuclei)
Spin-spin couplings                     ...  NO (   0 nuclei,    0 pairs)

Choice of magnetic origin               ... GIAO
Position of magnetic origin             ...     0.000000     0.000000     0.000000

Properties with geometric perturbations:
SCF Hessian                             ...  NO
IR spectrum                             ...  NO
VCD spectrum                            ...  NO
X-ray spectroscopy properties:
SCF XES/XAS/RIXS spectra                ...  NO


-------------
DIPOLE MOMENT
-------------

Method             : SCF
Type of density    : Electron Density
Multiplicity       :   1
Irrep              :   0
Energy             :  -315.5912797122528559 Eh
Relativity type    : 
Basis              : AO
                                X                 Y                 Z
Electronic contribution:      0.310388779       0.444485521       0.200599019
Nuclear contribution   :     -0.306993252      -0.414278010      -0.217170956
                        -----------------------------------------
Total Dipole Moment    :      0.003395527       0.030207511      -0.016571937
                        -----------------------------------------
Magnitude (a.u.)       :      0.034621560
Magnitude (Debye)      :      0.088001013



--------------------
Rotational spectrum 
--------------------
 
Rotational constants in cm-1:             0.099433             0.040730             0.036864 
Rotational constants in MHz :          2980.927983          1221.057636          1105.145874 

Dipole components along the rotational axes: 
x,y,z [a.u.] :     0.001611     0.010420    -0.032977 
x,y,z [Debye]:     0.004095     0.026486    -0.083820 

 

Dipole moment calculation done in   1.2 sec 

Maximum memory used throughout the entire PROP-calculation: 17.3 MB

--------------------------------
SUGGESTED CITATIONS FOR THIS RUN
--------------------------------

Below you find a list of papers that are relevant to this ORCA run
We neither can nor want to force you to cite these papers, but we appreciate if you do
You receive ORCA, which is the product of decades of hard work by many enthusiastic individuals, for free
The only thing we kindly ask in return is that you cite our papers,
We deeply appreciate it, if you show your appreciation for ORCA by not just citing the generic ORCA reference.

Please note that relegating all ORCA citations to the supporting information does *not* help us.
SI sections are not indexed - citations you put there will not count into any citation statistics
But we need these citations in order to attract the funding resources that allow us to do what we are doing

Therefore, if you are a happy ORCA user, please consider citing a few of the papers listed below in the main body of your paper

In addition to the list printed below, the program has created the file sp.bibtex that contains the list in bibtex format
You can import this file easily into all common literature databanks and citation aid programs


List of essential papers. We consider these as the minimum necessary citations

  1. Neese,F.
     Software update: the ORCA program system, version 5.0
     WIRES Comput. Molec. Sci., 2022 12(1)e1606
     doi.org/10.1002/wcms.1606
  2. Grimme,S.; Hansen,A.; Ehlert,S.; Mewes,J.
     r2SCAN-3c: A 'Swiss army knife' composite electronic-structure method
     J. Chem. Phys., 2021 154 064103
     doi.org/10.1063/5.0040021

List of papers to cite with high priority. The work reported in these papers was absolutely
necessary for this run to complete.
Our perspective: the developers of density functionals and basis sets usually get cited in chemistry papers
Good! But without the algorithms to do something with them, the functionals or basis sets would not do anything.
Hence, in our opinion, the algorithm design and method developments papers are equally worthy of getting cited

  1. Neese,F.
     An improvement of the resolution of the identity approximation for the formation of the Coulomb matrix
     J. Comp. Chem., 2003 24(14)1740-1747
     doi.org/10.1002/jcc.10318
  2. Neese,F.
     The SHARK Integral Generation and Digestion System
     J. Comp. Chem., 2022  1-16
     doi.org/10.1002/jcc.26942
  3. Lehtola,S.; Steigemann,C.; Oliveira,M.; Marques,M.
     Recent developments in Libxc - A comprehensive library of functionals for density functional theory
     Software X, 2018 7 
     doi.org/10.1016/j.softx.2017.11.002
  4. Caldeweyher,E.; Bannwarth,C.; Grimme,S.
     Extension of the D3 dispersion coefficient model
     J. Chem. Phys., 2017 147 034112
     doi.org/10.1063/1.4993215
  5. Caldeweyher,E.; Ehlert,S.; Hansen,A.; Neugebauer,H.; Spicher,S.; Bannwarth,C.; Grimme,S.
     A generally applicable atomic-charge dependent London dispersion correction
     J. Chem. Phys., 2019 150 154122
     doi.org/10.1063/1.5090222
  6. Caldeweyher,E.; Mewes,J.; Ehlert,S.; Grimme,S.
     Extension and evaluation of the D4 London-dispersion model for periodic systems
     Phys. Chem. Chem. Phys., 2020 22(16)8499-8512
     doi.org/10.1039/D0CP00502A
  7. Wittmann,L.; Gordiy,I.; Friede,M.; Helmich-Paris,B.; Grimme,S.; Hansen,A.; Bursch,M.
     Extension of the D3 and D4 London Dispersion Corrections to the full Actinides Series
     Phys. Chem. Chem. Phys., 2024 26(32)21379-21394
     doi.org/https://doi.org/10.1039/D4CP01514B 

List of suggested additional citations. These are papers that are important in the 'surrounding' of 
of this run, or papers that preceded the highly important papers. If you like your results we are grateful for a citation.

  1. Neese,F.
     The ORCA program system
     WIRES Comput. Molec. Sci., 2012 2(1)73-78
     doi.org/10.1002/wcms.81
  2. Neese,F.
     Software update: the ORCA program system, version 4.0
     WIRES Comput. Molec. Sci., 2018 8(1)1-6
     doi.org/10.1002/wcms.1327
  3. Neese,F.; Wennmohs,F.; Becker,U.; Riplinger,C.
     The ORCA quantum chemistry program package
     J. Chem. Phys., 2020 152 Art. No. L224108
     doi.org/10.1063/5.0004608

List of optional additional citations

  1. Neese,F.
     Approximate second-order SCF convergence for spin unrestricted wavefunctions
     Chem. Phys. Lett., 2000 325(1-3)93-98
     doi.org/10.1016/s0009-2614(00)00662-x

Timings for individual modules:

Sum of individual times          ...       24.514 sec (=   0.409 min)
Startup calculation              ...        1.097 sec (=   0.018 min)   4.5 %
SCF iterations                   ...       22.198 sec (=   0.370 min)  90.5 %
Property calculations            ...        1.220 sec (=   0.020 min)   5.0 %
                             ****ORCA TERMINATED NORMALLY****
TOTAL RUN TIME: 0 days 0 hours 0 minutes 27 seconds 447 msec
