
                                 *****************
                                 * O   R   C   A *
                                 *****************

                                            #,                                       
                                            ###                                      
                                            ####                                     
                                            #####                                    
                                            ######                                   
                                           ########,                                 
                                     ,,################,,,,,                         
                               ,,#################################,,                 
                          ,,##########################################,,             
                       ,#########################################, ''#####,          
                    ,#############################################,,   '####,        
                  ,##################################################,,,,####,       
                ,###########''''           ''''###############################       
              ,#####''   ,,,,##########,,,,          '''####'''          '####       
            ,##' ,,,,###########################,,,                        '##       
           ' ,,###''''                  '''############,,,                           
         ,,##''                                '''############,,,,        ,,,,,,###''
      ,#''                                            '''#######################'''  
     '                                                          ''''####''''         
             ,#######,   #######,   ,#######,      ##                                
            ,#'     '#,  ##    ##  ,#'     '#,    #''#        ,####,   ,####,        
            ##       ##  ##   ,#'  ##            #'  '#       #'       #'  '#        
            ##       ##  #######   ##           ,######,      #####,   #    #        
            '#,     ,#'  ##    ##  '#,     ,#' ,#      #,     #,   #   #,  ,#        
             '#######'   ##     ##  '#######'  #'      '#     '####' # '####'        



                #########################################################
                #                        -***-                          #
                #          Department of theory and spectroscopy        #
                #                                                       #
                #                      Frank Neese                      #
                #                                                       #
                #     Directorship, Architecture, Infrastructure        #
                #                    SHARK, DRIVERS                     #
                #        Core code/Algorithms in most modules           #
                #                                                       #
                #        Max Planck Institute fuer Kohlenforschung      #
                #                Kaiser Wilhelm Platz 1                 #
                #                 D-45470 Muelheim/Ruhr                 #
                #                      Germany                          #
                #                                                       #
                #                  All rights reserved                  #
                #                        -***-                          #
                #########################################################


                         Program Version 6.0.1  -  RELEASE   -


 With contributions from (in alphabetic order):
[Max-Planck-Institut fuer Kohlenforschung]                               
  Daniel Aravena         : Magnetic Suceptibility                        
  Michael Atanasov       : Ab Initio Ligand Field Theory (pilot matlab implementation)
  Alexander A. Auer      : GIAO ZORA, VPT2 properties, NMR spectrum      
  Ute Becker             : All parallelization in ORCA, NUMFREQ, NUMCALC 
  Giovanni Bistoni       : ED, misc. LED, open-shell LED, HFLD           
  Martin Brehm           : Molecular dynamics                            
  Dmytro Bykov           : pre 5.0 version of the SCF Hessian            
  Marcos Casanova-Páez   : Triplet and SCS-CIS(D). UHF-(DLPNO)-IP/EA/STEOM-CCSD. UHF-CVS-IP/STEOM-CCSD   
  Vijay G. Chilkuri      : MRCI spin determinant printing, contributions to CSF-ICE 
  Pauline Colinet        : FMM embedding                                 
  Dipayan Datta          : RHF DLPNO-CCSD density                        
  Achintya Kumar Dutta   : EOM-CC, STEOM-CC                              
  Nicolas Foglia         : Exact transition moments, OPA infrastructure, MCD improvements    
  Dmitry Ganyushin       : Spin-Orbit,Spin-Spin,Magnetic field MRCI      
  Miquel Garcia-Rates    : C-PCM and meta-GGA Hessian, CCSD/C-PCM, Gaussian charge scheme 
  Tiago L. C. Gouveia    : GS-ROHF, GS-ROCIS                             
  Yang Guo               : DLPNO-NEVPT2, F12-NEVPT2, CIM, IAO-localization        
  Andreas Hansen         : Spin unrestricted coupled pair/coupled cluster methods 
  Ingolf Harden          : AUTO-CI MPn and infrastructure                
  Benjamin Helmich-Paris : MC-RPA, TRAH-(SCF,CASSCF), AVAS, COSX integrals, SCF dyn. polar. 
  Lee Huntington         : MR-EOM, pCC                                   
  Robert Izsak           : Overlap fitted RIJCOSX, COSX-SCS-MP3, EOM     
  Riya Kayal             : Wick's Theorem for AUTO-CI, AUTO-CI UHF-CCSDT 
  Emily Kempfer          : AUTO-CI, RHF CISDT and CCSDT                  
  Christian Kollmar      : KDIIS, OOCD, Brueckner-CCSD(T), CCSD density, CASPT2, CASPT2-K, improved NEVPT2 
  Axel Koslowski         : Symmetry handling                             
  Simone Kossmann        : meta-GGA functionals, TD-DFT gradient, OOMP2, (MP2 Hessian; deprecated post 5.0) 
  Lucas Lang             : DCDCAS                                        
  Marvin Lechner         : AUTO-CI (C++ implementation), FIC-MRCC        
  Spencer Leger          : CASSCF response                               
  Dagmar Lenk            : GEPOL surface, SMD, ORCA-2-JSON               
  Dimitrios Liakos       : Extrapolation schemes; Compound Job, initial MDCI parallelization 
  Dimitrios Manganas     : Further ROCIS development; embedding schemes. LFT, Crystal Embedding 
  Dimitrios Pantazis     : SARC Basis sets                               
  Anastasios Papadopoulos: AUTO-CI, single reference methods and gradients 
  Taras Petrenko         : pre 6.0 DFT Hessian and TD-DFT gradient, (ASA, deprecated), ECA, 1-Electron XAS/XES, NRVS 
  Peter Pinski           : DLPNO-MP2, DLPNO-MP2 Gradient                 
  Christoph Reimann      : Effective Core Potentials                     
  Marius Retegan         : Local ZFS, SOC                                
  Christoph Riplinger    : Optimizer, TS searches, QM/MM, DLPNO-CCSD(T), (RO)-DLPNO pert. Triples 
  Michael Roemelt        : Original ROCIS implementation                 
  Masaaki Saitow         : Open-shell DLPNO-CCSD energy and density      
  Barbara Sandhoefer     : DKH picture change effects                    
  Kantharuban Sivalingam : CASSCF convergence/infrastructure, NEVPT2 and variants, FIC-MRCI 
  Bernardo de Souza      : ESD, SOC TD-DFT                               
  Georgi L. Stoychev     : AutoAux, RI-MP2 NMR, DLPNO-MP2 response, X2C  
  Van Anh Tran           : RI-MP2 g-tensors                              
  Willem Van den Heuvel  : Paramagnetic NMR                              
  Zikuan Wang            : NOTCH, Electric field optimization            
  Frank Wennmohs         : Technical directorship and infrastructure     
  Hang Xu                : AUTO-CI-Response properties                   
                                                                         
[FACCTs GmbH]                                                            
  Markus Bursch, Miquel Garcia-Rates, Christoph Riplinger, Bernardo de Souza, Georgi L. Stoychev 
                                                                 
  APM, Basis sets (HGBS, AHGBS, def-TZVP (Ac-Lr), def2-XVPD (La-Lu)), CI-OPT, improved COSX, DLPNO-Multilevel,           
  DOCKER, DRACO, updates on ESD, GOAT, IRC, LR-CPCM, MBIS, meta-GGA TD-DFT gradient, ML-optimized integration grids, 
  MM, NACMEs, nearIR, NEB, NEB-TS, NL-DFT gradient (VV10), 2- and 3-layer-ONIOM, interface openCOSMO-RS, QMMM,   
  Crystal-QMMM, SF, symmetry and pop. for TD-DFT, r2SCAN hybrids, SOLVATOR                                   
                                                                         
[Other institutions]                                                     
  V. Asgeirsson          : NEB                                           
  Christoph Bannwarth    : sTDA-DFT, sTD-DFT, PBEh-3c, B97-3c, D3        
  Sebastian Ehlert       : rSCAN, r2SCAN, r2SCAN-3c, D4, dhf basis sets  
  Marvin Friede          : D4 for Fr, Ra, Ac-Lr                          
  Lars Goerigk           : TD-DFT with DH, B97 family of functionals     
  Stefan Grimme          : VdW corrections, initial TS optimization, DFT functionals, gCP, sTDA/sTD-DF 
  Waldemar Hujo          : DFT-NL                                        
  H. Jonsson             : NEB                                           
  Holger Kruse           : gCP                                           
  Marcel Mueller         : wB97X-3c, vDZP basis set                      
  Hagen Neugebauer       : wr2SCAN                                       
  Tobias Risthaus        : range-separated hybrid DFT                    
  Lukas Wittmann         : regularized MP2, r2SCAN double-hybrids, wr2SCAN        
                                                                         
We gratefully acknowledge several colleagues who have allowed us to      
interface, adapt or use parts of their codes:                            
  Ed Valeev, F. Pavosevic, A. Kumar             : LibInt (2-el integral package), F12 methods 
  Garnet Chan, S. Sharma, J. Yang, R. Olivares  : DMRG                   
  Ulf Ekstrom                                   : XCFun DFT Library      
  Mihaly Kallay                                 : mrcc  (arbitrary order and MRCC methods)
  Frank Weinhold                                : gennbo (NPA and NBO analysis)           
  Simon Mueller                                 : openCOSMO-RS                            
  Christopher J. Cramer and Donald G. Truhlar   : smd solvation model                     
  S Lehtola, MJT Oliveira, MAL Marques          : LibXC Library                           
  Liviu Ungur et al                             : ANISO software                          


 Your calculation uses the libint2 library for the computation of 2-el integrals
 For citations please refer to: http://libint.valeyev.net

 Your ORCA version has been built with support for libXC version: 6.2.2
 For citations please refer to: https://libxc.gitlab.io

 This ORCA versions uses:
   CBLAS   interface :  Fast vector & matrix operations
   LAPACKE interface :  Fast linear algebra routines
   SCALAPACK package :  Parallel linear algebra routines
   Shared memory     :  Shared parallel matrices
   BLAS/LAPACK       :  OpenBLAS 0.3.27  USE64BITINT DYNAMIC_ARCH NO_AFFINITY Zen SINGLE_THREADED
        Core in use  :  Zen
   Copyright (c) 2011-2014, The OpenBLAS Project


Your calculation utilizes the geometrical counterpoise correction gCP
Please cite in your paper:
H.Kruse, S. Grimme J.Chem.Phys., 136, (2012), 154101 
   

Your calculation utilizes the atom-pairwise dispersion correction
based on EEQ partial charges (D4)


================================================================================

----- Orbital basis set information -----
Your calculation utilizes the basis: def2-SV(P)
   F. Weigend and R. Ahlrichs, Phys. Chem. Chem. Phys. 7, 3297 (2005).

----- AuxJ basis set information -----
Your calculation utilizes the auxiliary basis: def2/J
   F. Weigend, Phys. Chem. Chem. Phys. 8, 1057 (2006).

================================================================================
                                        WARNINGS
                       Please study these warnings very carefully!
================================================================================


================================================================================
                                       INPUT FILE
================================================================================
NAME = sp.inp
|  1> ! pbe def2-sv(p) def2/J RI DEFGRID1 loosescf d4 GCP(DFT/SV(P)) printgap
|  2> %output
|  3>     printlevel normal
|  4> end
|  5> * xyz 0 1
|  6> C -1.8060544969 -1.018537907 -0.6899557322
|  7> C -1.0370483299 -0.4479790948 0.5208693224
|  8> H -1.6952555646 -0.5270473489 1.3981194365
|  9> C -0.6954553137 1.0427823394 0.352753224
| 10> H -1.5358378719 1.5363872445 -0.1458015759
| 11> C 0.5781995734 1.2464565138 -0.49579668
| 12> H 0.8547141799 2.3101697305 -0.4047788549
| 13> C 1.7239830096 0.3771293233 0.0634559402
| 14> H 2.5816705663 0.4131298672 -0.6298520299
| 15> C 1.2595655342 -1.0946288465 0.1395142956
| 16> H 2.0010819818 -1.6751288895 0.7005893702
| 17> O 0.0880099311 -1.231277779 0.891730694
| 18> O 1.1913259752 -1.6565393828 -1.1282178466
| 19> O 2.1101352485 0.7774435604 1.3549362518
| 20> O 0.3098766801 0.9206983856 -1.8439361567
| 21> O -0.5405974683 1.672606972 1.5962610573
| 22> O -3.1605974525 -0.6486796889 -0.6657532212
| 23> H -1.6879663926 -2.1107073213 -0.6874842666
| 24> H -1.4227127735 -0.6141961 -1.6278020091
| 25> H 0.6409107291 -1.0914809625 -1.6928788984
| 26> H 2.4169616552 1.6921489074 1.3306522567
| 27> H 1.0209008082 1.2538276297 -2.4032226735
| 28> H 0.1525628169 1.1967904038 2.0804707398
| 29> H -3.5740611346 -1.0067306555 0.1283292842
| 30> *
| 31> 
| 32>                          ****END OF INPUT****
================================================================================

                       ****************************
                       * Single Point Calculation *
                       ****************************

---------------------------------
CARTESIAN COORDINATES (ANGSTROEM)
---------------------------------
  C     -1.806054   -1.018538   -0.689956
  C     -1.037048   -0.447979    0.520869
  H     -1.695256   -0.527047    1.398119
  C     -0.695455    1.042782    0.352753
  H     -1.535838    1.536387   -0.145802
  C      0.578200    1.246457   -0.495797
  H      0.854714    2.310170   -0.404779
  C      1.723983    0.377129    0.063456
  H      2.581671    0.413130   -0.629852
  C      1.259566   -1.094629    0.139514
  H      2.001082   -1.675129    0.700589
  O      0.088010   -1.231278    0.891731
  O      1.191326   -1.656539   -1.128218
  O      2.110135    0.777444    1.354936
  O      0.309877    0.920698   -1.843936
  O     -0.540597    1.672607    1.596261
  O     -3.160597   -0.648680   -0.665753
  H     -1.687966   -2.110707   -0.687484
  H     -1.422713   -0.614196   -1.627802
  H      0.640911   -1.091481   -1.692879
  H      2.416962    1.692149    1.330652
  H      1.020901    1.253828   -2.403223
  H      0.152563    1.196790    2.080471
  H     -3.574061   -1.006731    0.128329

----------------------------
CARTESIAN COORDINATES (A.U.)
----------------------------
  NO LB      ZA    FRAG     MASS         X           Y           Z
   0 C     6.0000    0    12.011   -3.412948   -1.924758   -1.303827
   1 C     6.0000    0    12.011   -1.959737   -0.846558    0.984300
   2 H     1.0000    0     1.008   -3.203569   -0.995975    2.642063
   3 C     6.0000    0    12.011   -1.314220    1.970573    0.666607
   4 H     1.0000    0     1.008   -2.902313    2.903351   -0.275525
   5 C     6.0000    0    12.011    1.092639    2.355461   -0.936920
   6 H     1.0000    0     1.008    1.615176    4.365588   -0.764921
   7 C     6.0000    0    12.011    3.257856    0.712671    0.119914
   8 H     1.0000    0     1.008    4.878650    0.780702   -1.190248
   9 C     6.0000    0    12.011    2.380234   -2.068549    0.263644
  10 H     1.0000    0     1.008    3.781497   -3.165535    1.323922
  11 O     8.0000    0    15.999    0.166315   -2.326778    1.685127
  12 O     8.0000    0    15.999    2.251280   -3.130406   -2.132023
  13 O     8.0000    0    15.999    3.987578    1.469155    2.560458
  14 O     8.0000    0    15.999    0.585582    1.739868   -3.484534
  15 O     8.0000    0    15.999   -1.021581    3.160769    3.016496
  16 O     8.0000    0    15.999   -5.972664   -1.225827   -1.258091
  17 H     1.0000    0     1.008   -3.189794   -3.988659   -1.299157
  18 H     1.0000    0     1.008   -2.688538   -1.160662   -3.076100
  19 H     1.0000    0     1.008    1.211146   -2.062600   -3.199077
  20 H     1.0000    0     1.008    4.567396    3.197698    2.514568
  21 H     1.0000    0     1.008    1.929223    2.369391   -4.541433
  22 H     1.0000    0     1.008    0.288302    2.261606    3.931520
  23 H     1.0000    0     1.008   -6.753997   -1.902445    0.242507

--------------------------------
INTERNAL COORDINATES (ANGSTROEM)
--------------------------------
 C      0   0   0     0.000000000000     0.00000000     0.00000000
 C      1   0   0     1.543698531421     0.00000000     0.00000000
 H      2   1   0     1.099570968745   107.51762835     0.00000000
 C      2   1   3     1.538609263249   112.51997361   242.62676502
 H      4   2   1     1.094735372119   108.43311565    37.62632769
 C      4   2   1     1.543929039927   111.77845399   277.60209463
 H      6   4   2     1.102828354494   106.78139732   190.54456543
 C      6   4   2     1.543150329687   109.81716094   308.71106885
 H      8   6   4     1.103449104165   109.33200968   171.77692045
 C      8   6   4     1.545166843825   109.34498611    54.69917341
 H     10   8   6     1.096189847299   109.04332414   190.12969191
 O     10   8   6     1.398944234746   111.79051882   304.39196936
 O     10   8   6     1.388360498064   110.81353512    73.05057751
 O      8   6   4     1.406160174121   112.10944145   294.99482104
 O      6   4   2     1.412655507119   109.71803048    70.86833361
 O      4   2   1     1.402487701048   111.26894479   154.58292712
 O      1   2   3     1.404338805844   111.69305907    39.52815313
 H      1   2   3     1.098537636156   108.18872313   276.52138564
 H      1   2   3     1.090870667349   111.24043864   156.29639745
 H     13  10   8     0.970097966657   108.88291408   306.64806599
 H     14   8   6     0.965100009376   109.51274864   299.70347963
 H     15   6   4     0.964018574452   109.50471832   165.80341177
 H     16   4   2     0.970222450873   107.52653315    57.28061027
 H     17   1   2     0.964219755285   109.26854750   298.39240113

---------------------------
INTERNAL COORDINATES (A.U.)
---------------------------
 C      0   0   0     0.000000000000     0.00000000     0.00000000
 C      1   0   0     2.917167457721     0.00000000     0.00000000
 H      2   1   0     2.077887995738   107.51762835     0.00000000
 C      2   1   3     2.907550134655   112.51997361   242.62676502
 H      4   2   1     2.068750042422   108.43311565    37.62632769
 C      4   2   1     2.917603055670   111.77845399   277.60209463
 H      6   4   2     2.084043562717   106.78139732   190.54456543
 C      6   4   2     2.916131506579   109.81716094   308.71106885
 H      8   6   4     2.085216609593   109.33200968   171.77692045
 C      8   6   4     2.919942166045   109.34498611    54.69917341
 H     10   8   6     2.071498602180   109.04332414   190.12969191
 O     10   8   6     2.643621480299   111.79051882   304.39196936
 O     10   8   6     2.623621116495   110.81353512    73.05057751
 O      8   6   4     2.657257629515   112.10944145   294.99482104
 O      6   4   2     2.669532030031   109.71803048    70.86833361
 O      4   2   1     2.650317661173   111.26894479   154.58292712
 O      1   2   3     2.653815742284   111.69305907    39.52815313
 H      1   2   3     2.075935280141   108.18872313   276.52138564
 H      1   2   3     2.061446808818   111.24043864   156.29639745
 H     13  10   8     1.833219480055   108.88291408   306.64806599
 H     14   8   6     1.823774709565   109.51274864   299.70347963
 H     15   6   4     1.821731093728   109.50471832   165.80341177
 H     16   4   2     1.833454721133   107.52653315    57.28061027
 H     17   1   2     1.822111270405   109.26854750   298.39240113

---------------------
BASIS SET INFORMATION
---------------------
There are 3 groups of distinct atoms

 Group   1 Type C   : 7s4p1d contracted to 3s2p1d pattern {511/31/1}
 Group   2 Type H   : 4s contracted to 2s pattern {31}
 Group   3 Type O   : 7s4p1d contracted to 3s2p1d pattern {511/31/1}

Atom   0C    basis set group =>   1
Atom   1C    basis set group =>   1
Atom   2H    basis set group =>   2
Atom   3C    basis set group =>   1
Atom   4H    basis set group =>   2
Atom   5C    basis set group =>   1
Atom   6H    basis set group =>   2
Atom   7C    basis set group =>   1
Atom   8H    basis set group =>   2
Atom   9C    basis set group =>   1
Atom  10H    basis set group =>   2
Atom  11O    basis set group =>   3
Atom  12O    basis set group =>   3
Atom  13O    basis set group =>   3
Atom  14O    basis set group =>   3
Atom  15O    basis set group =>   3
Atom  16O    basis set group =>   3
Atom  17H    basis set group =>   2
Atom  18H    basis set group =>   2
Atom  19H    basis set group =>   2
Atom  20H    basis set group =>   2
Atom  21H    basis set group =>   2
Atom  22H    basis set group =>   2
Atom  23H    basis set group =>   2
---------------------------------
AUXILIARY/J BASIS SET INFORMATION
---------------------------------
There are 3 groups of distinct atoms

 Group   1 Type C   : 12s5p4d2f1g contracted to 6s4p3d1f1g pattern {711111/2111/211/2/1}
 Group   2 Type H   : 5s2p1d contracted to 3s1p1d pattern {311/2/1}
 Group   3 Type O   : 12s5p4d2f1g contracted to 6s4p3d1f1g pattern {711111/2111/211/2/1}

Atom   0C    basis set group =>   1
Atom   1C    basis set group =>   1
Atom   2H    basis set group =>   2
Atom   3C    basis set group =>   1
Atom   4H    basis set group =>   2
Atom   5C    basis set group =>   1
Atom   6H    basis set group =>   2
Atom   7C    basis set group =>   1
Atom   8H    basis set group =>   2
Atom   9C    basis set group =>   1
Atom  10H    basis set group =>   2
Atom  11O    basis set group =>   3
Atom  12O    basis set group =>   3
Atom  13O    basis set group =>   3
Atom  14O    basis set group =>   3
Atom  15O    basis set group =>   3
Atom  16O    basis set group =>   3
Atom  17H    basis set group =>   2
Atom  18H    basis set group =>   2
Atom  19H    basis set group =>   2
Atom  20H    basis set group =>   2
Atom  21H    basis set group =>   2
Atom  22H    basis set group =>   2
Atom  23H    basis set group =>   2
------------------------------------------------------------------------------
                             ORCA STARTUP CALCULATIONS
                           -- RI-GTO INTEGRALS CHOSEN --
------------------------------------------------------------------------------
------------------------------------------------------------------------------
                   ___                                                        
                  /   \      - P O W E R E D   B Y -                         
                 /     \                                                     
                 |  |  |   _    _      __       _____    __    __             
                 |  |  |  | |  | |    /  \     |  _  \  |  |  /  |          
                  \  \/   | |  | |   /    \    | | | |  |  | /  /          
                 / \  \   | |__| |  /  /\  \   | |_| |  |  |/  /          
                |  |  |   |  __  | /  /__\  \  |    /   |      \           
                |  |  |   | |  | | |   __   |  |    \   |  |\   \          
                \     /   | |  | | |  |  |  |  | |\  \  |  | \   \       
                 \___/    |_|  |_| |__|  |__|  |_| \__\ |__|  \__/        
                                                                              
                      - O R C A' S   B I G   F R I E N D -                    
                                      &                                       
                       - I N T E G R A L  F E E D E R -                       
                                                                              
 v1 FN, 2020, v2 2021, v3 2022-2024                                           
------------------------------------------------------------------------------


----------------------
SHARK INTEGRAL PACKAGE
----------------------

Number of atoms                             ...     24
Number of basis functions                   ...    192
Number of shells                            ...     96
Maximum angular momentum                    ...      2
Integral batch strategy                     ... SHARK/LIBINT Hybrid
RI-J (if used) integral strategy            ... SPLIT-RIJ (Revised 2003 algorithm where possible)
Printlevel                                  ...      1
Contraction scheme used                     ... SEGMENTED contraction
Prescreening option                         ... SCHWARTZ
   Thresh                                   ... 1.000e-09
   Tcut                                     ... 1.000e-10
   Tpresel                                  ... 1.000e-10 
Coulomb Range Separation                    ... NOT USED
Exchange Range Separation                   ... NOT USED
Multipole approximations                    ... NOT USED
Finite Nucleus Model                        ... NOT USED
CABS basis                                  ... NOT available
Auxiliary Coulomb fitting basis             ... AVAILABLE
   # of basis functions in Aux-J            ...    720
   # of shells in Aux-J                     ...    240
   Maximum angular momentum in Aux-J        ...      4
Auxiliary J/K fitting basis                 ... NOT available
Auxiliary Correlation fitting basis         ... NOT available
Auxiliary 'external' fitting basis          ... NOT available

Checking pre-screening integrals            ... done (  0.0 sec) Dimension = 96
Check shell pair data                       ... done (  0.0 sec)
Shell pair information
Shell pair cut-off parameter TPreSel        ...   1.0e-10
Total number of shell pairs                 ...      4656
Shell pairs after pre-screening             ...      4280
Total number of primitive shell pairs       ...     18720
Primitive shell pairs kept                  ...     11631
          la=0 lb=0:   1663 shell pairs
          la=1 lb=0:   1352 shell pairs
          la=1 lb=1:    291 shell pairs
          la=2 lb=0:    635 shell pairs
          la=2 lb=1:    270 shell pairs
          la=2 lb=2:     69 shell pairs

Calculating one electron integrals          ... done (  0.0 sec)
Calculating RI/J V-Matrix + Cholesky decomp.... done (  0.0 sec)
Calculating Nuclear repulsion               ... done (  0.0 sec) ENN=    860.823823837041 Eh

Diagonalization of the overlap matrix:
Smallest eigenvalue                        ... 8.073e-04
Time for diagonalization                   ...    0.003 sec
Threshold for overlap eigenvalues          ... 1.000e-07
Number of eigenvalues below threshold      ... 0
Time for construction of square roots      ...    0.003 sec
Total time needed                          ...    0.008 sec

-------------------
DFT GRID GENERATION
-------------------

General Integration Accuracy     IntAcc      ... 4.159
Radial Grid Type                 RadialGrid  ... OptM3 with GC (2021)
Angular Grid (max. ang.)         AngularGrid ... 3 (Lebedev-194)
Angular grid pruning method      GridPruning ... 4 (adaptive)
Weight generation scheme         WeightScheme... mBecke (2022)
Basis function cutoff            BFCut       ... 1.0000e-10
Integration weight cutoff        WCut        ... 1.0000e-14
Partially contracted basis set               ... off
Rotationally invariant grid construction     ... off
Angular grids for H and He will be reduced by one unit

Total number of grid points                  ...    55557
Total number of batches                      ...      882
Average number of points per batch           ...       62
Average number of grid points per atom       ...     2315
Initializing property integral containers    ... done (  0.0 sec)

SHARK setup successfully completed in   0.6 seconds

Maximum memory used throughout the entire STARTUP-calculation: 28.9 MB
-------------------------------------------------------------------------------
                                 ORCA GUESS
                   Start orbitals & Density for SCF / CASSCF
-------------------------------------------------------------------------------

------------
SCF SETTINGS
------------
Hamiltonian:
 Density Functional     Method          .... DFT(GTOs)
 Exchange Functional    Exchange        .... PBE
   PBE kappa parameter   XKappa         ....  0.804000
   PBE mue parameter    XMuePBE         ....  0.219520
 Correlation Functional Correlation     .... PBE
   PBE beta parameter  CBetaPBE         ....  0.066725
 LDA part of GGA corr.  LDAOpt          .... PW91-LDA
 Gradients option       PostSCFGGA      .... off
   NL short-range parameter             ....  6.400000
 RI-approximation to the Coulomb term is turned on
   Number of AuxJ basis functions       .... 720


General Settings:
 Integral files         IntName         .... sp
 Hartree-Fock type      HFTyp           .... RHF
 Total Charge           Charge          ....    0
 Multiplicity           Mult            ....    1
 Number of Electrons    NEL             ....   96
 Basis Dimension        Dim             ....  192
 Nuclear Repulsion      ENuc            ....    860.8238238370 Eh

Convergence Acceleration:
 AO-DIIS                CNVDIIS         .... on
   Start iteration      DIISMaxIt       ....    12
   Startup error        DIISStart       ....  0.200000
   # of expansion vecs  DIISMaxEq       ....     5
   Bias factor          DIISBfac        ....   1.050
   Max. coefficient     DIISMaxC        ....  10.000
 MO-DIIS                CNVKDIIS        .... off
 Trust-Rad. Augm. Hess. CNVTRAH         .... auto
   Auto Start mean grad. ratio tolernc. ....  1.125000
   Auto Start start iteration           ....    50
   Auto Start num. interpolation iter.  ....    10
   Max. Number of Micro iterations      ....    24
   Max. Number of Macro iterations      .... Maxiter - #DIIS iter
   Number of Davidson start vectors     ....     2
   Converg. threshold    (grad. norm)   ....   1.000e-04
   Grad. Scal. Fac. for Micro threshold ....   0.100
   Minimum threshold for Micro iter.    ....   1.000e-02
   NR start threshold (gradient norm)   ....   1.000e-04
   Initial trust radius                 ....   0.400
   Minimum AH scaling param. (alpha)    ....   1.000
   Maximum AH scaling param. (alpha)    .... 1000.000
   Quad. conv. algorithm                .... NR
   White noise on init. David. guess    .... on
   Maximum white noise                  ....   0.010
   Pseudo random numbers                .... off
   Inactive MOs                         .... canonical
   Orbital update algorithm             .... Taylor
   Preconditioner                       .... Diag
   Full preconditioner red. dimension   ....   250
 SOSCF                  CNVSOSCF        .... on
   Start iteration      SOSCFMaxIt      ....   150
   Startup grad/error   SOSCFStart      ....  0.003300
   Hessian update       SOSCFHessUp     .... L-BFGS
 Level Shifting         CNVShift        .... on
   Level shift para.    LevelShift      ....    0.2500
   Turn off err/grad.   ShiftErr        ....    0.0010
 Zerner damping         CNVZerner       .... off
 Static damping         CNVDamp         .... on
   Fraction old density DampFac         ....    0.7000
   Max. Damping (<1)    DampMax         ....    0.9800
   Min. Damping (>=0)   DampMin         ....    0.0000
   Turn off err/grad.   DampErr         ....    0.1000

SCF Procedure:
 Maximum # iterations   MaxIter         ....   125
 SCF integral mode      SCFMode         .... Direct
   Integral package                     .... SHARK and LIBINT hybrid scheme
 Reset frequency        DirectResetFreq ....    20
 Integral Threshold     Thresh          ....  1.000e-09 Eh
 Primitive CutOff       TCut            ....  1.000e-10 Eh

Convergence Tolerance:
 Convergence Check Mode ConvCheckMode   .... Total+1el-Energy
 Convergence forced     ConvForced      .... 0
 Energy Change          TolE            ....  1.000e-05 Eh
 1-El. energy change                    ....  1.000e-02 Eh
 Orbital Gradient       TolG            ....  1.000e-04
 Orbital Rotation angle TolX            ....  1.000e-04
 DIIS Error             TolErr          ....  5.000e-04

------------------------------
INITIAL GUESS: MODEL POTENTIAL
------------------------------
Loading Hartree-Fock densities                     ... done
Calculating cut-offs                               ... done
Initializing the effective Hamiltonian             ... done
Setting up the integral package (SHARK)            ... done
Starting the Coulomb interaction                   ... done (   0.3 sec)
Making the grid                                    ... done (   0.2 sec)
Mapping shells                                     ... done
Starting the XC term evaluation                    ... done (   0.2 sec)
  promolecular density results
     # of electrons  =     95.993643668
     EX              =    -83.242875231
     EC              =     -3.276803707
     EX+EC           =    -86.519678938
Transforming the Hamiltonian                       ... done (   0.0 sec)
Diagonalizing the Hamiltonian                      ... done (   0.0 sec)
Back transforming the eigenvectors                 ... done (   0.0 sec)
Now organizing SCF variables                       ... done
                      ------------------
                      INITIAL GUESS DONE (   0.7 sec)
                      ------------------
             **** ENERGY FILE WAS UPDATED (sp.en.tmp) ****
Finished Guess after   0.8 sec
Maximum memory used throughout the entire GUESS-calculation: 22.7 MB

-------------------------------------------------------------------------------------------
                                      ORCA LEAN-SCF
                              memory conserving SCF solver
-------------------------------------------------------------------------------------------

----------------------------------------D-I-I-S--------------------------------------------
Iteration    Energy (Eh)           Delta-E    RMSDP     MaxDP     DIISErr   Damp  Time(sec)
-------------------------------------------------------------------------------------------
               ***  Starting incremental Fock matrix formation  ***
    1    -685.5279606285718046     0.00e+00  4.49e-03  9.26e-02  2.27e-01  0.700   0.8
    2    -685.6754179046578201    -1.47e-01  2.91e-03  6.79e-02  8.69e-02  0.700   0.8
                               ***Turning on AO-DIIS***
    3    -685.7226164239447144    -4.72e-02  1.07e-03  2.33e-02  2.01e-02  0.700   0.8
    4    -685.7538566647800735    -3.12e-02  1.46e-03  2.70e-02  9.22e-03  0.000   0.7
    5    -685.8257934542392604    -7.19e-02  4.34e-04  1.39e-02  4.32e-03  0.000   0.9
                              *** Initializing SOSCF ***
---------------------------------------S-O-S-C-F--------------------------------------
Iteration    Energy (Eh)           Delta-E    RMSDP     MaxDP     MaxGrad    Time(sec)
--------------------------------------------------------------------------------------
    6    -685.8261023967928622    -3.09e-04  1.33e-04  2.21e-03  1.18e-03     0.7
               *** Restarting incremental Fock matrix formation ***
    7    -685.8261309055461652    -2.85e-05  9.27e-05  1.99e-03  1.99e-04     0.8
    8    -685.8261315990188223    -6.93e-07  3.60e-05  7.40e-04  1.82e-04     0.7
                 **** Energy Check signals convergence ****

               *****************************************************
               *                     SUCCESS                       *
               *           SCF CONVERGED AFTER   8 CYCLES          *
               *****************************************************

             **** ENERGY FILE WAS UPDATED (sp.en.tmp) ****

----------------
TOTAL SCF ENERGY
----------------

Total Energy       :       -685.82613159901882 Eh          -18662.27781 eV

Components:
Nuclear Repulsion  :        860.82382383704100 Eh           23424.20711 eV
Electronic Energy  :      -1546.64995543605983 Eh          -42086.48492 eV
One Electron Energy:      -2650.45526750493536 Eh          -72122.55447 eV
Two Electron Energy:       1103.80531206887554 Eh           30036.06955 eV

Virial components:
Potential Energy   :      -1366.94326408361030 Eh          -37196.41725 eV
Kinetic Energy     :        681.11713248459137 Eh           18534.13943 eV
Virial Ratio       :          2.00691364067917

DFT components:
N(Alpha)           :       47.999994748183 electrons
N(Beta)            :       47.999994748183 electrons
N(Total)           :       95.999989496366 electrons
E(X)               :      -84.606235514160 Eh       
E(C)               :       -3.286506115501 Eh       
E(XC)              :      -87.892741629661 Eh       

---------------
SCF CONVERGENCE
---------------

  Last Energy change         ...    6.9347e-07  Tolerance :   1.0000e-05
  Last MAX-Density change    ...    7.3993e-04  Tolerance :   1.0000e-03
  Last RMS-Density change    ...    3.6042e-05  Tolerance :   1.0000e-04
  Last DIIS Error            ...    1.1769e-03  Tolerance :   5.0000e-04
  Last Orbital Gradient      ...    1.8209e-04  Tolerance :   1.0000e-04
  Last Orbital Rotation      ...    1.9172e-04  Tolerance :   1.0000e-04


----------------
ORBITAL ENERGIES
----------------

  NO   OCC          E(Eh)            E(eV) 
   0   2.0000     -18.791155      -511.3333 
   1   2.0000     -18.780359      -511.0395 
   2   2.0000     -18.763544      -510.5820 
   3   2.0000     -18.752045      -510.2691 
   4   2.0000     -18.747232      -510.1381 
   5   2.0000     -18.744520      -510.0643 
   6   2.0000      -9.984560      -271.6937 
   7   2.0000      -9.961279      -271.0602 
   8   2.0000      -9.955912      -270.9141 
   9   2.0000      -9.944801      -270.6118 
  10   2.0000      -9.941117      -270.5116 
  11   2.0000      -9.926196      -270.1055 
  12   2.0000      -0.985109       -26.8062 
  13   2.0000      -0.960742       -26.1431 
  14   2.0000      -0.952414       -25.9165 
  15   2.0000      -0.928850       -25.2753 
  16   2.0000      -0.923409       -25.1272 
  17   2.0000      -0.906148       -24.6575 
  18   2.0000      -0.706186       -19.2163 
  19   2.0000      -0.695059       -18.9135 
  20   2.0000      -0.619795       -16.8655 
  21   2.0000      -0.591798       -16.1037 
  22   2.0000      -0.580064       -15.7843 
  23   2.0000      -0.530238       -14.4285 
  24   2.0000      -0.515514       -14.0278 
  25   2.0000      -0.489826       -13.3289 
  26   2.0000      -0.481822       -13.1110 
  27   2.0000      -0.461982       -12.5712 
  28   2.0000      -0.456051       -12.4098 
  29   2.0000      -0.430383       -11.7113 
  30   2.0000      -0.420931       -11.4541 
  31   2.0000      -0.404907       -11.0181 
  32   2.0000      -0.389156       -10.5895 
  33   2.0000      -0.376935       -10.2569 
  34   2.0000      -0.366224        -9.9655 
  35   2.0000      -0.356534        -9.7018 
  36   2.0000      -0.337559        -9.1855 
  37   2.0000      -0.314284        -8.5521 
  38   2.0000      -0.307607        -8.3704 
  39   2.0000      -0.301509        -8.2045 
  40   2.0000      -0.294294        -8.0081 
  41   2.0000      -0.270991        -7.3740 
  42   2.0000      -0.265376        -7.2213 
  43   2.0000      -0.256150        -6.9702 
  44   2.0000      -0.236338        -6.4311 
  45   2.0000      -0.223319        -6.0768 
  46   2.0000      -0.218198        -5.9375 
  47   2.0000      -0.200790        -5.4638 
  48   0.0000      -0.005810        -0.1581 
  49   0.0000       0.004966         0.1351 
  50   0.0000       0.029220         0.7951 
  51   0.0000       0.057655         1.5689 
  52   0.0000       0.071114         1.9351 
  53   0.0000       0.078918         2.1475 
  54   0.0000       0.083216         2.2644 
  55   0.0000       0.084805         2.3076 
  56   0.0000       0.093197         2.5360 
  57   0.0000       0.114660         3.1201 
  58   0.0000       0.115937         3.1548 
*Only the first 10 virtual orbitals were printed.

                    ********************************
                    * MULLIKEN POPULATION ANALYSIS *
                    ********************************

-----------------------
MULLIKEN ATOMIC CHARGES
-----------------------
   0 C :    0.012006
   1 C :   -0.004720
   2 H :    0.066125
   3 C :    0.101918
   4 H :    0.086481
   5 C :   -0.015090
   6 H :    0.070315
   7 C :   -0.015049
   8 H :    0.068483
   9 C :    0.224527
  10 H :    0.077776
  11 O :   -0.298347
  12 O :   -0.407406
  13 O :   -0.404190
  14 O :   -0.405235
  15 O :   -0.431157
  16 O :   -0.431118
  17 H :    0.089635
  18 H :    0.098312
  19 H :    0.302257
  20 H :    0.307513
  21 H :    0.313710
  22 H :    0.297556
  23 H :    0.295697
Sum of atomic charges:    0.0000000

--------------------------------
MULLIKEN REDUCED ORBITAL CHARGES
--------------------------------
  0 C s       :     3.043658  s :     3.043658
      pz      :     1.072903  p :     2.881543
      px      :     0.775662
      py      :     1.032979
      dz2     :     0.011985  d :     0.062793
      dxz     :     0.014615
      dyz     :     0.004028
      dx2y2   :     0.018533
      dxy     :     0.013633

  1 C s       :     3.073490  s :     3.073490
      pz      :     1.047696  p :     2.865496
      px      :     0.868185
      py      :     0.949615
      dz2     :     0.010376  d :     0.065734
      dxz     :     0.017071
      dyz     :     0.007371
      dx2y2   :     0.014926
      dxy     :     0.015990

  2 H s       :     0.933875  s :     0.933875

  3 C s       :     3.027231  s :     3.027231
      pz      :     0.810864  p :     2.802285
      px      :     1.019185
      py      :     0.972237
      dz2     :     0.015801  d :     0.068565
      dxz     :     0.017088
      dyz     :     0.016428
      dx2y2   :     0.010187
      dxy     :     0.009060

  4 H s       :     0.913519  s :     0.913519

  5 C s       :     3.085707  s :     3.085707
      pz      :     0.763559  p :     2.863417
      px      :     1.076144
      py      :     1.023714
      dz2     :     0.019339  d :     0.065967
      dxz     :     0.015219
      dyz     :     0.012695
      dx2y2   :     0.011203
      dxy     :     0.007511

  6 H s       :     0.929685  s :     0.929685

  7 C s       :     3.076292  s :     3.076292
      pz      :     0.811602  p :     2.872389
      px      :     0.992293
      py      :     1.068494
      dz2     :     0.016366  d :     0.066369
      dxz     :     0.020254
      dyz     :     0.011944
      dx2y2   :     0.010227
      dxy     :     0.007577

  8 H s       :     0.931517  s :     0.931517

  9 C s       :     2.993400  s :     2.993400
      pz      :     0.802227  p :     2.679634
      px      :     0.897136
      py      :     0.980270
      dz2     :     0.024192  d :     0.102440
      dxz     :     0.028061
      dyz     :     0.018896
      dx2y2   :     0.015225
      dxy     :     0.016067

 10 H s       :     0.922224  s :     0.922224

 11 O s       :     3.742740  s :     3.742740
      pz      :     1.652046  p :     4.540161
      px      :     1.223941
      py      :     1.664174
      dz2     :     0.002184  d :     0.015445
      dxz     :     0.004583
      dyz     :     0.002273
      dx2y2   :     0.002656
      dxy     :     0.003749

 12 O s       :     3.768384  s :     3.768384
      pz      :     1.269343  p :     4.623368
      px      :     1.699916
      py      :     1.654109
      dz2     :     0.002035  d :     0.015654
      dxz     :     0.002734
      dyz     :     0.005581
      dx2y2   :     0.001492
      dxy     :     0.003812

 13 O s       :     3.786342  s :     3.786342
      pz      :     1.445299  p :     4.602315
      px      :     1.794909
      py      :     1.362108
      dz2     :     0.005806  d :     0.015533
      dxz     :     0.002204
      dyz     :     0.001871
      dx2y2   :     0.003693
      dxy     :     0.001959

 14 O s       :     3.785112  s :     3.785112
      pz      :     1.246690  p :     4.604986
      px      :     1.577236
      py      :     1.781060
      dz2     :     0.002170  d :     0.015136
      dxz     :     0.005614
      dyz     :     0.002608
      dx2y2   :     0.002135
      dxy     :     0.002608

 15 O s       :     3.788318  s :     3.788318
      pz      :     1.321020  p :     4.627157
      px      :     1.632293
      py      :     1.673844
      dz2     :     0.002364  d :     0.015682
      dxz     :     0.003056
      dyz     :     0.004495
      dx2y2   :     0.001738
      dxy     :     0.004028

 16 O s       :     3.789509  s :     3.789509
      pz      :     1.525684  p :     4.625785
      px      :     1.310324
      py      :     1.789777
      dz2     :     0.003762  d :     0.015824
      dxz     :     0.003607
      dyz     :     0.003150
      dx2y2   :     0.002306
      dxy     :     0.002999

 17 H s       :     0.910365  s :     0.910365

 18 H s       :     0.901688  s :     0.901688

 19 H s       :     0.697743  s :     0.697743

 20 H s       :     0.692487  s :     0.692487

 21 H s       :     0.686290  s :     0.686290

 22 H s       :     0.702444  s :     0.702444

 23 H s       :     0.704303  s :     0.704303


------------------------
MULLIKEN OVERLAP CHARGES
------------------------
B(  0-C ,  1-C ) :   0.5577 B(  0-C ,  2-H ) :  -0.0681 B(  0-C ,  3-C ) :  -0.0749 
B(  0-C , 11-O ) :  -0.1121 B(  0-C , 16-O ) :   0.6161 B(  0-C , 17-H ) :   0.6380 
B(  0-C , 18-H ) :   0.6797 B(  0-C , 23-H ) :  -0.0959 B(  1-C ,  2-H ) :   0.6337 
B(  1-C ,  3-C ) :   0.5161 B(  1-C ,  4-H ) :  -0.0768 B(  1-C ,  7-C ) :  -0.1213 
B(  1-C ,  9-C ) :  -0.1293 B(  1-C , 11-O ) :   0.5608 B(  1-C , 15-O ) :  -0.0723 
B(  1-C , 16-O ) :  -0.0987 B(  1-C , 17-H ) :  -0.0707 B(  2-H ,  3-C ) :  -0.0541 
B(  3-C ,  4-H ) :   0.6272 B(  3-C ,  5-C ) :   0.2396 B(  3-C ,  6-H ) :  -0.0759 
B(  3-C ,  9-C ) :  -0.0985 B(  3-C , 11-O ) :  -0.0502 B(  3-C , 14-O ) :  -0.0924 
B(  3-C , 15-O ) :   0.6066 B(  3-C , 22-H ) :  -0.1123 B(  4-H , 15-O ) :  -0.0545 
B(  5-C ,  6-H ) :   0.7105 B(  5-C ,  7-C ) :   0.3464 B(  5-C ,  8-H ) :  -0.1300 
B(  5-C , 11-O ) :  -0.0660 B(  5-C , 13-O ) :  -0.0732 B(  5-C , 14-O ) :   0.4616 
B(  5-C , 15-O ) :  -0.0767 B(  5-C , 21-H ) :  -0.0578 B(  6-H ,  7-C ) :  -0.1333 
B(  7-C ,  8-H ) :   0.6774 B(  7-C ,  9-C ) :   0.4221 B(  7-C , 10-H ) :  -0.0721 
B(  7-C , 11-O ) :  -0.0575 B(  7-C , 12-O ) :  -0.0615 B(  7-C , 13-O ) :   0.5065 
B(  7-C , 14-O ) :  -0.0742 B(  7-C , 20-H ) :  -0.0738 B(  8-H ,  9-C ) :  -0.0566 
B(  9-C , 10-H ) :   0.6802 B(  9-C , 11-O ) :   0.6536 B(  9-C , 12-O ) :   0.6814 
B(  9-C , 13-O ) :  -0.0994 B(  9-C , 19-H ) :  -0.1044 B( 10-H , 11-O ) :  -0.0653 
B( 10-H , 12-O ) :  -0.0573 B( 11-O , 12-O ) :  -0.1299 B( 12-O , 19-H ) :   0.5314 
B( 13-O , 20-H ) :   0.5113 B( 13-O , 22-H ) :   0.0942 B( 14-O , 19-H ) :   0.1036 
B( 14-O , 21-H ) :   0.5074 B( 15-O , 22-H ) :   0.5379 B( 16-O , 18-H ) :  -0.0547 
B( 16-O , 23-H ) :   0.5288 B( 17-H , 18-H ) :  -0.0721 


                     *******************************
                     * LOEWDIN POPULATION ANALYSIS *
                     *******************************

----------------------
LOEWDIN ATOMIC CHARGES
----------------------
   0 C :   -0.150760
   1 C :   -0.081232
   2 H :    0.114393
   3 C :   -0.063206
   4 H :    0.124844
   5 C :   -0.084245
   6 H :    0.101803
   7 C :   -0.102118
   8 H :    0.100786
   9 C :    0.001618
  10 H :    0.114669
  11 O :   -0.135854
  12 O :   -0.307682
  13 O :   -0.301083
  14 O :   -0.303018
  15 O :   -0.318071
  16 O :   -0.330148
  17 H :    0.102067
  18 H :    0.113166
  19 H :    0.266981
  20 H :    0.289177
  21 H :    0.295259
  22 H :    0.270340
  23 H :    0.282315

-------------------------------
LOEWDIN REDUCED ORBITAL CHARGES
-------------------------------
  0 C s       :     2.926879  s :     2.926879
      pz      :     1.106187  p :     3.080942
      px      :     0.877691
      py      :     1.097063
      dz2     :     0.027960  d :     0.142940
      dxz     :     0.033746
      dyz     :     0.009529
      dx2y2   :     0.041730
      dxy     :     0.029975

  1 C s       :     2.905994  s :     2.905994
      pz      :     1.086795  p :     3.021654
      px      :     0.925457
      py      :     1.009402
      dz2     :     0.024313  d :     0.153584
      dxz     :     0.042245
      dyz     :     0.016015
      dx2y2   :     0.034956
      dxy     :     0.036055

  2 H s       :     0.885607  s :     0.885607

  3 C s       :     2.885533  s :     2.885533
      pz      :     0.914166  p :     3.019081
      px      :     1.065935
      py      :     1.038980
      dz2     :     0.035314  d :     0.158593
      dxz     :     0.040679
      dyz     :     0.035288
      dx2y2   :     0.027872
      dxy     :     0.019440

  4 H s       :     0.875156  s :     0.875156

  5 C s       :     2.903742  s :     2.903742
      pz      :     0.862522  p :     3.024514
      px      :     1.089792
      py      :     1.072199
      dz2     :     0.043724  d :     0.155989
      dxz     :     0.038064
      dyz     :     0.028527
      dx2y2   :     0.026665
      dxy     :     0.019010

  6 H s       :     0.898197  s :     0.898197

  7 C s       :     2.905631  s :     2.905631
      pz      :     0.907510  p :     3.039367
      px      :     1.051892
      py      :     1.079966
      dz2     :     0.039616  d :     0.157120
      dxz     :     0.047771
      dyz     :     0.025454
      dx2y2   :     0.024246
      dxy     :     0.020034

  8 H s       :     0.899214  s :     0.899214

  9 C s       :     2.876193  s :     2.876193
      pz      :     0.906412  p :     2.892739
      px      :     0.946052
      py      :     1.040275
      dz2     :     0.055436  d :     0.229451
      dxz     :     0.062794
      dyz     :     0.040114
      dx2y2   :     0.036404
      dxy     :     0.034702

 10 H s       :     0.885331  s :     0.885331

 11 O s       :     3.465389  s :     3.465389
      pz      :     1.672356  p :     4.640188
      px      :     1.288993
      py      :     1.678839
      dz2     :     0.003559  d :     0.030277
      dxz     :     0.009811
      dyz     :     0.002896
      dx2y2   :     0.006112
      dxy     :     0.007901

 12 O s       :     3.525349  s :     3.525349
      pz      :     1.349552  p :     4.754757
      px      :     1.720009
      py      :     1.685196
      dz2     :     0.005056  d :     0.027576
      dxz     :     0.004963
      dyz     :     0.010581
      dx2y2   :     0.001673
      dxy     :     0.005303

 13 O s       :     3.533926  s :     3.533926
      pz      :     1.516375  p :     4.739718
      px      :     1.795599
      py      :     1.427744
      dz2     :     0.010486  d :     0.027438
      dxz     :     0.003706
      dyz     :     0.003641
      dx2y2   :     0.006217
      dxy     :     0.003388

 14 O s       :     3.533129  s :     3.533129
      pz      :     1.315855  p :     4.743152
      px      :     1.628863
      py      :     1.798434
      dz2     :     0.005474  d :     0.026738
      dxz     :     0.010193
      dyz     :     0.004750
      dx2y2   :     0.002866
      dxy     :     0.003455

 15 O s       :     3.530824  s :     3.530824
      pz      :     1.389044  p :     4.759958
      px      :     1.663214
      py      :     1.707701
      dz2     :     0.005079  d :     0.027288
      dxz     :     0.005573
      dyz     :     0.008477
      dx2y2   :     0.002358
      dxy     :     0.005800

 16 O s       :     3.539944  s :     3.539944
      pz      :     1.576900  p :     4.762680
      px      :     1.373484
      py      :     1.812297
      dz2     :     0.006589  d :     0.027524
      dxz     :     0.006584
      dyz     :     0.004446
      dx2y2   :     0.004678
      dxy     :     0.005227

 17 H s       :     0.897933  s :     0.897933

 18 H s       :     0.886834  s :     0.886834

 19 H s       :     0.733019  s :     0.733019

 20 H s       :     0.710823  s :     0.710823

 21 H s       :     0.704741  s :     0.704741

 22 H s       :     0.729660  s :     0.729660

 23 H s       :     0.717685  s :     0.717685


---------------------------------
LOEWDIN BOND ORDERS (THRESH 0.050000)
---------------------------------
B(  0-C ,  1-C ) :   1.0486 B(  0-C ,  3-C ) :   0.0574 B(  0-C , 11-O ) :   0.0674 
B(  0-C , 16-O ) :   1.2434 B(  0-C , 17-H ) :   0.9033 B(  0-C , 18-H ) :   0.8991 
B(  1-C ,  2-H ) :   0.8695 B(  1-C ,  3-C ) :   1.0261 B(  1-C ,  5-C ) :   0.0521 
B(  1-C ,  9-C ) :   0.0623 B(  1-C , 11-O ) :   1.1407 B(  1-C , 15-O ) :   0.0768 
B(  1-C , 16-O ) :   0.0871 B(  3-C ,  4-H ) :   0.8680 B(  3-C ,  5-C ) :   1.0125 
B(  3-C ,  7-C ) :   0.0513 B(  3-C , 11-O ) :   0.0565 B(  3-C , 14-O ) :   0.0541 
B(  3-C , 15-O ) :   1.2324 B(  5-C ,  6-H ) :   0.8724 B(  5-C ,  7-C ) :   1.0217 
B(  5-C ,  9-C ) :   0.0525 B(  5-C , 13-O ) :   0.0782 B(  5-C , 14-O ) :   1.1880 
B(  5-C , 15-O ) :   0.0863 B(  7-C ,  8-H ) :   0.8713 B(  7-C ,  9-C ) :   1.0078 
B(  7-C , 11-O ) :   0.0633 B(  7-C , 12-O ) :   0.0810 B(  7-C , 13-O ) :   1.2083 
B(  7-C , 14-O ) :   0.0789 B(  9-C , 10-H ) :   0.8837 B(  9-C , 11-O ) :   1.2045 
B(  9-C , 12-O ) :   1.2879 B(  9-C , 13-O ) :   0.0590 B( 11-O , 12-O ) :   0.0918 
B( 12-O , 19-H ) :   0.8488 B( 13-O , 20-H ) :   0.8762 B( 13-O , 22-H ) :   0.0696 
B( 14-O , 19-H ) :   0.0736 B( 14-O , 21-H ) :   0.8755 B( 15-O , 22-H ) :   0.8587 
B( 16-O , 23-H ) :   0.8888 

------------------------------------------
LOEWDIN REDUCED ORBITAL POPULATIONS PER MO
-------------------------------------------
THRESHOLD FOR PRINTING IS 0.1%%
                      0         1         2         3         4         5   
                 -18.79115 -18.78036 -18.76354 -18.75205 -18.74723 -18.74452
                   2.00000   2.00000   2.00000   2.00000   2.00000   2.00000
                  --------  --------  --------  --------  --------  --------
11 O  s               0.0       0.0      99.9       0.0       0.0       0.0
12 O  s               0.0       0.0       0.0      99.9       0.0       0.0
13 O  s               0.0      99.9       0.0       0.0       0.0       0.0
14 O  s              99.9       0.0       0.0       0.0       0.0       0.0
15 O  s               0.0       0.0       0.0       0.0       0.0      99.9
16 O  s               0.0       0.0       0.0       0.0      99.9       0.0

                      6         7         8         9        10        11   
                  -9.98456  -9.96128  -9.95591  -9.94480  -9.94112  -9.92620
                   2.00000   2.00000   2.00000   2.00000   2.00000   2.00000
                  --------  --------  --------  --------  --------  --------
 0 C  s               0.0       0.0       0.0       0.0       0.0      99.6
 1 C  s               0.0       0.0       0.0       0.0      99.6       0.0
 1 C  py              0.0       0.0       0.0       0.1       0.0       0.0
 3 C  s               0.0       0.0       0.0      99.6       0.0       0.0
 3 C  py              0.0       0.0       0.0       0.0       0.1       0.0
 5 C  s               0.0      99.6       0.0       0.0       0.0       0.0
 7 C  s               0.0       0.0      99.6       0.0       0.0       0.0
 9 C  s              99.6       0.0       0.0       0.0       0.0       0.0
12 O  pz              0.1       0.0       0.0       0.0       0.0       0.0
14 O  pz              0.0       0.1       0.0       0.0       0.0       0.0
16 O  px              0.0       0.0       0.0       0.0       0.0       0.1

                     12        13        14        15        16        17   
                  -0.98511  -0.96074  -0.95241  -0.92885  -0.92341  -0.90615
                   2.00000   2.00000   2.00000   2.00000   2.00000   2.00000
                  --------  --------  --------  --------  --------  --------
 0 C  s               0.3       0.1       0.1       3.0       7.2       0.0
 0 C  pz              0.2       0.1       0.0       0.2       0.0       0.2
 0 C  px              0.1       0.0       0.0       1.5       6.5       0.6
 0 C  py              0.0       0.0       0.0       0.3       0.3       0.0
 0 C  dz2             0.0       0.0       0.0       0.0       0.2       0.0
 0 C  dx2y2           0.0       0.0       0.0       0.1       0.4       0.0
 0 C  dxy             0.0       0.0       0.0       0.0       0.1       0.0
 1 C  s               3.5       1.1       0.5       2.3       0.0       2.6
 1 C  pz              0.0       0.1       0.0       0.0       0.6       0.3
 1 C  px              2.2       0.8       0.3       0.0       0.9       2.3
 1 C  py              0.3       0.7       0.3       0.4       0.5       1.5
 1 C  dxy             0.1       0.1       0.0       0.0       0.0       0.2
 2 H  s               0.4       0.1       0.1       0.6       0.0       0.3
 3 C  s               1.9       0.1       0.1       7.4       2.2       0.4
 3 C  pz              0.0       0.5       0.2       4.5       2.1       0.9
 3 C  px              0.4       0.3       0.0       0.1       0.1       0.0
 3 C  py              0.2       0.2       0.2       0.4       0.6       1.2
 3 C  dz2             0.0       0.0       0.0       0.2       0.1       0.1
 3 C  dyz             0.0       0.0       0.0       0.2       0.1       0.1
 4 H  s               0.2       0.0       0.0       1.0       0.2       0.1
 5 C  s               4.3       6.5       0.0       0.2       0.1       0.0
 5 C  pz              0.5       7.0       1.5       0.7       0.3       0.2
 5 C  px              0.0       0.2       0.5       0.7       0.2       0.0
 5 C  py              0.7       0.2       0.0       0.0       0.0       0.0
 5 C  dz2             0.1       0.5       0.0       0.0       0.0       0.0
 6 H  s               0.6       0.8       0.0       0.1       0.0       0.0
 7 C  s               5.3       0.0       5.6       0.5       0.1       0.0
 7 C  pz              0.4       0.4       7.0       0.1       0.1       0.1
 7 C  px              0.5       0.1       1.1       0.1       0.1       0.0
 7 C  py              0.1       1.0       1.9       0.1       0.0       0.1
 7 C  dz2             0.0       0.0       0.4       0.0       0.0       0.0
 7 C  dxz             0.0       0.0       0.1       0.0       0.0       0.0
 7 C  dyz             0.0       0.0       0.2       0.0       0.0       0.0
 8 H  s               0.7       0.0       0.5       0.1       0.0       0.0
 9 C  s              11.0       3.7       1.0       0.9       0.0       0.2
 9 C  pz              0.1       0.0       0.5       1.5       0.0      10.7
 9 C  px              1.9       1.2       1.1       0.1       0.0       2.3
 9 C  py              0.1       0.3       1.3       0.1       0.0       0.5
 9 C  dz2             0.1       0.0       0.1       0.1       0.0       0.4
 9 C  dxz             0.1       0.1       0.0       0.0       0.0       0.3
 9 C  dyz             0.0       0.0       0.0       0.0       0.0       0.2
 9 C  dx2y2           0.0       0.0       0.0       0.0       0.0       0.2
10 H  s               1.4       0.5       0.1       0.1       0.0       0.0
11 O  s              17.9       9.8       3.5       0.8       0.1      22.5
11 O  pz              0.9       0.4       0.2       0.0       0.0       0.3
11 O  px              0.1       0.1       0.0       0.2       0.0       0.1
11 O  py              0.4       0.2       0.0       0.1       0.0       0.6
12 O  s              11.5       4.2       4.7       7.6       0.0      30.9
12 O  pz              0.5       0.2       0.1       0.1       0.0       0.0
12 O  px              0.1       0.0       0.1       0.1       0.0       0.2
12 O  py              0.7       0.2       0.2       0.3       0.0       1.2
13 O  s               7.8       0.0      48.0       2.1       1.1       0.0
13 O  pz              0.5       0.0       1.8       0.1       0.0       0.0
13 O  py              0.1       0.0       0.9       0.0       0.0       0.0
14 O  s              10.8      45.4       2.4       0.2       0.1       0.5
14 O  pz              0.2       0.3       0.0       0.0       0.0       0.0
14 O  px              0.4       1.6       0.1       0.0       0.0       0.0
14 O  py              0.1       0.5       0.0       0.0       0.0       0.0
15 O  s               1.6       0.0       0.9      32.9      14.5       7.2
15 O  pz              0.1       0.0       0.0       0.5       0.2       0.0
15 O  px              0.0       0.0       0.0       0.4       0.2       0.1
15 O  py              0.1       0.0       0.0       1.3       0.5       0.2
16 O  s               0.1       0.1       0.1      13.1      43.8       1.7
16 O  pz              0.0       0.0       0.0       0.3       1.1       0.0
16 O  px              0.0       0.0       0.0       0.3       0.7       0.0
16 O  py              0.0       0.0       0.0       0.2       0.7       0.0
17 H  s               0.1       0.0       0.0       0.3       0.8       0.0
18 H  s               0.2       0.0       0.0       0.3       0.9       0.0
19 H  s               3.2       0.3       1.1       1.5       0.0       6.1
20 H  s               1.6       0.0       9.8       0.4       0.2       0.0
21 H  s               2.1       9.2       0.5       0.0       0.0       0.1
22 H  s               0.7       0.0       0.6       6.3       2.7       1.3
23 H  s               0.0       0.0       0.0       2.7       9.0       0.3

                     18        19        20        21        22        23   
                  -0.70619  -0.69506  -0.61980  -0.59180  -0.58006  -0.53024
                   2.00000   2.00000   2.00000   2.00000   2.00000   2.00000
                  --------  --------  --------  --------  --------  --------
 0 C  s               1.4       5.2      12.7       1.4      10.0       0.3
 0 C  pz              0.3       1.0       0.0       0.4       2.6       3.3
 0 C  px              0.7       2.4       1.1       0.0       0.2       0.2
 0 C  py              0.2       0.1       0.0       0.3       0.6       0.0
 1 C  s               4.8      14.1       2.3       0.5       3.6       3.2
 1 C  pz              0.9       0.2       1.4       2.8       3.6       0.7
 1 C  px              0.1       0.5       2.6       1.0       0.0       0.9
 1 C  py              2.4       0.0       0.7       3.9       4.2       0.5
 1 C  dxy             0.1       0.0       0.0       0.1       0.0       0.0
 2 H  s               0.7       3.2       0.6       0.5       2.4       2.7
 3 C  s              10.7       1.5       2.5       6.6       4.0       1.7
 3 C  pz              3.6       0.0       1.2       1.0       0.9       0.1
 3 C  px              0.8       1.6       1.1       1.6       3.1       0.0
 3 C  py              1.0       2.4       1.3       0.4       1.7       1.6
 3 C  dz2             0.1       0.0       0.0       0.0       0.0       0.0
 4 H  s               2.2       0.4       0.7       3.9       1.3       1.0
 5 C  s              14.9       1.9       4.8       0.6       4.8       0.8
 5 C  pz              3.1       0.2       0.2       0.0       0.2       2.2
 5 C  px              0.1       2.2       2.5       7.5       0.2       0.2
 5 C  py              0.6       0.2       1.3       0.2       0.7       0.0
 5 C  dz2             0.1       0.0       0.0       0.0       0.0       0.0
 6 H  s               2.6       0.4       1.9       0.3       2.4       0.2
 7 C  s               6.9       9.1       5.7       4.4       0.8       0.4
 7 C  pz              1.3       0.4       0.0       1.6       0.5       3.1
 7 C  px              2.1       0.6       0.9       0.0       1.0       0.0
 7 C  py              0.3       1.4       3.4       2.5       2.5       0.1
 8 H  s               1.2       1.8       2.1       2.1       0.4       0.1
 9 C  s               0.0       9.3       2.6       7.1       0.3       2.4
 9 C  pz              0.4       1.4       0.0       1.3       0.1       3.1
 9 C  px              0.6       0.5       2.7       0.1       2.1       2.9
 9 C  py              2.7       1.4       1.8       3.5       0.7       2.5
 9 C  dx2y2           0.1       0.0       0.1       0.0       0.0       0.0
10 H  s               0.0       2.4       1.0       4.1       0.2       1.9
11 O  s               2.7       0.1       1.9       0.5       0.6       0.7
11 O  pz              0.0       0.1       0.1       0.7       0.3       0.1
11 O  px              0.7      10.2       0.0      12.1       1.1       2.3
11 O  py              0.4       0.4       0.0       1.1       1.1       0.0
12 O  s               0.1       2.4       1.0       0.5       0.0       0.2
12 O  pz              0.0       2.2       1.0       6.4       0.2      16.7
12 O  px              0.0       0.4       0.4       0.6       0.4       4.5
12 O  py              0.0       0.0       0.1       0.3       0.0       0.2
12 O  dyz             0.0       0.0       0.0       0.0       0.0       0.1
13 O  s               1.8       2.3       0.4       0.8       0.0       0.0
13 O  pz              1.0       1.3       1.7       1.6       0.7       2.6
13 O  px              0.3       0.6       0.4       0.5       0.0       1.4
13 O  py              0.7       2.1       3.7       0.4       2.3       5.3
14 O  s               3.8       0.4       0.3       0.3       0.4       0.1
14 O  pz              5.6       0.4       3.7       0.1       6.7       6.2
14 O  px              0.6       0.0       0.6       0.7       0.5       0.1
14 O  py              0.1       0.0       0.1       0.0       0.0       0.2
15 O  s               4.3       0.4       0.8       0.4       0.8       0.1
15 O  pz              2.0       0.1       1.5       3.5       2.4       4.5
15 O  px              0.4       0.1       0.1       1.3       1.8       1.0
15 O  py              0.1       0.0       0.0       0.0       0.3       0.0
16 O  s               0.6       1.7       2.1       0.2       0.6       0.0
16 O  pz              0.1       0.2       1.1       0.5       2.6       1.4
16 O  px              0.3       1.1       5.4       1.4       6.3       1.1
17 H  s               0.2       1.1       3.1       0.1       3.7       0.1
18 H  s               0.4       1.3       3.5       0.9       4.5       1.2
19 H  s               0.0       1.5       0.4       2.0       0.1       6.4
20 H  s               1.0       1.8       1.8       0.7       0.8       2.6
21 H  s               3.0       0.1       1.2       0.0       2.1       1.4
22 H  s               1.8       0.1       0.6       1.4       1.3       1.5
23 H  s               0.3       0.8       2.4       0.6       2.6       0.6

                     24        25        26        27        28        29   
                  -0.51551  -0.48983  -0.48182  -0.46198  -0.45605  -0.43038
                   2.00000   2.00000   2.00000   2.00000   2.00000   2.00000
                  --------  --------  --------  --------  --------  --------
 0 C  s               0.3       0.0       0.0       0.9       0.3       0.3
 0 C  pz              0.1       0.6       0.4       5.5       2.0       0.7
 0 C  px              0.2       0.0       0.2      11.4       0.9       1.3
 0 C  py              0.6       0.8       0.1       4.5       5.1       5.4
 0 C  dx2y2           0.0       0.0       0.0       0.3       0.0       0.0
 0 C  dxy             0.0       0.0       0.0       0.2       0.0       0.0
 1 C  s               0.0       0.0       0.6       0.1       1.3       0.0
 1 C  pz              0.4       1.0       0.4       6.2       0.9       6.4
 1 C  px              0.4       0.8       0.0       3.2      10.0       1.5
 1 C  py              1.3       3.6       0.8       1.2       4.3       1.1
 1 C  dyz             0.0       0.0       0.0       0.2       0.0       0.0
 1 C  dxy             0.0       0.0       0.1       0.1       0.1       0.1
 2 H  s               0.1       0.7       0.0       0.0       4.6       3.4
 3 C  s               0.3       0.2       0.0       0.0       0.2       0.3
 3 C  pz              1.1       0.2       0.9       0.1       0.1       3.4
 3 C  px              0.0       0.0       6.0       0.4       4.4       1.9
 3 C  py              4.7       3.2       4.4       0.6       2.3       0.9
 3 C  dz2             0.0       0.0       0.2       0.0       0.0       0.0
 3 C  dyz             0.0       0.0       0.1       0.1       0.1       0.0
 4 H  s               0.3       0.1       1.6       0.1       0.1       1.8
 5 C  s               0.9       0.4       0.9       0.0       0.2       0.4
 5 C  pz              2.9       1.8       7.6       0.0       1.5       0.0
 5 C  px              5.8       2.2       0.0       0.2       3.4       0.0
 5 C  py              9.6       6.4       1.2       0.0       1.4       0.0
 5 C  dz2             0.1       0.1       0.0       0.0       0.0       0.0
 5 C  dxz             0.1       0.1       0.0       0.0       0.0       0.0
 5 C  dyz             0.0       0.0       0.2       0.0       0.0       0.0
 5 C  dx2y2           0.0       0.0       0.0       0.0       0.0       0.1
 6 H  s               6.5       1.4       1.7       0.0       1.4       0.3
 7 C  s               0.3       0.2       1.3       0.0       0.0       0.5
 7 C  pz              2.0      10.1       6.7       0.1       0.3       0.3
 7 C  px              0.8       3.1       8.5       0.0       0.5       7.8
 7 C  py              4.4       0.1       0.7       0.1       1.7       6.9
 7 C  dz2             0.0       0.4       0.0       0.0       0.0       0.1
 7 C  dx2y2           0.0       0.0       0.0       0.0       0.0       0.2
 8 H  s               1.5       0.6       7.6       0.0       0.4       3.7
 9 C  s               0.0       0.2       0.1       0.1       0.0       1.4
 9 C  pz              0.5       0.7       0.1       0.9       8.2       2.4
 9 C  px              0.1       2.5       0.3       1.7       0.3       3.6
 9 C  py              3.0       3.3       0.5       0.0       1.2       4.1
 9 C  dyz             0.0       0.1       0.1       0.1       0.1       0.1
10 H  s               0.1       1.1       0.1       0.0       1.0       2.1
11 O  s               0.6       0.5       1.4       0.4       0.1       0.2
11 O  pz              0.0       1.4       0.4       3.1       1.2       3.4
11 O  px              0.6       2.1       0.6       3.5      12.0       0.0
11 O  py              1.1       1.1       0.5       1.7       1.5       0.9
12 O  s               0.2       1.2       0.2       0.4       0.3       0.1
12 O  pz              2.2       0.0       0.9       0.9       7.3       4.9
12 O  px              0.8       0.5       0.0       2.3       1.2       0.0
12 O  py              0.6       1.8       0.6       0.1       0.3       1.3
13 O  s               0.7       0.5       0.1       0.0       0.2       0.5
13 O  pz              0.5       4.8       0.1       0.0       0.1       9.6
13 O  px              0.4       2.0       6.0       0.0       0.0       0.1
13 O  py              2.2      18.7       1.0       0.1       0.2       0.2
13 O  dz2             0.0       0.1       0.0       0.0       0.0       0.1
14 O  s               1.2       0.1       0.1       0.0       0.5       0.0
14 O  pz             10.6       4.3       9.5       0.0       1.2       0.3
14 O  px              6.5       2.4       1.2       0.0       0.9       0.6
14 O  py              3.4       1.7       1.1       0.1       0.5       0.0
15 O  s               0.0       0.1       1.2       0.3       0.0       0.2
15 O  pz              6.5       0.0       4.2       0.0       3.7       4.9
15 O  px              1.6       0.0       7.7       0.2       0.0       0.6
15 O  py              0.3       0.4       0.8       0.6       0.3       0.0
16 O  s               0.1       0.1       0.0       1.7       0.0       0.5
16 O  pz              0.1       0.2       0.3      16.1       0.0       0.1
16 O  px              0.6       0.0       0.1      13.9       2.2       0.9
16 O  py              0.0       0.1       0.0       1.4       1.0       1.6
16 O  dz2             0.0       0.0       0.0       0.1       0.0       0.0
17 H  s               0.4       0.4       0.0       4.1       2.6       2.1
18 H  s               0.1       0.1       0.1       0.1       0.6       0.7
19 H  s               1.3       0.2       0.3       0.8       1.7       1.3
20 H  s               0.4       7.0       0.9       0.0       0.0       0.6
21 H  s               5.3       1.3       3.3       0.0       0.0       0.0
22 H  s               2.6       0.0       3.2       0.1       0.7       1.0
23 H  s               0.2       0.1       0.1       8.6       0.5       0.0

                     30        31        32        33        34        35   
                  -0.42093  -0.40491  -0.38916  -0.37694  -0.36622  -0.35653
                   2.00000   2.00000   2.00000   2.00000   2.00000   2.00000
                  --------  --------  --------  --------  --------  --------
 0 C  s               0.0       0.3       0.3       0.0       0.0       0.1
 0 C  pz              0.7       2.9       9.7       1.9       2.1       7.3
 0 C  px              0.8       0.1       2.7       7.8       0.3       0.0
 0 C  py              0.0       4.3       0.6      17.9       0.6       1.7
 0 C  dz2             0.0       0.0       0.0       0.3       0.0       0.0
 1 C  s               0.0       0.1       0.1       0.4       0.6       0.1
 1 C  pz              0.4       1.7       0.1       0.8       0.1      11.8
 1 C  px              1.2       0.4       5.3       0.2       0.0       1.5
 1 C  py              0.1       1.6       5.2       1.8       0.0       0.7
 1 C  dz2             0.0       0.0       0.0       0.2       0.0       0.1
 1 C  dxz             0.0       0.0       0.0       0.0       0.0       0.2
 1 C  dyz             0.1       0.0       0.0       0.0       0.1       0.0
 1 C  dx2y2           0.0       0.1       0.0       0.0       0.1       0.0
 1 C  dxy             0.0       0.1       0.0       0.1       0.1       0.0
 2 H  s               0.8       0.1       1.0       0.1       0.1       7.3
 3 C  s               0.5       0.5       0.0       1.9       0.5       0.2
 3 C  pz              8.1       1.1       5.0       1.5       4.7       0.1
 3 C  px              0.3       2.8       0.8       0.3      11.6       3.1
 3 C  py              0.3       3.1       5.1       0.7       1.1       0.2
 3 C  dyz             0.2       0.0       0.0       0.2       0.1       0.3
 3 C  dx2y2           0.0       0.0       0.3       0.0       0.1       0.0
 3 C  dxy             0.0       0.0       0.0       0.0       0.3       0.0
 4 H  s               1.4       1.7       1.2       1.5      12.0       1.4
 5 C  s               0.1       0.0       0.0       0.1       0.0       0.1
 5 C  pz              0.8       1.4       6.1       0.4       0.1       0.2
 5 C  px              4.5       0.0       2.4       1.7       2.9       0.1
 5 C  py              5.6       5.1       3.9       0.0       4.0       3.6
 5 C  dz2             0.2       0.0       0.1       0.0       0.0       0.1
 5 C  dxz             0.1       0.0       0.0       0.1       0.0       0.3
 5 C  dx2y2           0.0       0.1       0.1       0.1       0.0       0.0
 5 C  dxy             0.0       0.0       0.1       0.0       0.1       0.0
 6 H  s               2.1       2.8       2.3       0.6       1.4       2.6
 7 C  s               0.1       0.1       0.4       0.0       0.1       0.1
 7 C  pz              1.3       0.2       0.1       0.2       0.1       0.3
 7 C  px              5.9       0.5       0.6       2.2       7.1       0.2
 7 C  py              5.3       5.4       0.3       0.1       0.3       0.1
 7 C  dz2             0.1       0.0       0.0       0.0       0.1       0.0
 7 C  dxz             0.2       0.0       0.0       0.0       0.0       0.0
 7 C  dx2y2           0.0       0.1       0.0       0.1       0.0       0.1
 7 C  dxy             0.0       0.1       0.0       0.0       0.1       0.1
 8 H  s               3.7       0.8       0.0       1.7       1.4       0.4
 9 C  s               0.3       0.4       0.0       0.3       0.2       0.5
 9 C  pz              1.9       3.1       0.1       0.7       0.1       1.5
 9 C  px              8.6       2.6       0.0       2.7       0.9       1.6
 9 C  py              0.9       9.1       0.0       0.3       0.1       1.4
 9 C  dyz             0.2       0.0       0.0       0.0       0.0       0.0
 9 C  dx2y2           0.0       0.0       0.0       0.0       0.1       0.0
10 H  s               3.1       4.2       0.0       3.0       0.1       1.8
11 O  s               0.3       0.3       0.6       0.0       1.2       0.0
11 O  pz              2.1       5.4       0.5       0.2       5.3       0.9
11 O  px              0.8       0.3       0.2       1.1       1.0       0.7
11 O  py              0.3       1.3       5.1       0.2       1.1       0.2
12 O  s               0.0       0.8       0.0       0.1       0.3       1.1
12 O  pz              6.6       0.5       0.0       0.2       0.0       2.9
12 O  px              0.4       1.0       0.0       0.1       1.9       1.5
12 O  py              0.3       5.8       0.1       0.0       0.7       5.2
13 O  s               0.2       1.0       0.4       0.0       0.7       0.8
13 O  pz              1.6       2.5       0.7       0.0       3.8       2.4
13 O  px              3.5       0.0       0.4       0.6       5.2       0.8
13 O  py              0.4       1.7       1.7       0.3       0.1       2.2
14 O  s               0.1       0.9       1.9       0.5       1.3       1.5
14 O  pz              3.8       0.1       4.0       0.2       0.3       2.1
14 O  px              0.5       1.1       4.7       1.1       9.0      13.0
14 O  py              1.0       4.8       7.5       3.6       0.3       0.3
15 O  s               0.1       0.9       0.1       0.7       0.2       0.1
15 O  pz              4.5       0.7       0.1       2.5       5.4       2.2
15 O  px              5.2       0.5       1.7       1.1       0.8       0.2
15 O  py              0.2       4.0       3.3       2.1       1.9       0.1
16 O  s               0.0       0.1       0.3       1.0       0.0       0.0
16 O  pz              0.0       0.0       0.8       0.0       0.2       0.7
16 O  px              1.2       1.6       6.1       4.1       1.5       2.4
16 O  py              0.0       1.8       0.1      10.4       0.0       0.4
17 H  s               0.0       3.0       0.8       7.4       0.8       0.9
18 H  s               0.7       1.2       3.7       7.6       0.5       3.9
19 H  s               1.2       0.2       0.0       0.6       0.2       0.1
20 H  s               1.0       0.1       0.1       0.0       0.2       0.2
21 H  s               0.7       0.2       0.0       0.3       0.5       0.7
22 H  s               2.3       0.0       0.1       1.4       1.0       0.2
23 H  s               0.2       0.5       0.5       0.2       0.1       0.3

                     36        37        38        39        40        41   
                  -0.33756  -0.31428  -0.30761  -0.30151  -0.29429  -0.27099
[...]
 5 C  s               1.1       0.0       0.2       0.2       0.5       0.0
 5 C  pz              1.5       0.0       0.1       0.3       1.1       0.0
 5 C  py              0.0       0.0       0.0       0.0       0.2       0.0
 5 C  dz2             5.9       0.0       0.7       0.8       1.7       0.0
 5 C  dxz             1.2       0.1       0.0       0.0       0.7       0.1
 5 C  dyz             0.4       0.0       0.2       0.3       0.9       0.0
 7 C  s               1.0       0.1       0.1       0.8       0.3       0.0
 7 C  pz              1.0       0.2       0.1       1.2       0.6       0.1
 7 C  px              0.1       0.0       0.0       0.1       0.1       0.0
 7 C  py              0.1       0.1       0.0       0.2       0.1       0.1
 7 C  dz2             2.9       0.5       0.0       3.4       1.0       0.1
 7 C  dxz             2.2       0.1       0.1       0.3       0.3       0.0
 7 C  dyz             0.3       0.5       1.1       0.6       1.1       0.0
 7 C  dxy             0.1       0.0       0.0       0.0       0.0       0.0
 9 C  s               0.4       0.0       1.2       1.6       0.1       1.1
 9 C  pz              0.0       0.4       1.6       1.0       0.0       1.0
 9 C  px              0.0       0.2       0.0       0.2       0.0       1.7
 9 C  py              0.0       0.0       0.2       0.5       0.0       0.0
 9 C  dz2             0.1       0.1       1.8       4.2       0.0       0.6
 9 C  dxz             0.3       0.6       0.4       0.5       0.2       3.3
 9 C  dyz             0.3       0.5       4.1       1.3       0.5       0.0
 9 C  dx2y2           0.0       0.6       0.2       0.0       0.0       2.6
 9 C  dxy             0.1       0.0       0.0       0.0       0.0       0.0
10 H  s               0.0       0.0       0.0       0.1       0.0       0.0
11 O  s               0.5       0.4       0.6       0.0       0.0       0.0
11 O  pz              0.0       0.1       0.1       0.0       0.0       0.2
11 O  px              0.0       0.3       0.1       0.1       0.1       6.0
11 O  py              0.0       0.0       0.1       0.0       0.0       0.4
11 O  dz2             0.8       0.2       0.8       0.4       0.3       2.7
11 O  dxz             0.2       1.9       0.3       0.5       0.0      35.2
11 O  dyz             0.0       0.1       0.1       0.0       0.1       0.7
11 O  dx2y2           1.0       3.0       0.7       1.5       1.6       2.4
11 O  dxy             0.0       0.5       5.9       1.0       2.5      19.4
12 O  s               0.0       0.1       1.7       2.3       0.0       0.1
12 O  pz              0.2       0.2       2.0       1.6       0.1       0.2
12 O  px              0.0       0.0       0.0       0.1       0.0       0.0
12 O  py              0.0       0.0       0.1       0.2       0.0       0.0
12 O  dz2             1.2       2.8      18.8       9.4       0.9       1.2
12 O  dxz             0.0       0.1       0.0       0.3       0.2       0.1
12 O  dyz             0.6       0.7      11.9      15.5       0.1       0.6
12 O  dx2y2           0.0       0.0       0.2       1.2       0.0       0.0
12 O  dxy             0.1       0.0       0.0       0.3       0.0       0.1
13 O  s               1.5       0.3       0.1       2.1       1.0       0.1
13 O  pz              1.2       0.2       0.1       0.9       0.7       0.0
13 O  px              0.1       0.0       0.0       0.2       0.1       0.0
13 O  py              0.7       0.1       0.0       0.4       0.2       0.0
13 O  dz2            16.2       3.2       2.4       8.8       6.3       0.0
13 O  dxz             2.7       0.8       0.5       5.8       3.1       0.0
13 O  dyz             7.6       0.5       0.0       4.2       1.0       0.3
13 O  dx2y2           0.0       0.1       0.1       0.1       0.2       0.1
13 O  dxy             0.4       0.0       0.0       0.4       0.1       0.2
14 O  s               1.7       0.0       0.3       0.4       1.9       0.0
14 O  pz              2.4       0.0       0.2       0.4       1.3       0.0
14 O  dz2            22.0       0.0       1.9       2.6      12.7       0.0
14 O  dxz             3.9       0.2       1.0       1.7       1.0       0.0
14 O  dyz             7.6       0.0       0.2       0.2       0.9       0.0
14 O  dx2y2           0.4       0.0       0.0       0.0       0.0       0.0
15 O  s               0.0       0.3       0.9       0.8       3.1       0.3
15 O  pz              0.1       0.3       0.7       0.5       2.3       0.1
15 O  px              0.0       0.0       0.1       0.1       0.1       0.0
15 O  py              0.0       0.0       0.1       0.1       0.2       0.0
15 O  dz2             0.2       2.2       4.5       3.1      16.8       0.4
15 O  dxz             0.8       0.0       0.6       0.1       0.0       0.1
15 O  dyz             1.4       3.1       7.5       5.4      16.4       1.0
15 O  dx2y2           0.2       0.2       0.8       0.5       0.9       0.2
15 O  dxy             0.3       0.1       0.4       0.3       0.2       0.0
16 O  s               0.1       3.1       0.7       0.3       0.1       0.5
16 O  pz              0.0       0.2       0.1       0.0       0.0       0.0
16 O  px              0.1       3.1       0.6       0.2       0.0       0.3
16 O  dz2             0.3      14.4       3.1       0.9       0.1       0.6
16 O  dxz             0.0       0.0       0.1       0.0       0.0       0.3
16 O  dyz             0.0       0.1       0.0       0.0       0.0       0.0
16 O  dx2y2           0.7      26.1       5.1       1.7       0.3       2.4
16 O  dxy             0.1      10.0       2.4       0.6       0.0       0.1
19 H  s               0.1       0.0       0.3       0.3       0.0       0.0
20 H  s               0.3       0.1       0.0       0.2       0.1       0.0
21 H  s               0.4       0.0       0.0       0.1       0.1       0.0
22 H  s               0.0       0.1       0.1       0.1       0.4       0.0
23 H  s               0.0       0.5       0.1       0.0       0.0       0.0



                      *****************************
                      * MAYER POPULATION ANALYSIS *
                      *****************************

  NA   - Mulliken gross atomic population
  ZA   - Total nuclear charge
  QA   - Mulliken gross atomic charge
  VA   - Mayer's total valence
  BVA  - Mayer's bonded valence
  FA   - Mayer's free valence

  ATOM       NA         ZA         QA         VA         BVA        FA
  0 C      5.9880     6.0000     0.0120     3.9388     3.9388    -0.0000
  1 C      6.0047     6.0000    -0.0047     4.0545     4.0545     0.0000
  2 H      0.9339     1.0000     0.0661     0.9901     0.9901    -0.0000
  3 C      5.8981     6.0000     0.1019     3.9609     3.9609     0.0000
  4 H      0.9135     1.0000     0.0865     0.9831     0.9831     0.0000
  5 C      6.0151     6.0000    -0.0151     4.0048     4.0048     0.0000
  6 H      0.9297     1.0000     0.0703     0.9709     0.9709     0.0000
  7 C      6.0150     6.0000    -0.0150     4.0126     4.0126     0.0000
  8 H      0.9315     1.0000     0.0685     0.9674     0.9674    -0.0000
  9 C      5.7755     6.0000     0.2245     4.1308     4.1308     0.0000
 10 H      0.9222     1.0000     0.0778     0.9719     0.9719     0.0000
 11 O      8.2983     8.0000    -0.2983     2.1833     2.1833    -0.0000
 12 O      8.4074     8.0000    -0.4074     2.0543     2.0543     0.0000
 13 O      8.4042     8.0000    -0.4042     2.0357     2.0357     0.0000
 14 O      8.4052     8.0000    -0.4052     2.0503     2.0503     0.0000
 15 O      8.4312     8.0000    -0.4312     2.0128     2.0128    -0.0000
 16 O      8.4311     8.0000    -0.4311     2.0080     2.0080    -0.0000
 17 H      0.9104     1.0000     0.0896     0.9642     0.9642    -0.0000
 18 H      0.9017     1.0000     0.0983     0.9916     0.9916    -0.0000
 19 H      0.6977     1.0000     0.3023     0.9443     0.9443    -0.0000
 20 H      0.6925     1.0000     0.3075     0.8848     0.8848     0.0000
 21 H      0.6863     1.0000     0.3137     0.8777     0.8777     0.0000
 22 H      0.7024     1.0000     0.2976     0.9352     0.9352    -0.0000
 23 H      0.7043     1.0000     0.2957     0.8868     0.8868     0.0000

  Mayer bond orders larger than 0.100000
B(  0-C ,  1-C ) :   1.0153 B(  0-C , 16-O ) :   1.0479 B(  0-C , 17-H ) :   0.9109 
B(  0-C , 18-H ) :   0.9005 B(  1-C ,  2-H ) :   0.8966 B(  1-C ,  3-C ) :   1.0026 
B(  1-C , 11-O ) :   1.0068 B(  3-C ,  4-H ) :   0.8841 B(  3-C ,  5-C ) :   0.9818 
B(  3-C , 15-O ) :   1.0479 B(  5-C ,  6-H ) :   0.9037 B(  5-C ,  7-C ) :   0.9679 
B(  5-C , 14-O ) :   1.0252 B(  7-C ,  8-H ) :   0.8981 B(  7-C ,  9-C ) :   0.9845 
B(  7-C , 13-O ) :   1.0425 B(  9-C , 10-H ) :   0.9040 B(  9-C , 11-O ) :   1.0592 
B(  9-C , 12-O ) :   1.1313 B( 12-O , 19-H ) :   0.7979 B( 13-O , 20-H ) :   0.8371 
B( 14-O , 21-H ) :   0.8363 B( 15-O , 22-H ) :   0.8166 B( 16-O , 23-H ) :   0.8517 


-------
TIMINGS
-------

Total SCF time: 0 days 0 hours 0 min 7 sec 

Total time                  ....       7.524 sec
Sum of individual times     ....       7.492 sec  ( 99.6%)

SCF preparation             ....       0.061 sec  (  0.8%)
Fock matrix formation       ....       5.987 sec  ( 79.6%)
  Startup                   ....       0.007 sec  (  0.1% of F)
  Split-RI-J                ....       3.074 sec  ( 51.3% of F)
  XC integration            ....       2.821 sec  ( 47.1% of F)
    Basis function eval.    ....       1.120 sec  ( 39.7% of XC)
    Density eval.           ....       0.625 sec  ( 22.2% of XC)
    XC-Functional eval.     ....       0.161 sec  (  5.7% of XC)
    XC-Potential eval.      ....       0.636 sec  ( 22.5% of XC)
Diagonalization             ....       0.000 sec  (  0.0%)
Density matrix formation    ....       0.031 sec  (  0.4%)
Total Energy calculation    ....       0.002 sec  (  0.0%)
Population analysis         ....       1.291 sec  ( 17.2%)
Orbital Transformation      ....       0.016 sec  (  0.2%)
Orbital Orthonormalization  ....       0.000 sec  (  0.0%)
DIIS solution               ....       0.083 sec  (  1.1%)
  MO trafo                  ....       0.000 sec  (  0.0 % of DIIS)
  Orb grad                  ....       0.000 sec  (  0.0 % of DIIS)
  Energy W gradient         ....       0.000 sec  (  0.0 % of DIIS)
  DIIS error                ....       0.006 sec  (  7.3 % of DIIS)
  DIIS work                 ....       0.068 sec  ( 81.7 % of DIIS)
  Form Q                    ....       0.000 sec  (  0.0 % of DIIS)
  Form QpQm                 ....       0.000 sec  (  0.0 % of DIIS)
  Exp/Cayley                ....       0.000 sec  (  0.0 % of DIIS)
  Orb update                ....       0.000 sec  (  0.0 % of DIIS)
  Wake-sleep                ....       0.001 sec  (  1.3 % of DIIS)
SOSCF solution              ....       0.021 sec  (  0.3%)
  MO trafo                  ....       0.013 sec  ( 61.2 % of SOSCF)
  Orb grad                  ....       0.000 sec  (  0.9 % of SOSCF)
  Rot update                ....       0.001 sec  (  7.0 % of SOSCF)
  Step                      ....       0.006 sec  ( 30.7 % of SOSCF)
Finished LeanSCF after   7.5 sec

Maximum memory used throughout the entire LEANSCF-calculation: 19.2 MB


-------------------------------------------------------------------------------
                          DFT DISPERSION CORRECTION                            
                                                                               
                                DFTD4 V3.4.0                                   
-------------------------------------------------------------------------------
The PBE functional is recognized
Active option DFTDOPT                   ...         5   

-------------------------   ----------------
Dispersion correction           -0.026007446
-------------------------   ----------------

------------------   -----------------
gCP correction             0.159334840
------------------   -----------------

-------------------------   --------------------
FINAL SINGLE POINT ENERGY      -685.692804205740
-------------------------   --------------------


------------------------------------------------------------------------------
                              ORCA PROPERTY CALCULATIONS
------------------------------------------------------------------------------

GBWName                                 ... sp.gbw
Number of atoms                         ...     24
Number of basis functions               ...    192
Max core memory                         ...   1024 MB

Electric properties:
Dipole moment                           ... YES
Quadrupole moment                       ...  NO
Static polarizability (Dipole/Dipole)   ...  NO
Static polarizability (Dipole/Quad.)    ...  NO
Static polarizability (Quad./Quad.)     ...  NO
Static polarizability (Velocity)        ...  NO

Atomic electric properties:
Dipole moment                           ...  NO
Quadrupole moment                       ...  NO
Static polarizability                   ...  NO

Choice of electric origin               ... Center of mass
Position of electric origin             ...    -0.000000     0.000002    -0.000003

General magnetic properties:
Magnetizability                         ...  NO

EPR properties:
g-Tensor (aka g-matrix)                 ...  NO
Zero-Field splitting spin-orbit         ...  NO
Zero-field splitting spin-spin          ...  NO
Hyperfine couplings                     ...  NO (   0 nuclei)
Quadrupole couplings                    ...  NO (   0 nuclei)
Contact density                         ...  NO (   0 nuclei)

NMR properties:
Chemical shifts                         ...  NO (   0 nuclei)
Spin-rotation constants                 ...  NO (   0 nuclei)
Spin-spin couplings                     ...  NO (   0 nuclei,    0 pairs)

Choice of magnetic origin               ... GIAO
Position of magnetic origin             ...     0.000000     0.000000     0.000000

Properties with geometric perturbations:
SCF Hessian                             ...  NO
IR spectrum                             ...  NO
VCD spectrum                            ...  NO
X-ray spectroscopy properties:
SCF XES/XAS/RIXS spectra                ...  NO


-------------
DIPOLE MOMENT
-------------

Method             : SCF
Type of density    : Electron Density
Multiplicity       :   1
Irrep              :   0
Energy             :  -685.8261315990188223 Eh
Relativity type    : 
Basis              : AO
                                X                 Y                 Z
Electronic contribution:      1.083955420      -0.427759196       1.505391113
Nuclear contribution   :     -0.231784466       1.289557239      -1.829827423
                        -----------------------------------------
Total Dipole Moment    :      0.852170954       0.861798043      -0.324436310
                        -----------------------------------------
Magnitude (a.u.)       :      1.254651394
Magnitude (Debye)      :      3.189070405



--------------------
Rotational spectrum 
--------------------
 
Rotational constants in cm-1:             0.041486             0.028164             0.024405 
Rotational constants in MHz :          1243.717892           844.327767           731.652202 

Dipole components along the rotational axes: 
x,y,z [a.u.] :     0.953446    -0.181921    -0.794981 
x,y,z [Debye]:     2.423468    -0.462407    -2.020681 

 

Dipole moment calculation done in   0.0 sec 

Maximum memory used throughout the entire PROP-calculation: 12.8 MB

--------------------------------
SUGGESTED CITATIONS FOR THIS RUN
--------------------------------

Below you find a list of papers that are relevant to this ORCA run
We neither can nor want to force you to cite these papers, but we appreciate if you do
You receive ORCA, which is the product of decades of hard work by many enthusiastic individuals, for free
The only thing we kindly ask in return is that you cite our papers,
We deeply appreciate it, if you show your appreciation for ORCA by not just citing the generic ORCA reference.

Please note that relegating all ORCA citations to the supporting information does *not* help us.
SI sections are not indexed - citations you put there will not count into any citation statistics
But we need these citations in order to attract the funding resources that allow us to do what we are doing

Therefore, if you are a happy ORCA user, please consider citing a few of the papers listed below in the main body of your paper

In addition to the list printed below, the program has created the file sp.bibtex that contains the list in bibtex format
You can import this file easily into all common literature databanks and citation aid programs


List of essential papers. We consider these as the minimum necessary citations

  1. Neese,F.
     Software update: the ORCA program system, version 5.0
     WIRES Comput. Molec. Sci., 2022 12(1)e1606
     doi.org/10.1002/wcms.1606

List of papers to cite with high priority. The work reported in these papers was absolutely
necessary for this run to complete.
Our perspective: the developers of density functionals and basis sets usually get cited in chemistry papers
Good! But without the algorithms to do something with them, the functionals or basis sets would not do anything.
Hence, in our opinion, the algorithm design and method developments papers are equally worthy of getting cited

  1. Neese,F.
     An improvement of the resolution of the identity approximation for the formation of the Coulomb matrix
     J. Comp. Chem., 2003 24(14)1740-1747
     doi.org/10.1002/jcc.10318
  2. Neese,F.
     The SHARK Integral Generation and Digestion System
     J. Comp. Chem., 2022  1-16
     doi.org/10.1002/jcc.26942
  3. Caldeweyher,E.; Bannwarth,C.; Grimme,S.
     Extension of the D3 dispersion coefficient model
     J. Chem. Phys., 2017 147 034112
     doi.org/10.1063/1.4993215
  4. Caldeweyher,E.; Ehlert,S.; Hansen,A.; Neugebauer,H.; Spicher,S.; Bannwarth,C.; Grimme,S.
     A generally applicable atomic-charge dependent London dispersion correction
     J. Chem. Phys., 2019 150 154122
     doi.org/10.1063/1.5090222
  5. Caldeweyher,E.; Mewes,J.; Ehlert,S.; Grimme,S.
     Extension and evaluation of the D4 London-dispersion model for periodic systems
     Phys. Chem. Chem. Phys., 2020 22(16)8499-8512
     doi.org/10.1039/D0CP00502A
  6. Wittmann,L.; Gordiy,I.; Friede,M.; Helmich-Paris,B.; Grimme,S.; Hansen,A.; Bursch,M.
     Extension of the D3 and D4 London Dispersion Corrections to the full Actinides Series
     Phys. Chem. Chem. Phys., 2024 26(32)21379-21394
     doi.org/https://doi.org/10.1039/D4CP01514B 

List of suggested additional citations. These are papers that are important in the 'surrounding' of 
of this run, or papers that preceded the highly important papers. If you like your results we are grateful for a citation.

  1. Neese,F.
     The ORCA program system
     WIRES Comput. Molec. Sci., 2012 2(1)73-78
     doi.org/10.1002/wcms.81
  2. Neese,F.
     Software update: the ORCA program system, version 4.0
     WIRES Comput. Molec. Sci., 2018 8(1)1-6
     doi.org/10.1002/wcms.1327
  3. Neese,F.; Wennmohs,F.; Becker,U.; Riplinger,C.
     The ORCA quantum chemistry program package
     J. Chem. Phys., 2020 152 Art. No. L224108
     doi.org/10.1063/5.0004608

List of optional additional citations

  1. Neese,F.
     Approximate second-order SCF convergence for spin unrestricted wavefunctions
     Chem. Phys. Lett., 2000 325(1-3)93-98
     doi.org/10.1016/s0009-2614(00)00662-x

Timings for individual modules:

Sum of individual times          ...        9.041 sec (=   0.151 min)
Startup calculation              ...        0.616 sec (=   0.010 min)   6.8 %
SCF iterations                   ...        8.358 sec (=   0.139 min)  92.4 %
Property calculations            ...        0.068 sec (=   0.001 min)   0.7 %
                             ****ORCA TERMINATED NORMALLY****
TOTAL RUN TIME: 0 days 0 hours 0 minutes 11 seconds 926 msec
