
                                 *****************
                                 * O   R   C   A *
                                 *****************

                                            #,                                       
                                            ###                                      
                                            ####                                     
                                            #####                                    
                                            ######                                   
                                           ########,                                 
                                     ,,################,,,,,                         
                               ,,#################################,,                 
                          ,,##########################################,,             
                       ,#########################################, ''#####,          
                    ,#############################################,,   '####,        
                  ,##################################################,,,,####,       
                ,###########''''           ''''###############################       
              ,#####''   ,,,,##########,,,,          '''####'''          '####       
            ,##' ,,,,###########################,,,                        '##       
           ' ,,###''''                  '''############,,,                           
         ,,##''                                '''############,,,,        ,,,,,,###''
      ,#''                                            '''#######################'''  
     '                                                          ''''####''''         
             ,#######,   #######,   ,#######,      ##                                
            ,#'     '#,  ##    ##  ,#'     '#,    #''#        ,####,   ,####,        
            ##       ##  ##   ,#'  ##            #'  '#       #'       #'  '#        
            ##       ##  #######   ##           ,######,      #####,   #    #        
            '#,     ,#'  ##    ##  '#,     ,#' ,#      #,     #,   #   #,  ,#        
             '#######'   ##     ##  '#######'  #'      '#     '####' # '####'        



                #########################################################
                #                        -***-                          #
                #          Department of theory and spectroscopy        #
                #                                                       #
                #                      Frank Neese                      #
                #                                                       #
                #     Directorship, Architecture, Infrastructure        #
                #                    SHARK, DRIVERS                     #
                #        Core code/Algorithms in most modules           #
                #                                                       #
                #        Max Planck Institute fuer Kohlenforschung      #
                #                Kaiser Wilhelm Platz 1                 #
                #                 D-45470 Muelheim/Ruhr                 #
                #                      Germany                          #
                #                                                       #
                #                  All rights reserved                  #
                #                        -***-                          #
                #########################################################


                         Program Version 6.0.1  -  RELEASE   -


 With contributions from (in alphabetic order):
[Max-Planck-Institut fuer Kohlenforschung]                               
  Daniel Aravena         : Magnetic Suceptibility                        
  Michael Atanasov       : Ab Initio Ligand Field Theory (pilot matlab implementation)
  Alexander A. Auer      : GIAO ZORA, VPT2 properties, NMR spectrum      
  Ute Becker             : All parallelization in ORCA, NUMFREQ, NUMCALC 
  Giovanni Bistoni       : ED, misc. LED, open-shell LED, HFLD           
  Martin Brehm           : Molecular dynamics                            
  Dmytro Bykov           : pre 5.0 version of the SCF Hessian            
  Marcos Casanova-Páez   : Triplet and SCS-CIS(D). UHF-(DLPNO)-IP/EA/STEOM-CCSD. UHF-CVS-IP/STEOM-CCSD   
  Vijay G. Chilkuri      : MRCI spin determinant printing, contributions to CSF-ICE 
  Pauline Colinet        : FMM embedding                                 
  Dipayan Datta          : RHF DLPNO-CCSD density                        
  Achintya Kumar Dutta   : EOM-CC, STEOM-CC                              
  Nicolas Foglia         : Exact transition moments, OPA infrastructure, MCD improvements    
  Dmitry Ganyushin       : Spin-Orbit,Spin-Spin,Magnetic field MRCI      
  Miquel Garcia-Rates    : C-PCM and meta-GGA Hessian, CCSD/C-PCM, Gaussian charge scheme 
  Tiago L. C. Gouveia    : GS-ROHF, GS-ROCIS                             
  Yang Guo               : DLPNO-NEVPT2, F12-NEVPT2, CIM, IAO-localization        
  Andreas Hansen         : Spin unrestricted coupled pair/coupled cluster methods 
  Ingolf Harden          : AUTO-CI MPn and infrastructure                
  Benjamin Helmich-Paris : MC-RPA, TRAH-(SCF,CASSCF), AVAS, COSX integrals, SCF dyn. polar. 
  Lee Huntington         : MR-EOM, pCC                                   
  Robert Izsak           : Overlap fitted RIJCOSX, COSX-SCS-MP3, EOM     
  Riya Kayal             : Wick's Theorem for AUTO-CI, AUTO-CI UHF-CCSDT 
  Emily Kempfer          : AUTO-CI, RHF CISDT and CCSDT                  
  Christian Kollmar      : KDIIS, OOCD, Brueckner-CCSD(T), CCSD density, CASPT2, CASPT2-K, improved NEVPT2 
  Axel Koslowski         : Symmetry handling                             
  Simone Kossmann        : meta-GGA functionals, TD-DFT gradient, OOMP2, (MP2 Hessian; deprecated post 5.0) 
  Lucas Lang             : DCDCAS                                        
  Marvin Lechner         : AUTO-CI (C++ implementation), FIC-MRCC        
  Spencer Leger          : CASSCF response                               
  Dagmar Lenk            : GEPOL surface, SMD, ORCA-2-JSON               
  Dimitrios Liakos       : Extrapolation schemes; Compound Job, initial MDCI parallelization 
  Dimitrios Manganas     : Further ROCIS development; embedding schemes. LFT, Crystal Embedding 
  Dimitrios Pantazis     : SARC Basis sets                               
  Anastasios Papadopoulos: AUTO-CI, single reference methods and gradients 
  Taras Petrenko         : pre 6.0 DFT Hessian and TD-DFT gradient, (ASA, deprecated), ECA, 1-Electron XAS/XES, NRVS 
  Peter Pinski           : DLPNO-MP2, DLPNO-MP2 Gradient                 
  Christoph Reimann      : Effective Core Potentials                     
  Marius Retegan         : Local ZFS, SOC                                
  Christoph Riplinger    : Optimizer, TS searches, QM/MM, DLPNO-CCSD(T), (RO)-DLPNO pert. Triples 
  Michael Roemelt        : Original ROCIS implementation                 
  Masaaki Saitow         : Open-shell DLPNO-CCSD energy and density      
  Barbara Sandhoefer     : DKH picture change effects                    
  Kantharuban Sivalingam : CASSCF convergence/infrastructure, NEVPT2 and variants, FIC-MRCI 
  Bernardo de Souza      : ESD, SOC TD-DFT                               
  Georgi L. Stoychev     : AutoAux, RI-MP2 NMR, DLPNO-MP2 response, X2C  
  Van Anh Tran           : RI-MP2 g-tensors                              
  Willem Van den Heuvel  : Paramagnetic NMR                              
  Zikuan Wang            : NOTCH, Electric field optimization            
  Frank Wennmohs         : Technical directorship and infrastructure     
  Hang Xu                : AUTO-CI-Response properties                   
                                                                         
[FACCTs GmbH]                                                            
  Markus Bursch, Miquel Garcia-Rates, Christoph Riplinger, Bernardo de Souza, Georgi L. Stoychev 
                                                                 
  APM, Basis sets (HGBS, AHGBS, def-TZVP (Ac-Lr), def2-XVPD (La-Lu)), CI-OPT, improved COSX, DLPNO-Multilevel,           
  DOCKER, DRACO, updates on ESD, GOAT, IRC, LR-CPCM, MBIS, meta-GGA TD-DFT gradient, ML-optimized integration grids, 
  MM, NACMEs, nearIR, NEB, NEB-TS, NL-DFT gradient (VV10), 2- and 3-layer-ONIOM, interface openCOSMO-RS, QMMM,   
  Crystal-QMMM, SF, symmetry and pop. for TD-DFT, r2SCAN hybrids, SOLVATOR                                   
                                                                         
[Other institutions]                                                     
  V. Asgeirsson          : NEB                                           
  Christoph Bannwarth    : sTDA-DFT, sTD-DFT, PBEh-3c, B97-3c, D3        
  Sebastian Ehlert       : rSCAN, r2SCAN, r2SCAN-3c, D4, dhf basis sets  
  Marvin Friede          : D4 for Fr, Ra, Ac-Lr                          
  Lars Goerigk           : TD-DFT with DH, B97 family of functionals     
  Stefan Grimme          : VdW corrections, initial TS optimization, DFT functionals, gCP, sTDA/sTD-DF 
  Waldemar Hujo          : DFT-NL                                        
  H. Jonsson             : NEB                                           
  Holger Kruse           : gCP                                           
  Marcel Mueller         : wB97X-3c, vDZP basis set                      
  Hagen Neugebauer       : wr2SCAN                                       
  Tobias Risthaus        : range-separated hybrid DFT                    
  Lukas Wittmann         : regularized MP2, r2SCAN double-hybrids, wr2SCAN        
                                                                         
We gratefully acknowledge several colleagues who have allowed us to      
interface, adapt or use parts of their codes:                            
  Ed Valeev, F. Pavosevic, A. Kumar             : LibInt (2-el integral package), F12 methods 
  Garnet Chan, S. Sharma, J. Yang, R. Olivares  : DMRG                   
  Ulf Ekstrom                                   : XCFun DFT Library      
  Mihaly Kallay                                 : mrcc  (arbitrary order and MRCC methods)
  Frank Weinhold                                : gennbo (NPA and NBO analysis)           
  Simon Mueller                                 : openCOSMO-RS                            
  Christopher J. Cramer and Donald G. Truhlar   : smd solvation model                     
  S Lehtola, MJT Oliveira, MAL Marques          : LibXC Library                           
  Liviu Ungur et al                             : ANISO software                          


 Your calculation uses the libint2 library for the computation of 2-el integrals
 For citations please refer to: http://libint.valeyev.net

 Your ORCA version has been built with support for libXC version: 6.2.2
 For citations please refer to: https://libxc.gitlab.io

 This ORCA versions uses:
   CBLAS   interface :  Fast vector & matrix operations
   LAPACKE interface :  Fast linear algebra routines
   SCALAPACK package :  Parallel linear algebra routines
   Shared memory     :  Shared parallel matrices
   BLAS/LAPACK       :  OpenBLAS 0.3.27  USE64BITINT DYNAMIC_ARCH NO_AFFINITY Zen SINGLE_THREADED
        Core in use  :  Zen
   Copyright (c) 2011-2014, The OpenBLAS Project


Your calculation utilizes the geometrical counterpoise correction gCP
Please cite in your paper:
H.Kruse, S. Grimme J.Chem.Phys., 136, (2012), 154101 
   

Your calculation utilizes the atom-pairwise dispersion correction
based on EEQ partial charges (D4)


================================================================================

----- Orbital basis set information -----
Your calculation utilizes the basis: def2-mTZVPP
   Stefan Grimme, Andreas Hansen, Sebastian Ehlert, and Jan-Michael Mewes 
   J. Chem. Phys. 154, 064103 (2021). DOI: 10.1063/5.0040021

----- AuxJ basis set information -----
Your calculation utilizes the auxiliary basis: def2/J
   F. Weigend, Phys. Chem. Chem. Phys. 8, 1057 (2006).

================================================================================
                                        WARNINGS
                       Please study these warnings very carefully!
================================================================================



WARNING: SCAN, rSCAN, or r2SCAN functional requested.
  ===> : libXC variant has now been activated.



================================================================================
                                       INPUT FILE
================================================================================
NAME = sp.inp
|  1> ! r2scan-3c def2/J RI DEFGRID2 scfconv6 printgap
|  2> %output
|  3>     printlevel normal
|  4> end
|  5> * xyz 0 1
|  6> C 1.1965863349 1.2559661519 -0.0380130807
|  7> C 0.3996196971 1.162e-05 0.3205147894
|  8> C 1.1953715938 -1.2566303346 -0.0382750977
|  9> C -0.9091843422 0.0005720294 -0.4107726879
| 10> C -2.0945003037 0.0001787748 0.1680821068
| 11> H 0.6351604601 2.1501422761 0.2238460702
| 12> H 1.4052828173 1.2806621743 -1.1056833789
| 13> H 2.142871383 1.271205483 0.4983517079
| 14> H 0.2057082854 -2.93294e-05 1.3983671873
| 15> H 1.4039331668 -1.2814356987 -1.1059722769
| 16> H 2.1416881854 -1.2726347739 0.4979900316
| 17> H 0.6332158999 -2.1503471345 0.2236240867
| 18> H -0.82919592 0.0014305849 -1.4906245952
| 19> H -3.0100749722 0.0005209547 -0.3992114973
| 20> H -2.2009403148 -0.0006852679 1.2410080158
| 21> *
| 22> 
| 23>                          ****END OF INPUT****
================================================================================

                       ****************************
                       * Single Point Calculation *
                       ****************************

---------------------------------
CARTESIAN COORDINATES (ANGSTROEM)
---------------------------------
  C      1.196586    1.255966   -0.038013
  C      0.399620    0.000012    0.320515
  C      1.195372   -1.256630   -0.038275
  C     -0.909184    0.000572   -0.410773
  C     -2.094500    0.000179    0.168082
  H      0.635160    2.150142    0.223846
  H      1.405283    1.280662   -1.105683
  H      2.142871    1.271205    0.498352
  H      0.205708   -0.000029    1.398367
  H      1.403933   -1.281436   -1.105972
  H      2.141688   -1.272635    0.497990
  H      0.633216   -2.150347    0.223624
  H     -0.829196    0.001431   -1.490625
  H     -3.010075    0.000521   -0.399211
  H     -2.200940   -0.000685    1.241008

----------------------------
CARTESIAN COORDINATES (A.U.)
----------------------------
  NO LB      ZA    FRAG     MASS         X           Y           Z
   0 C     6.0000    0    12.011    2.261220    2.373432   -0.071834
   1 C     6.0000    0    12.011    0.755172    0.000022    0.605685
   2 C     6.0000    0    12.011    2.258925   -2.374687   -0.072329
   3 C     6.0000    0    12.011   -1.718109    0.001081   -0.776248
   4 C     6.0000    0    12.011   -3.958032    0.000338    0.317629
   5 H     1.0000    0     1.008    1.200279    4.063180    0.423008
   6 H     1.0000    0     1.008    2.655600    2.420101   -2.089439
   7 H     1.0000    0     1.008    4.049440    2.402230    0.941748
   8 H     1.0000    0     1.008    0.388732   -0.000055    2.642531
   9 H     1.0000    0     1.008    2.653049   -2.421563   -2.089985
  10 H     1.0000    0     1.008    4.047204   -2.404931    0.941065
  11 H     1.0000    0     1.008    1.196605   -4.063567    0.422588
  12 H     1.0000    0     1.008   -1.566953    0.002703   -2.816872
  13 H     1.0000    0     1.008   -5.688217    0.000984   -0.754400
  14 H     1.0000    0     1.008   -4.159174   -0.001295    2.345165

--------------------------------
INTERNAL COORDINATES (ANGSTROEM)
--------------------------------
 C      0   0   0     0.000000000000     0.00000000     0.00000000
 C      1   0   0     1.530071841975     0.00000000     0.00000000
 C      2   1   0     1.530065445087   110.38474504     0.00000000
 C      2   1   3     1.499249712957   109.88314326   238.66554049
 C      4   2   1     1.319108394554   124.77714395   240.77536290
 H      1   2   3     1.087805207238   110.45703828   180.44697748
 H      1   2   3     1.088156230027   110.39167428    60.50801948
 H      1   2   3     1.087830324968   110.42982739   300.57861616
 H      2   1   3     1.095156349077   108.83692583   119.38467875
 H      3   2   1     1.088159226534   110.39474847   299.48277763
 H      3   2   1     1.087819618557   110.42067792    59.40897986
 H      3   2   1     1.087814288101   110.45899672   179.53830507
 H      4   2   1     1.082810706681   114.95769516    60.77088981
 H      5   4   2     1.077078977577   122.18868060   180.00567568
 H      5   4   2     1.078193038716   121.69430889     0.00000000

---------------------------
INTERNAL COORDINATES (A.U.)
---------------------------
 C      0   0   0     0.000000000000     0.00000000     0.00000000
 C      1   0   0     2.891416746557     0.00000000     0.00000000
 C      2   1   0     2.891404658190   110.38474504     0.00000000
 C      2   1   3     2.833171363849   109.88314326   238.66554049
 C      4   2   1     2.492753606664   124.77714395   240.77536290
 H      1   2   3     2.055653928733   110.45703828   180.44697748
 H      1   2   3     2.056317265672   110.39167428    60.50801948
 H      1   2   3     2.055701394364   110.42982739   300.57861616
 H      2   1   3     2.069545573580   108.83692583   119.38467875
 H      3   2   1     2.056322928250   110.39474847   299.48277763
 H      3   2   1     2.055681162180   110.42067792    59.40897986
 H      3   2   1     2.055671089078   110.45899672   179.53830507
 H      4   2   1     2.046215690505   114.95769516    60.77088981
 H      5   4   2     2.035384292225   122.18868060   180.00567568
 H      5   4   2     2.037489562674   121.69430889     0.00000000

---------------------
BASIS SET INFORMATION
---------------------
There are 2 groups of distinct atoms

 Group   1 Type C   : 11s6p1d contracted to 5s3p1d pattern {62111/411/1}
 Group   2 Type H   : 4s1p contracted to 2s1p pattern {31/1}

Atom   0C    basis set group =>   1
Atom   1C    basis set group =>   1
Atom   2C    basis set group =>   1
Atom   3C    basis set group =>   1
Atom   4C    basis set group =>   1
Atom   5H    basis set group =>   2
Atom   6H    basis set group =>   2
Atom   7H    basis set group =>   2
Atom   8H    basis set group =>   2
Atom   9H    basis set group =>   2
Atom  10H    basis set group =>   2
Atom  11H    basis set group =>   2
Atom  12H    basis set group =>   2
Atom  13H    basis set group =>   2
Atom  14H    basis set group =>   2
---------------------------------
AUXILIARY/J BASIS SET INFORMATION
---------------------------------
There are 2 groups of distinct atoms

 Group   1 Type C   : 12s5p4d2f1g contracted to 6s4p3d1f1g pattern {711111/2111/211/2/1}
 Group   2 Type H   : 5s2p1d contracted to 3s1p1d pattern {311/2/1}

Atom   0C    basis set group =>   1
Atom   1C    basis set group =>   1
Atom   2C    basis set group =>   1
Atom   3C    basis set group =>   1
Atom   4C    basis set group =>   1
Atom   5H    basis set group =>   2
Atom   6H    basis set group =>   2
Atom   7H    basis set group =>   2
Atom   8H    basis set group =>   2
Atom   9H    basis set group =>   2
Atom  10H    basis set group =>   2
Atom  11H    basis set group =>   2
Atom  12H    basis set group =>   2
Atom  13H    basis set group =>   2
Atom  14H    basis set group =>   2

Checking for AutoStart:
The File: sp.gbw exists
Trying to determine its content:
     ... Fine, the file contains calculation information
     ... Fine, the calculation information was read
     ... Fine, the file contains a basis set
     ... Fine, the basis set was read
     ... Fine, the file contains a geometry
     ... Fine, the geometry was read
     ... Fine, the file contains a set of orbitals
     ... Fine, the orbitals can be read
     => possible old guess file was deleted
     => GBW file was renamed to GES file
     => GES file is set as startup file
     => Guess is set to MORead
     ... now leaving AutoStart

------------------------------------------------------------------------------
                             ORCA STARTUP CALCULATIONS
                           -- RI-GTO INTEGRALS CHOSEN --
------------------------------------------------------------------------------
------------------------------------------------------------------------------
                   ___                                                        
                  /   \      - P O W E R E D   B Y -                         
                 /     \                                                     
                 |  |  |   _    _      __       _____    __    __             
                 |  |  |  | |  | |    /  \     |  _  \  |  |  /  |          
                  \  \/   | |  | |   /    \    | | | |  |  | /  /          
                 / \  \   | |__| |  /  /\  \   | |_| |  |  |/  /          
                |  |  |   |  __  | /  /__\  \  |    /   |      \           
                |  |  |   | |  | | |   __   |  |    \   |  |\   \          
                \     /   | |  | | |  |  |  |  | |\  \  |  | \   \       
                 \___/    |_|  |_| |__|  |__|  |_| \__\ |__|  \__/        
                                                                              
                      - O R C A' S   B I G   F R I E N D -                    
                                      &                                       
                       - I N T E G R A L  F E E D E R -                       
                                                                              
 v1 FN, 2020, v2 2021, v3 2022-2024                                           
------------------------------------------------------------------------------


----------------------
SHARK INTEGRAL PACKAGE
----------------------

Number of atoms                             ...     15
Number of basis functions                   ...    145
Number of shells                            ...     75
Maximum angular momentum                    ...      2
Integral batch strategy                     ... SHARK/LIBINT Hybrid
RI-J (if used) integral strategy            ... SPLIT-RIJ (Revised 2003 algorithm where possible)
Printlevel                                  ...      1
Contraction scheme used                     ... SEGMENTED contraction
Prescreening option                         ... SCHWARTZ
   Thresh                                   ... 1.000e-10
   Tcut                                     ... 1.000e-11
   Tpresel                                  ... 1.000e-11 
Coulomb Range Separation                    ... NOT USED
Exchange Range Separation                   ... NOT USED
Multipole approximations                    ... NOT USED
Finite Nucleus Model                        ... NOT USED
CABS basis                                  ... NOT available
Auxiliary Coulomb fitting basis             ... AVAILABLE
   # of basis functions in Aux-J            ...    355
   # of shells in Aux-J                     ...    125
   Maximum angular momentum in Aux-J        ...      4
Auxiliary J/K fitting basis                 ... NOT available
Auxiliary Correlation fitting basis         ... NOT available
Auxiliary 'external' fitting basis          ... NOT available

Checking pre-screening integrals            ... done (  0.0 sec) Dimension = 75
Check shell pair data                       ... done (  0.0 sec)
Shell pair information
Shell pair cut-off parameter TPreSel        ...   1.0e-11
Total number of shell pairs                 ...      2850
Shell pairs after pre-screening             ...      2716
Total number of primitive shell pairs       ...     10010
Primitive shell pairs kept                  ...      7214
          la=0 lb=0:    978 shell pairs
          la=1 lb=0:   1071 shell pairs
          la=1 lb=1:    310 shell pairs
          la=2 lb=0:    221 shell pairs
          la=2 lb=1:    121 shell pairs
          la=2 lb=2:     15 shell pairs

Calculating one electron integrals          ... done (  0.0 sec)
Calculating RI/J V-Matrix + Cholesky decomp.... done (  0.0 sec)
Calculating Nuclear repulsion               ... done (  0.0 sec) ENN=    176.471910782141 Eh

Diagonalization of the overlap matrix:
Smallest eigenvalue                        ... 3.134e-04
Time for diagonalization                   ...    0.002 sec
Threshold for overlap eigenvalues          ... 1.000e-07
Number of eigenvalues below threshold      ... 0
Time for construction of square roots      ...    0.003 sec
Total time needed                          ...    0.006 sec

-------------------
DFT GRID GENERATION
-------------------

General Integration Accuracy     IntAcc      ... 4.388
Radial Grid Type                 RadialGrid  ... OptM3 with GC (2021)
Angular Grid (max. ang.)         AngularGrid ... 4 (Lebedev-302)
Angular grid pruning method      GridPruning ... 4 (adaptive)
Weight generation scheme         WeightScheme... mBecke (2022)
Basis function cutoff            BFCut       ... 1.0000e-10
Integration weight cutoff        WCut        ... 1.0000e-14
Partially contracted basis set               ... off
Rotationally invariant grid construction     ... off
Angular grids for H and He will be reduced by one unit

Total number of grid points                  ...    62308
Total number of batches                      ...      982
Average number of points per batch           ...       63
Average number of grid points per atom       ...     4154
Initializing property integral containers    ... done (  0.0 sec)

SHARK setup successfully completed in   0.5 seconds

Maximum memory used throughout the entire STARTUP-calculation: 26.3 MB
-------------------------------------------------------------------------------
                                 ORCA GUESS
                   Start orbitals & Density for SCF / CASSCF
-------------------------------------------------------------------------------

------------
SCF SETTINGS
------------
Hamiltonian:
 Density Functional     Method          .... DFT(GTOs)
  Functional kind                       .... Exchange
  Functional name                       .... Re-regularized SCAN exchange by Furness et al
  Functional family                     .... MGGA
  Functional refs                              
    [ 0] J. W. Furness, A. D. Kaplan, J. Ning, J. P. Perdew, and J. Sun.,  J. Phys. Chem. Lett. 11, 8208-8215 (2020), doi: 10.1021/acs.jpclett.0c02405
    [ 1] J. W. Furness, A. D. Kaplan, J. Ning, J. P. Perdew, and J. Sun.,  J. Phys. Chem. Lett. 11, 9248-9248 (2020), doi: 10.1021/acs.jpclett.0c03077
  Functional external parameters        .... 6
    Parameter  0 _c1        =  6.670000e-01 : c1 parameter        
    Parameter  1 _c2        =  8.000000e-01 : c2 parameter        
    Parameter  2 _d         =  1.240000e+00 : d parameter         
    Parameter  3 _k1        =  6.500000e-02 : k1 parameter        
    Parameter  4 _eta       =  1.000000e-03 : eta parameter       
    Parameter  5 _dp2       =  3.610000e-01 : dp2 parameter       
  Functional kind                       .... Correlation
  Functional name                       .... Re-regularized SCAN correlation by Furness et al
  Functional family                     .... MGGA
  Functional refs                              
    [ 0] J. W. Furness, A. D. Kaplan, J. Ning, J. P. Perdew, and J. Sun.,  J. Phys. Chem. Lett. 11, 8208-8215 (2020), doi: 10.1021/acs.jpclett.0c02405
    [ 1] J. W. Furness, A. D. Kaplan, J. Ning, J. P. Perdew, and J. Sun.,  J. Phys. Chem. Lett. 11, 9248-9248 (2020), doi: 10.1021/acs.jpclett.0c03077
  Functional external parameters        .... 1
    Parameter  0 _eta       =  1.000000e-03 : Regularization parameter
 Gradients option       PostSCFGGA      .... off
 RI-approximation to the Coulomb term is turned on
   Number of AuxJ basis functions       .... 355


General Settings:
 Integral files         IntName         .... sp
 Hartree-Fock type      HFTyp           .... RHF
 Total Charge           Charge          ....    0
 Multiplicity           Mult            ....    1
 Number of Electrons    NEL             ....   40
 Basis Dimension        Dim             ....  145
 Nuclear Repulsion      ENuc            ....    176.4719107821 Eh

Convergence Acceleration:
 AO-DIIS                CNVDIIS         .... on
   Start iteration      DIISMaxIt       ....    12
   Startup error        DIISStart       ....  0.200000
   # of expansion vecs  DIISMaxEq       ....     5
   Bias factor          DIISBfac        ....   1.050
   Max. coefficient     DIISMaxC        ....  10.000
 MO-DIIS                CNVKDIIS        .... off
 Trust-Rad. Augm. Hess. CNVTRAH         .... auto
   Auto Start mean grad. ratio tolernc. ....  1.125000
   Auto Start start iteration           ....     1
   Auto Start num. interpolation iter.  ....    10
   Max. Number of Micro iterations      ....    24
   Max. Number of Macro iterations      .... Maxiter - #DIIS iter
   Number of Davidson start vectors     ....     2
   Converg. threshold    (grad. norm)   ....   3.330e-04
   Grad. Scal. Fac. for Micro threshold ....   0.100
   Minimum threshold for Micro iter.    ....   1.000e-02
   NR start threshold (gradient norm)   ....   1.000e-04
   Initial trust radius                 ....   0.400
   Minimum AH scaling param. (alpha)    ....   1.000
   Maximum AH scaling param. (alpha)    .... 1000.000
   Quad. conv. algorithm                .... NR
   White noise on init. David. guess    .... on
   Maximum white noise                  ....   0.010
   Pseudo random numbers                .... off
   Inactive MOs                         .... canonical
   Orbital update algorithm             .... Taylor
   Preconditioner                       .... Diag
   Full preconditioner red. dimension   ....   250
   COSX micro iterations for RIJONX calc.... off
 SOSCF                  CNVSOSCF        .... on
   Start iteration      SOSCFMaxIt      ....   150
   Startup grad/error   SOSCFStart      ....  0.003300
   Hessian update       SOSCFHessUp     .... L-BFGS
 Level Shifting         CNVShift        .... on
   Level shift para.    LevelShift      ....    0.2500
   Turn off err/grad.   ShiftErr        ....    0.0010
 Zerner damping         CNVZerner       .... off
 Static damping         CNVDamp         .... on
   Fraction old density DampFac         ....    0.7000
   Max. Damping (<1)    DampMax         ....    0.9800
   Min. Damping (>=0)   DampMin         ....    0.0000
   Turn off err/grad.   DampErr         ....    0.1000

SCF Procedure:
 Maximum # iterations   MaxIter         ....   125
 SCF integral mode      SCFMode         .... Direct
   Integral package                     .... SHARK and LIBINT hybrid scheme
 Reset frequency        DirectResetFreq ....    20
 Integral Threshold     Thresh          ....  1.000e-10 Eh
 Primitive CutOff       TCut            ....  1.000e-11 Eh

Convergence Tolerance:
 Convergence Check Mode ConvCheckMode   .... Total+1el-Energy
 Convergence forced     ConvForced      .... 0
 Energy Change          TolE            ....  1.000e-06 Eh
 1-El. energy change                    ....  1.000e-03 Eh
 Orbital Gradient       TolG            ....  3.330e-04
 Orbital Rotation angle TolX            ....  3.330e-04
 DIIS Error             TolErr          ....  1.000e-06

---------------------
INITIAL GUESS: MOREAD
---------------------
Guess MOs are being read from file: sp.ges
Input Geometry matches current geometry (good)
Atom 0: N(Shells)= 9 and 6 - projection required
Input basis set needs projection
NBasis(read)= 90
NBasis(calc)= 145
Basis set overlap was calculated
Using GuessMode=FMatrix for the initial guess
C*T matrix was formed
Effective Fockian was calculated
Effective Fockian was diagonalized
Initial density was built
                      ------------------
                      INITIAL GUESS DONE (   0.0 sec)
                      ------------------
             **** ENERGY FILE WAS UPDATED (sp.en.tmp) ****
Finished Guess after   0.1 sec
Maximum memory used throughout the entire GUESS-calculation: 10.5 MB

-------------------------------------------------------------------------------------------
                                      ORCA LEAN-SCF
                              memory conserving SCF solver
-------------------------------------------------------------------------------------------

----------------------------------------D-I-I-S--------------------------------------------
Iteration    Energy (Eh)           Delta-E    RMSDP     MaxDP     DIISErr   Damp  Time(sec)
-------------------------------------------------------------------------------------------
               ***  Starting incremental Fock matrix formation  ***
    1    -196.3601417562772440     0.00e+00  3.06e-03  8.48e-02  2.83e-01  0.700   1.1
    2    -196.3905787821308877    -3.04e-02  2.50e-03  6.83e-02  1.99e-01  0.700   0.8
                               ***Turning on AO-DIIS***
    3    -196.4121354556100414    -2.16e-02  1.87e-03  4.98e-02  1.39e-01  0.700   0.8
    4    -196.4272780146968671    -1.51e-02  1.34e-03  3.54e-02  9.75e-02  0.700   0.8
    5    -196.4379050980932107    -1.06e-02  3.18e-03  8.29e-02  6.82e-02  0.000   0.8
                              *** Initializing SOSCF ***
---------------------------------------S-O-S-C-F--------------------------------------
Iteration    Energy (Eh)           Delta-E    RMSDP     MaxDP     MaxGrad    Time(sec)
--------------------------------------------------------------------------------------
    6    -196.4627965709505588    -2.49e-02  4.88e-05  1.05e-03  3.24e-04     0.8
               *** Restarting incremental Fock matrix formation ***
    7    -196.4627971348671736    -5.64e-07  2.72e-05  4.28e-04  1.88e-04     0.9
    8    -196.4627962684176055     8.66e-07  1.25e-05  2.87e-04  4.47e-04     0.7
                 **** Energy Check signals convergence ****

               *****************************************************
               *                     SUCCESS                       *
               *           SCF CONVERGED AFTER   8 CYCLES          *
               *****************************************************

             **** ENERGY FILE WAS UPDATED (sp.en.tmp) ****

----------------
TOTAL SCF ENERGY
----------------

Total Energy       :       -196.46279626841761 Eh           -5346.02447 eV

Components:
Nuclear Repulsion  :        176.47191078214075 Eh            4802.04482 eV
Electronic Energy  :       -372.93470705055836 Eh          -10148.06930 eV
One Electron Energy:       -612.05001227910066 Eh          -16654.72754 eV
Two Electron Energy:        239.11530522854233 Eh            6506.65825 eV

Virial components:
Potential Energy   :       -392.04684323670932 Eh          -10668.13696 eV
Kinetic Energy     :        195.58404696829172 Eh            5322.11249 eV
Virial Ratio       :          2.00449294977657

DFT components:
N(Alpha)           :       20.000039281235 electrons
N(Beta)            :       20.000039281235 electrons
N(Total)           :       40.000078562470 electrons
E(X)               :      -29.560908411020 Eh       
E(C)               :       -1.223961396831 Eh       
E(XC)              :      -30.784869807851 Eh       

---------------
SCF CONVERGENCE
---------------

  Last Energy change         ...   -8.6645e-07  Tolerance :   1.0000e-06
  Last MAX-Density change    ...    2.8730e-04  Tolerance :   1.0000e-05
  Last RMS-Density change    ...    1.2520e-05  Tolerance :   1.0000e-06
  Last DIIS Error            ...    3.2411e-04  Tolerance :   1.0000e-06
  Last Orbital Gradient      ...    4.4714e-04  Tolerance :   3.3300e-04
  Last Orbital Rotation      ...    6.0229e-04  Tolerance :   3.3300e-04


----------------
ORBITAL ENERGIES
----------------

  NO   OCC          E(Eh)            E(eV) 
   0   2.0000     -10.039048      -273.1764 
   1   2.0000     -10.030672      -272.9485 
   2   2.0000     -10.018737      -272.6237 
   3   2.0000     -10.018732      -272.6236 
   4   2.0000     -10.016625      -272.5662 
   5   2.0000      -0.784035       -21.3347 
   6   2.0000      -0.706062       -19.2129 
   7   2.0000      -0.651851       -17.7378 
   8   2.0000      -0.572041       -15.5660 
   9   2.0000      -0.519318       -14.1314 
  10   2.0000      -0.432334       -11.7644 
  11   2.0000      -0.423796       -11.5321 
  12   2.0000      -0.390226       -10.6186 
  13   2.0000      -0.381423       -10.3790 
  14   2.0000      -0.355371        -9.6701 
  15   2.0000      -0.347560        -9.4576 
  16   2.0000      -0.313078        -8.5193 
  17   2.0000      -0.302945        -8.2435 
  18   2.0000      -0.293760        -7.9936 
  19   2.0000      -0.236206        -6.4275 
  20   0.0000      -0.010699        -0.2911 
  21   0.0000       0.085909         2.3377 
  22   0.0000       0.123343         3.3563 
  23   0.0000       0.127078         3.4580 
  24   0.0000       0.137225         3.7341 
  25   0.0000       0.142870         3.8877 
  26   0.0000       0.157774         4.2932 
  27   0.0000       0.169731         4.6186 
  28   0.0000       0.173142         4.7114 
  29   0.0000       0.174972         4.7612 
  30   0.0000       0.183910         5.0044 
*Only the first 10 virtual orbitals were printed.

                    ********************************
                    * MULLIKEN POPULATION ANALYSIS *
                    ********************************

-----------------------
MULLIKEN ATOMIC CHARGES
-----------------------
   0 C :   -0.474011
   1 C :   -0.033010
   2 C :   -0.474015
   3 C :   -0.106887
   4 C :   -0.380441
   5 H :    0.154542
   6 H :    0.145755
   7 H :    0.143487
   8 H :    0.146219
   9 H :    0.145782
  10 H :    0.143470
  11 H :    0.154545
  12 H :    0.153703
  13 H :    0.140239
  14 H :    0.140622
Sum of atomic charges:    0.0000000

--------------------------------
MULLIKEN REDUCED ORBITAL CHARGES
--------------------------------
  0 C s       :     3.318995  s :     3.318995
      pz      :     1.068215  p :     3.128078
      px      :     1.058444
      py      :     1.001419
      dz2     :     0.007176  d :     0.026938
      dxz     :     0.004428
      dyz     :     0.002585
      dx2y2   :     0.006168
      dxy     :     0.006581

  1 C s       :     3.062599  s :     3.062599
      pz      :     1.074050  p :     2.923030
      px      :     0.937647
      py      :     0.911333
      dz2     :     0.010914  d :     0.047381
      dxz     :     0.008227
      dyz     :     0.005534
      dx2y2   :     0.010760
      dxy     :     0.011945

  2 C s       :     3.319005  s :     3.319005
      pz      :     1.068213  p :     3.128071
      px      :     1.058563
      py      :     1.001295
      dz2     :     0.007177  d :     0.026939
      dxz     :     0.004425
      dyz     :     0.002588
      dx2y2   :     0.006165
      dxy     :     0.006584

  3 C s       :     3.127802  s :     3.127802
      pz      :     1.030097  p :     2.941024
      px      :     0.947163
      py      :     0.963764
      dz2     :     0.010915  d :     0.038060
      dxz     :     0.010700
      dyz     :     0.001433
      dx2y2   :     0.006762
      dxy     :     0.008251

  4 C s       :     3.289684  s :     3.289684
      pz      :     1.029944  p :     3.064283
      px      :     1.007212
      py      :     1.027126
      dz2     :     0.007636  d :     0.026475
      dxz     :     0.008446
      dyz     :     0.000975
      dx2y2   :     0.005293
      dxy     :     0.004125

  5 H s       :     0.827264  s :     0.827264
      pz      :     0.004056  p :     0.018194
      px      :     0.005515
      py      :     0.008623

  6 H s       :     0.836010  s :     0.836010
      pz      :     0.010680  p :     0.018235
      px      :     0.003966
      py      :     0.003589

  7 H s       :     0.838222  s :     0.838222
      pz      :     0.005367  p :     0.018291
      px      :     0.009341
      py      :     0.003583

  8 H s       :     0.836387  s :     0.836387
      pz      :     0.010851  p :     0.017394
      px      :     0.003312
      py      :     0.003231

  9 H s       :     0.835983  s :     0.835983
      pz      :     0.010680  p :     0.018235
      px      :     0.003966
      py      :     0.003589

 10 H s       :     0.838239  s :     0.838239
      pz      :     0.005367  p :     0.018291
      px      :     0.009341
      py      :     0.003583

 11 H s       :     0.827262  s :     0.827262
      pz      :     0.004056  p :     0.018193
      px      :     0.005520
      py      :     0.008617

 12 H s       :     0.827119  s :     0.827119
      pz      :     0.011923  p :     0.019178
      px      :     0.003244
      py      :     0.004011

 13 H s       :     0.839968  s :     0.839968
      pz      :     0.005769  p :     0.019793
      px      :     0.009516
      py      :     0.004508

 14 H s       :     0.839607  s :     0.839607
      pz      :     0.011948  p :     0.019771
      px      :     0.003360
      py      :     0.004462


------------------------
MULLIKEN OVERLAP CHARGES
------------------------
B(  0-C ,  1-C ) :   0.5451 B(  0-C ,  2-C ) :  -0.2693 B(  0-C ,  3-C ) :  -0.1887 
B(  0-C ,  5-H ) :   0.8023 B(  0-C ,  6-H ) :   0.8609 B(  0-C ,  7-H ) :   0.7990 
B(  1-C ,  2-C ) :   0.5451 B(  1-C ,  3-C ) :   0.4708 B(  1-C ,  4-C ) :  -0.0553 
B(  1-C ,  5-H ) :  -0.0738 B(  1-C ,  6-H ) :  -0.0966 B(  1-C ,  7-H ) :  -0.0822 
B(  1-C ,  8-H ) :   0.8970 B(  1-C ,  9-H ) :  -0.0966 B(  1-C , 10-H ) :  -0.0822 
B(  1-C , 11-H ) :  -0.0738 B(  1-C , 12-H ) :  -0.0642 B(  2-C ,  3-C ) :  -0.1890 
B(  2-C ,  9-H ) :   0.8610 B(  2-C , 10-H ) :   0.7989 B(  2-C , 11-H ) :   0.8022 
B(  3-C ,  4-C ) :   1.0365 B(  3-C ,  8-H ) :  -0.1854 B(  3-C , 12-H ) :   0.7356 
B(  3-C , 13-H ) :  -0.0596 B(  3-C , 14-H ) :  -0.1527 B(  4-C ,  8-H ) :   0.0545 
B(  4-C , 13-H ) :   0.8104 B(  4-C , 14-H ) :   0.8937 B( 13-H , 14-H ) :  -0.0508 



                     *******************************
                     * LOEWDIN POPULATION ANALYSIS *
                     *******************************

----------------------
LOEWDIN ATOMIC CHARGES
----------------------
   0 C :   -0.407683
   1 C :   -0.241700
   2 C :   -0.407666
   3 C :   -0.187911
   4 C :   -0.315182
   5 H :    0.157271
   6 H :    0.153467
   7 H :    0.153142
   8 H :    0.158425
   9 H :    0.153471
  10 H :    0.153136
  11 H :    0.157273
  12 H :    0.163408
  13 H :    0.155632
  14 H :    0.154917

-------------------------------
LOEWDIN REDUCED ORBITAL CHARGES
-------------------------------
  0 C s       :     2.972615  s :     2.972615
      pz      :     1.150431  p :     3.371812
      px      :     1.125419
      py      :     1.095962
      dz2     :     0.017718  d :     0.063256
      dxz     :     0.010792
      dyz     :     0.005336
      dx2y2   :     0.013814
      dxy     :     0.015597

  1 C s       :     2.903374  s :     2.903374
      pz      :     1.118523  p :     3.241276
      px      :     1.062010
      py      :     1.060744
      dz2     :     0.024791  d :     0.097050
      dxz     :     0.016903
      dyz     :     0.009663
      dx2y2   :     0.020591
      dxy     :     0.025102

  2 C s       :     2.972618  s :     2.972618
      pz      :     1.150423  p :     3.371789
      px      :     1.125487
      py      :     1.095879
      dz2     :     0.017720  d :     0.063259
      dxz     :     0.010786
      dyz     :     0.005342
      dx2y2   :     0.013808
      dxy     :     0.015603

  3 C s       :     2.937515  s :     2.937515
      pz      :     1.118519  p :     3.168744
      px      :     1.109593
      py      :     0.940632
      dz2     :     0.024980  d :     0.081651
      dxz     :     0.025559
      dyz     :     0.002430
      dx2y2   :     0.014212
      dxy     :     0.014470

  4 C s       :     2.979437  s :     2.979437
      pz      :     1.131779  p :     3.273418
      px      :     1.121436
      py      :     1.020203
      dz2     :     0.019298  d :     0.062327
      dxz     :     0.022660
      dyz     :     0.001700
      dx2y2   :     0.011669
      dxy     :     0.006999

  5 H s       :     0.799157  s :     0.799157
      pz      :     0.009048  p :     0.043572
      px      :     0.013111
      py      :     0.021413

  6 H s       :     0.802950  s :     0.802950
      pz      :     0.026717  p :     0.043583
      px      :     0.008829
      py      :     0.008036

  7 H s       :     0.803242  s :     0.803242
      pz      :     0.012661  p :     0.043615
      px      :     0.022904
      py      :     0.008051

  8 H s       :     0.799147  s :     0.799147
      pz      :     0.026539  p :     0.042429
      px      :     0.008055
      py      :     0.007835

  9 H s       :     0.802947  s :     0.802947
      pz      :     0.026719  p :     0.043582
      px      :     0.008828
      py      :     0.008036

 10 H s       :     0.803247  s :     0.803247
      pz      :     0.012659  p :     0.043617
      px      :     0.022905
      py      :     0.008052

 11 H s       :     0.799157  s :     0.799157
      pz      :     0.009048  p :     0.043571
      px      :     0.013124
      py      :     0.021399

 12 H s       :     0.791997  s :     0.791997
      pz      :     0.028721  p :     0.044595
      px      :     0.007337
      py      :     0.008537

 13 H s       :     0.798950  s :     0.798950
      pz      :     0.013643  p :     0.045418
      px      :     0.022087
      py      :     0.009688

 14 H s       :     0.799975  s :     0.799975
      pz      :     0.028646  p :     0.045107
      px      :     0.006918
      py      :     0.009544


---------------------------------
LOEWDIN BOND ORDERS (THRESH 0.050000)
---------------------------------
B(  0-C ,  1-C ) :   1.0995 B(  0-C ,  2-C ) :   0.0692 B(  0-C ,  3-C ) :   0.0784 
B(  0-C ,  5-H ) :   0.9244 B(  0-C ,  6-H ) :   0.9237 B(  0-C ,  7-H ) :   0.9237 
B(  1-C ,  2-C ) :   1.0995 B(  1-C ,  3-C ) :   1.0861 B(  1-C ,  4-C ) :   0.1050 
B(  1-C ,  8-H ) :   0.8613 B(  2-C ,  3-C ) :   0.0785 B(  2-C ,  9-H ) :   0.9237 
B(  2-C , 10-H ) :   0.9237 B(  2-C , 11-H ) :   0.9244 B(  3-C ,  4-C ) :   2.0679 
B(  3-C , 12-H ) :   0.8712 B(  3-C , 13-H ) :   0.0674 B(  3-C , 14-H ) :   0.0592 
B(  4-C , 12-H ) :   0.0584 B(  4-C , 13-H ) :   0.9163 B(  4-C , 14-H ) :   0.9146 


------------------------------------------
LOEWDIN REDUCED ORBITAL POPULATIONS PER MO
-------------------------------------------
THRESHOLD FOR PRINTING IS 0.1%%
                      0         1         2         3         4         5   
                 -10.03905 -10.03067 -10.01874 -10.01873 -10.01662  -0.78403
                   2.00000   2.00000   2.00000   2.00000   2.00000   2.00000
                  --------  --------  --------  --------  --------  --------
 0 C  s               0.0       0.0      90.2       9.5       0.0       9.8
 0 C  px              0.0       0.0       0.0       0.0       0.0       1.0
 0 C  py              0.1       0.0       0.0       0.0       0.0       2.3
 1 C  s              99.6       0.0       0.0       0.0       0.0      26.2
 1 C  pz              0.0       0.0       0.0       0.0       0.0       1.0
 2 C  s               0.0       0.0       9.5      90.2       0.0       9.8
 2 C  px              0.0       0.0       0.0       0.0       0.0       1.0
 2 C  py              0.1       0.0       0.0       0.0       0.0       2.3
 3 C  s               0.0      99.5       0.0       0.0       0.1      18.1
 3 C  pz              0.0       0.0       0.0       0.0       0.0       1.3
 3 C  px              0.1       0.0       0.0       0.0       0.1       1.0
 3 C  dx2y2           0.0       0.0       0.0       0.0       0.0       0.2
 4 C  s               0.0       0.1       0.0       0.0      99.5       7.2
 4 C  pz              0.0       0.0       0.0       0.0       0.0       0.3
 4 C  px              0.0       0.1       0.0       0.0       0.0       2.6
 5 H  s               0.0       0.0       0.0       0.0       0.0       1.2
 6 H  s               0.0       0.0       0.0       0.0       0.0       1.2
 6 H  pz              0.0       0.0       0.0       0.0       0.0       0.1
 7 H  s               0.0       0.0       0.0       0.0       0.0       1.2
 8 H  s               0.0       0.0       0.0       0.0       0.0       3.3
 8 H  pz              0.0       0.0       0.0       0.0       0.0       0.3
 9 H  s               0.0       0.0       0.0       0.0       0.0       1.2
 9 H  pz              0.0       0.0       0.0       0.0       0.0       0.1
10 H  s               0.0       0.0       0.0       0.0       0.0       1.2
11 H  s               0.0       0.0       0.0       0.0       0.0       1.2
12 H  s               0.0       0.0       0.0       0.0       0.0       2.1
12 H  pz              0.0       0.0       0.0       0.0       0.0       0.2
13 H  s               0.0       0.0       0.0       0.0       0.0       0.8
14 H  s               0.0       0.0       0.0       0.0       0.0       0.9

                      6         7         8         9        10        11   
                  -0.70606  -0.65185  -0.57204  -0.51932  -0.43233  -0.42380
                   2.00000   2.00000   2.00000   2.00000   2.00000   2.00000
                  --------  --------  --------  --------  --------  --------
 0 C  s               7.3      23.0       6.0       0.8       0.4       0.1
 0 C  pz              0.0       0.0       0.1       3.2       2.9       7.2
 0 C  px              0.1       0.0       3.0       0.3       0.2       2.2
 0 C  py              0.4       1.0       1.7       1.5      10.0       2.3
 0 C  dxy             0.0       0.0       0.1       0.0       0.1       0.0
 1 C  s               3.1       0.0       7.2       6.1       1.5       0.2
 1 C  pz              0.0       0.0       0.0      13.1       8.9       7.8
 1 C  px              8.2       0.0       7.3       0.2       4.3       7.7
 1 C  py              0.0      15.6       0.0       0.0       0.0       0.0
 1 C  dxz             0.1       0.0       0.1       0.1       0.0       0.0
 1 C  dx2y2           0.1       0.0       0.1       0.0       0.0       0.0
 1 C  dxy             0.0       0.3       0.0       0.0       0.0       0.0
 2 C  s               7.3      23.0       6.0       0.8       0.4       0.1
 2 C  pz              0.0       0.0       0.1       3.2       2.9       7.2
 2 C  px              0.1       0.0       3.0       0.3       0.2       2.2
 2 C  py              0.4       1.0       1.7       1.5      10.0       2.3
 2 C  dxy             0.0       0.0       0.1       0.0       0.1       0.0
 3 C  s              14.6       0.0       3.7       7.4       1.0       0.1
 3 C  pz              0.3       0.0       0.1      15.0       6.2       7.4
 3 C  px             10.3       0.0      12.1       0.2       3.7       7.0
 3 C  py              0.0       0.8       0.0       0.0       0.0       0.0
 3 C  dxz             0.2       0.0       0.3       0.0       0.0       0.0
 3 C  dx2y2           0.1       0.0       0.0       0.0       0.0       0.0
 4 C  s              25.0       0.0      11.6       3.1       1.1       0.1
 4 C  pz              0.6       0.0       0.2       7.2       0.1      19.2
 4 C  px              1.6       0.0       4.3       2.8      21.2       0.1
 4 C  dxz             0.1       0.0       0.0       0.1       0.2       0.0
 4 C  dx2y2           0.2       0.0       0.0       0.0       0.0       0.0
 5 H  s               1.2       5.9       1.9       0.4       4.0       0.9
 5 H  px              0.0       0.1       0.1       0.0       0.1       0.0
 5 H  py              0.1       0.3       0.1       0.0       0.1       0.0
 6 H  s               1.3       5.2       2.5       1.9       0.3       2.4
 6 H  pz              0.1       0.4       0.2       0.1       0.0       0.1
 7 H  s               1.4       5.2       3.3       0.2       1.3       2.0
 7 H  pz              0.0       0.1       0.1       0.0       0.0       0.0
 7 H  px              0.1       0.3       0.1       0.0       0.0       0.1
 8 H  s               0.4       0.0       2.3       8.8       1.3       2.3
 8 H  pz              0.0       0.0       0.2       0.5       0.0       0.1
 8 H  px              0.0       0.0       0.0       0.0       0.0       0.1
 9 H  s               1.3       5.2       2.5       1.9       0.3       2.4
 9 H  pz              0.1       0.4       0.2       0.1       0.0       0.1
10 H  s               1.4       5.2       3.3       0.2       1.3       2.1
10 H  pz              0.0       0.1       0.1       0.0       0.0       0.0
10 H  px              0.1       0.3       0.1       0.0       0.0       0.1
11 H  s               1.2       5.9       1.9       0.4       4.0       0.9
11 H  px              0.0       0.1       0.1       0.0       0.1       0.0
11 H  py              0.1       0.3       0.1       0.0       0.1       0.0
12 H  s               2.2       0.0       1.4      10.7       1.1       2.8
12 H  pz              0.2       0.0       0.1       0.6       0.0       0.1
12 H  px              0.0       0.0       0.0       0.0       0.0       0.1
13 H  s               4.0       0.0       5.7       1.2       8.8       1.6
13 H  pz              0.1       0.0       0.1       0.1       0.2       0.0
13 H  px              0.3       0.0       0.3       0.0       0.1       0.1
14 H  s               3.8       0.0       4.1       5.5       0.9       7.5
14 H  pz              0.3       0.0       0.3       0.3       0.0       0.2
14 H  px              0.0       0.0       0.0       0.0       0.1       0.0

                     12        13        14        15        16        17   
                  -0.39023  -0.38142  -0.35537  -0.34756  -0.31308  -0.30294
                   2.00000   2.00000   2.00000   2.00000   2.00000   2.00000
                  --------  --------  --------  --------  --------  --------
 0 C  s               0.1       0.2       0.0       0.0       0.3       0.5
 0 C  pz              1.5       1.9      27.1       5.4       0.0       7.2
 0 C  px              8.1      22.4       2.1       3.3       1.2       5.4
 0 C  py              9.0       0.2       0.0       0.1      23.2       1.1
 0 C  dz2             0.0       0.1       0.2       0.0       0.0       0.4
 0 C  dxz             0.0       0.1       0.1       0.1       0.0       0.0
 0 C  dx2y2           0.0       0.0       0.0       0.1       0.1       0.1
 0 C  dxy             0.0       0.0       0.0       0.0       0.4       0.0
 1 C  s               0.1       0.0       0.0       0.5       0.0       0.3
 1 C  pz              1.3       0.0       0.0       0.1       0.0      17.8
 1 C  px              2.2       0.0       0.0       0.2       0.0       8.1
 1 C  py              0.0      18.0       0.2       0.0      15.8       0.0
 1 C  dz2             0.0       0.0       0.0       0.0       0.0       1.0
 1 C  dxz             0.0       0.0       0.0       0.2       0.0       0.0
 1 C  dyz             0.0       0.0       0.3       0.0       0.1       0.0
 1 C  dx2y2           0.3       0.0       0.0       0.1       0.0       0.1
 1 C  dxy             0.0       0.0       0.1       0.0       0.3       0.0
 2 C  s               0.1       0.2       0.0       0.0       0.3       0.5
 2 C  pz              1.5       1.9      27.1       5.3       0.0       7.2
 2 C  px              8.0      22.5       2.1       3.3       1.2       5.4
 2 C  py              8.9       0.2       0.0       0.1      23.2       1.0
 2 C  dz2             0.0       0.1       0.2       0.0       0.0       0.4
 2 C  dxz             0.0       0.1       0.1       0.1       0.0       0.0
 2 C  dx2y2           0.0       0.1       0.0       0.1       0.1       0.1
 2 C  dxy             0.0       0.0       0.0       0.0       0.4       0.0
 3 C  s               0.5       0.0       0.0       0.9       0.0       0.1
 3 C  pz              5.1       0.0       0.0       8.7       0.0       1.1
 3 C  px              2.7       0.0       0.0       7.0       0.0       0.8
 3 C  py              0.0       6.3       0.6       0.0       3.6       0.0
 3 C  dz2             0.0       0.0       0.0       0.6       0.0       0.3
 3 C  dxz             0.2       0.0       0.0       0.0       0.0       0.1
 3 C  dx2y2           0.0       0.0       0.0       0.2       0.0       0.0
 4 C  s               0.2       0.0       0.0       0.4       0.0       0.4
 4 C  pz              2.1       0.0       0.0      21.9       0.0       0.0
 4 C  px             16.2       0.0       0.0       1.1       0.0       2.1
 4 C  py              0.0       1.4       0.1       0.0       1.2       0.0
 4 C  dz2             0.0       0.0       0.0       0.4       0.0       0.0
 4 C  dxz             0.2       0.0       0.0       0.0       0.0       0.0
 4 C  dx2y2           0.0       0.0       0.0       0.1       0.0       0.0
 5 H  s               7.7       2.0       0.3       0.0      12.4       1.7
 5 H  pz              0.0       0.0       0.2       0.0       0.0       0.0
 5 H  px              0.0       0.1       0.0       0.0       0.1       0.0
 5 H  py              0.2       0.1       0.0       0.0       0.0       0.1
 6 H  s               0.9       3.0      11.6       2.2       0.2       6.8
 6 H  pz              0.0       0.1       0.2       0.0       0.0       0.0
 6 H  py              0.1       0.0       0.0       0.0       0.2       0.0
 7 H  s               1.1       6.2       7.2       4.5       1.0       0.1
 7 H  pz              0.1       0.2       0.0       0.0       0.0       0.1
 7 H  px              0.0       0.0       0.2       0.1       0.0       0.0
 7 H  py              0.1       0.0       0.0       0.0       0.2       0.0
 8 H  s               1.0       0.0       0.0       0.2       0.0      17.5
 8 H  pz              0.0       0.0       0.0       0.0       0.0       0.1
 8 H  py              0.0       0.2       0.0       0.0       0.2       0.0
 9 H  s               0.8       3.0      11.6       2.2       0.2       6.8
 9 H  pz              0.0       0.1       0.2       0.0       0.0       0.0
 9 H  py              0.1       0.0       0.0       0.0       0.2       0.0
10 H  s               1.1       6.2       7.2       4.5       1.0       0.1
10 H  pz              0.1       0.2       0.0       0.0       0.0       0.1
10 H  px              0.0       0.0       0.2       0.1       0.0       0.0
10 H  py              0.1       0.0       0.0       0.0       0.2       0.0
11 H  s               7.7       2.1       0.3       0.0      12.3       1.7
11 H  pz              0.0       0.0       0.2       0.0       0.0       0.0
11 H  px              0.0       0.1       0.0       0.0       0.1       0.0
11 H  py              0.2       0.1       0.0       0.0       0.0       0.1
12 H  s               1.7       0.0       0.0      10.1       0.0       1.9
12 H  pz              0.0       0.0       0.0       0.2       0.0       0.0
13 H  s               8.1       0.0       0.0       2.1       0.0       0.8
13 H  px              0.1       0.0       0.0       0.2       0.0       0.0
14 H  s               0.3       0.0       0.0      12.6       0.0       0.0
14 H  pz              0.0       0.0       0.0       0.2       0.0       0.0
14 H  px              0.1       0.0       0.0       0.0       0.0       0.0

                     18        19        20        21        22        23   
                  -0.29376  -0.23621  -0.01070   0.08591   0.12334   0.12708
                   2.00000   2.00000   0.00000   0.00000   0.00000   0.00000
                  --------  --------  --------  --------  --------  --------
 0 C  s               0.0       0.5       1.0      12.2       0.6       6.6
 0 C  pz              0.9       0.0       0.4       0.2       7.3       1.0
 0 C  px              5.3       1.7       0.3       1.2       0.2       2.2
 0 C  py              0.2       1.9       0.7       3.2       0.1       4.9
 0 C  dz2             0.0       0.0       0.0       0.0       0.2       0.0
 0 C  dxz             0.1       0.0       0.1       0.1       0.1       0.0
 0 C  dyz             0.0       0.0       0.0       0.2       0.3       0.0
 0 C  dx2y2           0.2       0.0       0.1       0.1       0.0       0.2
 0 C  dxy             0.0       0.0       0.0       0.5       0.0       0.1
 1 C  s               0.2       0.0       0.0      10.4       1.6       0.4
 1 C  pz              6.0       0.0       0.0       4.2      13.8       1.1
 1 C  px             14.7       0.0       0.0       0.2       2.9      11.0
 1 C  py              0.0       3.3       0.1       0.0       0.0       0.0
 1 C  dz2             0.1       0.0       0.0       0.0       1.1       1.4
 1 C  dxz             0.3       0.0       0.0       0.0       0.6       0.5
 1 C  dx2y2           0.4       0.0       0.0       0.0       0.0       0.1
 1 C  dxy             0.0       0.6       1.1       0.0       0.0       0.0
 2 C  s               0.0       0.5       1.0      12.2       0.6       6.5
 2 C  pz              0.9       0.0       0.4       0.2       7.4       1.0
 2 C  px              5.3       1.7       0.3       1.2       0.2       2.1
 2 C  py              0.2       1.9       0.7       3.2       0.1       4.8
 2 C  dz2             0.0       0.0       0.0       0.0       0.2       0.0
 2 C  dxz             0.1       0.0       0.1       0.1       0.1       0.0
 2 C  dyz             0.0       0.0       0.0       0.2       0.3       0.0
 2 C  dx2y2           0.2       0.0       0.1       0.1       0.0       0.2
 2 C  dxy             0.0       0.0       0.0       0.5       0.0       0.1
 3 C  s               0.9       0.0       0.0       6.3       1.3       4.6
 3 C  pz             10.7       0.0       0.0       3.7       7.7       4.1
 3 C  px             10.3       0.0       0.0       0.6       1.9       5.6
 3 C  py              0.0      35.7      42.2       0.0       0.0       0.0
 3 C  dz2             0.3       0.0       0.0       0.0       0.8       1.1
 3 C  dxz             0.4       0.0       0.0       0.2       0.3       0.3
 3 C  dyz             0.0       0.1       0.3       0.0       0.0       0.0
 3 C  dx2y2           0.1       0.0       0.0       0.1       0.3       0.2
 3 C  dxy             0.0       0.6       0.7       0.0       0.0       0.0
 4 C  s               0.0       0.0       0.0       7.8       3.5      11.4
 4 C  pz              4.8       0.0       0.0       0.2      11.9       0.5
 4 C  px              4.0       0.0       0.0       1.6       0.7       2.4
 4 C  py              0.0      48.4      42.8       0.0       0.0       0.0
 4 C  dz2             0.4       0.0       0.0       0.1       1.0       0.0
 4 C  dxz             0.4       0.0       0.0       0.3       0.1       0.4
 4 C  dyz             0.0       0.1       0.3       0.0       0.0       0.0
 4 C  dx2y2           0.2       0.0       0.0       0.0       0.0       0.2
 4 C  dxy             0.0       0.3       1.0       0.0       0.0       0.0
 5 H  s               0.4       0.0       0.1       2.5       0.1       0.2
 5 H  pz              0.0       0.0       0.0       0.2       0.0       0.0
 5 H  px              0.0       0.0       0.0       0.9       0.0       0.0
 5 H  py              0.0       0.0       0.0       0.2       0.0       0.6
 6 H  s               0.6       0.0       0.1       2.3       1.8       0.4
 6 H  pz              0.0       0.0       0.0       1.0       1.0       0.2
 6 H  py              0.0       0.0       0.0       0.2       0.1       0.1
 7 H  s               4.8       0.5       0.8       2.4       0.0       0.9
 7 H  pz              0.0       0.0       0.0       0.5       0.0       0.3
 7 H  px              0.0       0.0       0.1       0.6       0.0       0.4
 7 H  py              0.0       0.0       0.0       0.3       0.0       0.0
 8 H  s               2.8       0.0       0.0       1.5       8.2       1.6
 8 H  pz              0.0       0.0       0.0       1.2       2.5       0.4
 8 H  px              0.2       0.0       0.0       0.0       0.7       0.8
 9 H  s               0.6       0.0       0.1       2.3       1.8       0.4
 9 H  pz              0.0       0.0       0.0       1.0       1.0       0.2
 9 H  py              0.0       0.0       0.0       0.2       0.1       0.1
10 H  s               4.8       0.5       0.8       2.4       0.0       0.9
10 H  pz              0.0       0.0       0.0       0.4       0.0       0.3
10 H  px              0.0       0.0       0.1       0.6       0.0       0.4
10 H  py              0.0       0.0       0.0       0.3       0.0       0.0
11 H  s               0.4       0.0       0.1       2.5       0.1       0.2
11 H  pz              0.0       0.0       0.0       0.2       0.0       0.0
11 H  px              0.0       0.0       0.0       0.9       0.0       0.0
11 H  py              0.0       0.0       0.0       0.2       0.0       0.6
12 H  s               5.6       0.0       0.0       1.2       2.9       4.2
12 H  pz              0.0       0.0       0.0       0.5       1.2       2.0
12 H  px              0.1       0.0       0.0       0.3       0.3       0.3
12 H  py              0.0       0.4       1.3       0.0       0.0       0.0
13 H  s               6.8       0.0       0.0       0.8       0.0       4.3
13 H  pz              0.0       0.0       0.0       0.2       0.3       1.1
13 H  px              0.0       0.0       0.0       0.1       0.1       1.1
13 H  py              0.0       0.5       1.1       0.0       0.0       0.0
14 H  s               4.4       0.0       0.0       0.5       7.6       1.6
14 H  pz              0.0       0.0       0.0       0.1       2.8       0.8
14 H  px              0.0       0.0       0.0       0.2       0.0       0.1
14 H  py              0.0       0.5       1.2       0.0       0.0       0.0

                     24        25        26        27        28        29   
                   0.13723   0.14287   0.15777   0.16973   0.17314   0.17497
                   0.00000   0.00000   0.00000   0.00000   0.00000   0.00000
                  --------  --------  --------  --------  --------  --------
 0 C  s              13.7       3.8       0.0       0.0       0.2       2.7
 0 C  pz              0.8       4.2       0.4       0.3       0.2       0.2
 0 C  px              3.1       5.3       6.6       2.1      15.5       9.4
 0 C  py             11.2       7.0       2.4       9.1       4.0       8.4
 0 C  dz2             0.1       1.0       0.0       0.3       0.0       0.1
 0 C  dxz             0.3       0.3       0.0       0.3       0.0       0.6
 0 C  dyz             0.1       0.0       0.0       0.5       0.0       0.1
 0 C  dx2y2           0.0       0.6       0.0       0.0       0.8       0.0
 0 C  dxy             0.3       0.0       0.9       1.2       0.0       0.7
 1 C  s               0.0       7.7       5.8       1.6       1.1       0.0
 1 C  pz              0.0       0.8       3.3       2.0       2.4       0.0
 1 C  px              0.0       1.9       2.7       4.2       5.1       0.0
 1 C  py             15.4       0.0       0.0       0.0       0.0      11.2
 1 C  dz2             0.0       0.1       0.1       0.0       0.4       0.0
 1 C  dxz             0.0       0.1       0.5       0.6       0.0       0.0
 1 C  dyz             0.9       0.0       0.0       0.0       0.0       0.3
 1 C  dx2y2           0.0       0.5       0.6       0.0       1.4       0.0
 1 C  dxy             0.7       0.0       0.0       0.0       0.0       1.1
 2 C  s              13.8       3.8       0.0       0.0       0.2       2.7
 2 C  pz              0.7       4.2       0.4       0.3       0.2       0.2
 2 C  px              3.1       5.3       6.6       2.2      15.3       9.6
 2 C  py             11.3       7.0       2.4       9.1       3.9       8.5
 2 C  dz2             0.1       1.0       0.0       0.3       0.0       0.1
 2 C  dxz             0.3       0.3       0.0       0.4       0.0       0.5
 2 C  dyz             0.1       0.0       0.0       0.5       0.0       0.1
 2 C  dx2y2           0.0       0.6       0.0       0.0       0.8       0.0
 2 C  dxy             0.3       0.0       0.9       1.2       0.0       0.7
 3 C  s               0.0       1.0      14.2       2.7       1.7       0.0
 3 C  pz              0.0       0.3       9.4       4.9       2.2       0.0
 3 C  px              0.0       5.9       0.8       0.7       2.6       0.0
 3 C  py              1.3       0.0       0.0       0.0       0.0      18.0
 3 C  dz2             0.0       0.0       0.2       0.3       0.3       0.0
 3 C  dxz             0.0       0.5       0.1       0.0       0.9       0.0
 3 C  dyz             0.3       0.0       0.0       0.0       0.0       0.7
 3 C  dx2y2           0.0       0.0       2.4       0.0       0.0       0.0
 3 C  dxy             0.1       0.0       0.0       0.0       0.0       0.0
 4 C  s               0.0       7.1       3.3       9.2       1.1       0.0
 4 C  pz              0.0       0.1       2.9       0.2       2.1       0.0
 4 C  px              0.0       2.5      10.8      14.9       6.6       0.0
 4 C  py              1.6       0.0       0.0       0.0       0.0       5.9
 4 C  dz2             0.0       0.1       0.8       0.0       0.5       0.0
 4 C  dxz             0.0       0.0       0.4       0.1       1.3       0.0
 4 C  dxy             0.0       0.0       0.0       0.0       0.0       0.3
 5 H  s               1.0       5.9       1.1       7.3       0.6       2.5
 5 H  pz              0.3       0.0       0.0       0.2       0.1       0.0
 5 H  px              0.1       0.1       0.3       0.4       0.0       1.0
 5 H  py              0.5       1.6       0.1       0.2       0.9       0.7
 6 H  s               4.0       1.1       0.6       0.6       0.0       0.2
 6 H  pz              1.5       0.0       0.1       0.1       0.1       0.2
 6 H  px              0.3       0.5       0.0       0.3       0.0       0.4
 6 H  py              0.1       0.0       0.0       0.8       0.0       0.3
 7 H  s               0.6       0.8       0.3       1.1       3.9       2.3
 7 H  pz              0.2       0.5       0.0       0.5       0.2       0.5
 7 H  px              0.5       0.1       0.2       0.0       1.4       0.1
 7 H  py              0.1       0.0       0.6       0.3       0.0       0.3
 8 H  s               0.0       1.0       1.0       0.4       3.6       0.0
 8 H  pz              0.0       0.9       0.0       0.1       1.1       0.0
 8 H  px              0.0       0.0       0.4       0.8       0.0       0.0
 8 H  py              1.7       0.0       0.0       0.0       0.0       0.6
 9 H  s               4.0       1.1       0.6       0.6       0.0       0.2
 9 H  pz              1.6       0.0       0.1       0.1       0.1       0.2
 9 H  px              0.3       0.5       0.0       0.3       0.0       0.4
 9 H  py              0.1       0.0       0.0       0.8       0.0       0.3
10 H  s               0.6       0.8       0.2       1.1       4.0       2.2
10 H  pz              0.2       0.5       0.0       0.5       0.2       0.5
10 H  px              0.5       0.1       0.2       0.0       1.4       0.0
10 H  py              0.1       0.0       0.6       0.3       0.0       0.3
11 H  s               1.0       5.9       1.1       7.3       0.6       2.5
11 H  pz              0.3       0.0       0.0       0.2       0.1       0.0
11 H  px              0.1       0.1       0.3       0.4       0.1       1.0
11 H  py              0.5       1.6       0.1       0.2       0.9       0.8
12 H  s               0.0       0.0       5.9       1.0       2.3       0.0
12 H  pz              0.0       0.0       2.4       0.0       0.7       0.0
12 H  px              0.0       0.5       0.0       0.0       0.5       0.0
12 H  py              0.1       0.0       0.0       0.0       0.0       0.2
13 H  s               0.0       0.6       0.1       1.5       1.8       0.0
13 H  pz              0.0       0.2       0.5       0.3       0.1       0.0
13 H  px              0.0       0.3       0.8       0.9       0.0       0.0
14 H  s               0.0       1.3       2.6       1.6       2.6       0.0
14 H  pz              0.0       0.7       0.0       0.8       0.8       0.0
14 H  px              0.0       0.0       0.5       0.1       0.7       0.0

                     30        31        32        33        34        35   
                   0.18391   0.19414   0.20063   0.22576   0.23545   0.23705
                   0.00000   0.00000   0.00000   0.00000   0.00000   0.00000
                  --------  --------  --------  --------  --------  --------
 0 C  s               0.0       0.1       0.5       1.8       0.1       0.2
 0 C  pz              5.9       7.8      13.4       7.0      11.6      24.0
 0 C  px              3.1       6.0       6.9       5.3       0.1       4.8
 0 C  py              0.7       0.3       4.2       5.5       1.0       2.4
 0 C  dz2             0.5       0.3       1.3       1.6       0.1       0.0
 0 C  dxz             0.7       0.0       0.7       0.1       0.0       0.5
 0 C  dyz             0.1       0.0       0.1       0.0       0.5       0.1
 0 C  dx2y2           0.3       0.0       0.1       0.2       0.0       0.4
 0 C  dxy             0.0       0.0       0.3       0.0       0.0       0.0
 1 C  s               0.9       0.4       0.0       0.0       0.7       0.0
 1 C  pz              1.2       0.3       0.0       0.0      11.1       0.0
 1 C  px              0.3       1.1       0.0       0.0       3.1       0.0
 1 C  py              0.0       0.0      11.1       2.7       0.0       2.2
 1 C  dz2             0.0       0.3       0.0       0.0       0.0       0.0
 1 C  dxz             0.2       0.1       0.0       0.0       0.9       0.0
 1 C  dyz             0.0       0.0       0.9       0.1       0.0       0.3
 1 C  dxy             0.0       0.0       0.0       0.1       0.0       0.5
 2 C  s               0.0       0.1       0.5       1.8       0.1       0.2
 2 C  pz              5.9       7.8      13.3       7.1      11.4      24.1
 2 C  px              3.1       5.9       6.9       5.3       0.1       4.8
 2 C  py              0.7       0.3       4.2       5.5       1.0       2.3
 2 C  dz2             0.5       0.3       1.3       1.6       0.1       0.0
 2 C  dxz             0.7       0.0       0.7       0.1       0.0       0.5
 2 C  dyz             0.1       0.0       0.1       0.0       0.5       0.1
 2 C  dx2y2           0.3       0.0       0.1       0.2       0.0       0.4
 2 C  dxy             0.0       0.0       0.3       0.0       0.0       0.0
 3 C  s              11.4       0.3       0.0       0.0       1.8       0.0
 3 C  pz              0.7       1.2       0.0       0.0       2.1       0.0
 3 C  px              2.5       1.3       0.0       0.0       2.3       0.0
 3 C  py              0.0       0.0       2.4       1.0       0.0       0.3
 3 C  dz2             0.1       1.1       0.0       0.0       0.5       0.0
 3 C  dxz             0.1       0.8       0.0       0.0       0.0       0.0
 3 C  dyz             0.0       0.0       0.0       0.2       0.0       0.0
 3 C  dx2y2           0.2       0.1       0.0       0.0       0.2       0.0
 4 C  s               1.8       0.9       0.0       0.0       1.9       0.0
 4 C  pz              4.0      17.3       0.0       0.0      11.0       0.0
 4 C  px              6.8      10.8       0.0       0.0       9.0       0.0
 4 C  py              0.0       0.0       0.8       2.6       0.0       0.1
 4 C  dz2             0.0       0.2       0.0       0.0       1.1       0.0
 4 C  dxz             0.0       0.5       0.0       0.0       0.5       0.0
 4 C  dx2y2           1.2       0.8       0.0       0.0       0.0       0.0
 4 C  dxy             0.0       0.0       0.2       0.1       0.0       0.0
 5 H  s               0.2       0.4       0.2       6.8       0.5       0.5
 5 H  pz              1.0       0.0       1.2       0.0       0.7       0.0
 5 H  px              0.3       0.0       0.0       0.4       0.0       0.0
 5 H  py              0.0       0.0       0.0       2.1       0.1       0.2
 6 H  s               7.1       2.5       5.7       9.4       0.4       1.6
 6 H  pz              1.4       0.9       0.2       3.1       0.0       0.7
 6 H  px              0.5       0.0       0.3       0.1       0.0       0.5
 6 H  py              0.1       0.0       0.1       0.1       0.5       0.1
 7 H  s               6.4       0.8       5.1       1.3       0.1       8.4
 7 H  pz              0.0       0.0       0.0       1.2       0.1       1.0
 7 H  px              0.9       0.7       1.5       0.0       0.0       2.6
 7 H  py              0.0       0.0       0.1       0.0       0.3       0.1
 8 H  s               1.4       1.5       0.0       0.0       0.6       0.0
 8 H  pz              0.2       0.4       0.0       0.0       0.6       0.0
 8 H  py              0.0       0.0       0.7       0.1       0.0       0.1
 9 H  s               7.1       2.5       5.7       9.5       0.4       1.6
 9 H  pz              1.4       0.9       0.2       3.1       0.0       0.7
 9 H  px              0.5       0.0       0.3       0.1       0.0       0.5
 9 H  py              0.1       0.0       0.1       0.1       0.5       0.1
10 H  s               6.4       0.8       5.1       1.3       0.1       8.4
10 H  pz              0.0       0.0       0.0       1.2       0.1       1.0
10 H  px              0.9       0.7       1.5       0.0       0.0       2.6
10 H  py              0.0       0.0       0.1       0.0       0.3       0.1
11 H  s               0.2       0.4       0.2       6.8       0.5       0.5
11 H  pz              1.0       0.0       1.2       0.0       0.7       0.0
11 H  px              0.3       0.0       0.0       0.4       0.0       0.0
11 H  py              0.0       0.0       0.0       2.1       0.1       0.2
12 H  s               0.4       2.4       0.0       0.0       7.1       0.0
12 H  pz              0.2       0.2       0.0       0.0       2.1       0.0
12 H  py              0.0       0.0       0.0       0.2       0.0       0.1
13 H  s               4.4      10.9       0.0       0.0       3.9       0.0
13 H  pz              0.1       0.5       0.0       0.0       1.5       0.0
13 H  px              0.8       3.5       0.0       0.0       0.1       0.0
14 H  s               1.7       2.0       0.0       0.0       4.8       0.0
14 H  pz              0.6       0.9       0.0       0.0       0.6       0.0
14 H  px              0.0       0.4       0.0       0.0       0.7       0.0

                     36        37        38        39        40        41   
                   0.24417   0.25432   0.26548   0.27957   0.30014   0.30109
                   0.00000   0.00000   0.00000   0.00000   0.00000   0.00000
                  --------  --------  --------  --------  --------  --------
 0 C  s               0.5       1.2       0.9       0.0       3.1       3.6
 0 C  pz             11.0       3.9       3.3       0.1       0.4       5.4
 0 C  px              0.0       1.4       2.3       1.2       2.2       1.3
 0 C  py              0.8       8.0       0.7       6.3       3.0       8.2
 0 C  dz2             1.0       0.1       0.0       0.1       0.0       0.2
 0 C  dxz             0.3       0.0       0.0       0.1       0.3       0.0
 0 C  dyz             0.0       0.1       0.0       0.0       0.4       0.1
 0 C  dx2y2           0.0       0.5       0.0       0.3       0.1       0.3
 0 C  dxy             0.0       0.0       0.4       0.1       0.0       1.4
 1 C  s               0.2       0.0       0.2       0.6       1.9       0.0
[...]
 9 H  px              0.1       0.3       0.0       0.2       0.0       0.7
 9 H  py              0.0       0.0       0.1       0.0       0.4       0.0
10 H  s               0.5       2.6       1.7       2.7       0.1       4.4
10 H  pz              0.1       1.2       2.8       2.1       0.3       2.1
10 H  px              1.1       6.3       3.4       4.1       0.0       8.2
10 H  py              0.1       0.1       0.1       0.1       0.3       0.0
11 H  s               0.1       0.7       0.1       4.5       5.4       0.6
11 H  pz              0.1       0.0       0.1       1.1       0.6       0.6
11 H  px              0.1       1.6       0.4       2.8       3.9       0.2
11 H  py              0.2       1.1       0.0       8.0       8.9       1.0
12 H  s               2.7       0.6       0.0       0.3       0.0       0.0
12 H  pz              9.0       1.9       0.0       0.9       0.0       0.0
12 H  px              0.7       0.0       0.0       0.2       0.0       0.0
13 H  s               0.5       0.0       0.0       0.4       0.0       0.0
13 H  pz              0.0       0.0       0.0       0.4       0.0       0.0
13 H  px              2.5       0.3       0.0       0.6       0.0       0.0
14 H  s               3.8       0.9       0.0       0.3       0.0       0.0
14 H  pz             11.7       2.5       0.0       0.6       0.0       0.0
14 H  px              1.2       0.2       0.0       0.0       0.0       0.0

                    138       139       140       141       142       143   
                   3.64672   3.80581  21.72149  21.93452  21.98026  22.07718
                   0.00000   0.00000   0.00000   0.00000   0.00000   0.00000
                  --------  --------  --------  --------  --------  --------
 0 C  s               0.3       0.0       0.0      44.7      49.9       4.4
 0 C  pz              1.8       0.0       0.0       0.0       0.0       0.0
 0 C  px              0.8       0.1       0.0       0.0       0.0       0.0
 0 C  py              0.3       0.1       0.0       0.0       0.0       0.0
 0 C  dz2             6.5       0.0       0.0       0.0       0.0       0.0
 0 C  dx2y2           0.8       0.3       0.0       0.0       0.0       0.0
 0 C  dxy             0.0       0.2       0.0       0.0       0.0       0.0
 1 C  s               1.5       0.1       0.1       6.8       0.0      85.7
 1 C  pz              6.2       2.2       0.0       0.0       0.0       0.0
 1 C  px              1.5       0.4       0.0       0.0       0.0       0.0
 1 C  dz2            18.5       1.3       0.0       0.0       0.0       0.0
 1 C  dxz             0.2       4.0       0.0       0.0       0.0       0.0
 1 C  dx2y2           0.2       0.1       0.0       0.0       0.0       0.0
 2 C  s               0.3       0.0       0.0      44.7      49.8       4.4
 2 C  pz              1.8       0.0       0.0       0.0       0.0       0.0
 2 C  px              0.8       0.1       0.0       0.0       0.0       0.0
 2 C  py              0.3       0.1       0.0       0.0       0.0       0.0
 2 C  dz2             6.5       0.0       0.0       0.0       0.0       0.0
 2 C  dx2y2           0.8       0.3       0.0       0.0       0.0       0.0
 2 C  dxy             0.0       0.2       0.0       0.0       0.0       0.0
 3 C  s               0.0       0.2      39.7       1.9       0.0       3.8
 3 C  pz              0.3       2.0       0.0       0.0       0.0       0.0
 3 C  px              0.6       0.5       0.0       0.0       0.0       0.0
 3 C  dz2             0.6      12.4       0.0       0.0       0.0       0.0
 3 C  dxz             0.4       4.3       0.0       0.0       0.0       0.0
 3 C  dx2y2           0.4       2.6       0.0       0.0       0.0       0.0
 4 C  s               0.1       0.0      59.9       1.7       0.0       1.4
 4 C  pz              0.0       2.9       0.0       0.0       0.0       0.0
 4 C  px              0.6       1.2       0.0       0.0       0.0       0.0
 4 C  dz2             0.0       8.9       0.0       0.0       0.0       0.0
 4 C  dxz             1.3      10.5       0.0       0.0       0.0       0.0
 4 C  dx2y2           0.0       4.0       0.0       0.0       0.0       0.0
 5 H  s               0.4       0.2       0.0       0.0       0.0       0.0
 5 H  px              0.0       0.1       0.0       0.0       0.0       0.0
 5 H  py              0.6       0.1       0.0       0.0       0.0       0.0
 6 H  s               2.2       0.0       0.0       0.0       0.0       0.0
 6 H  pz              5.7       0.0       0.0       0.0       0.0       0.0
 6 H  px              0.3       0.0       0.0       0.0       0.0       0.0
 7 H  pz              0.0       0.1       0.0       0.0       0.0       0.0
 7 H  px              0.0       0.1       0.0       0.0       0.0       0.0
 8 H  s               6.9       1.3       0.0       0.0       0.0       0.0
 8 H  pz             18.2       2.4       0.0       0.0       0.0       0.0
 8 H  px              0.8       0.0       0.0       0.0       0.0       0.0
 9 H  s               2.2       0.0       0.0       0.0       0.0       0.0
 9 H  pz              5.6       0.0       0.0       0.0       0.0       0.0
 9 H  px              0.3       0.0       0.0       0.0       0.0       0.0
10 H  pz              0.0       0.1       0.0       0.0       0.0       0.0
10 H  px              0.0       0.1       0.0       0.0       0.0       0.0
11 H  s               0.3       0.2       0.0       0.0       0.0       0.0
11 H  px              0.0       0.1       0.0       0.0       0.0       0.0
11 H  py              0.6       0.1       0.0       0.0       0.0       0.0
12 H  s               0.2       3.7       0.0       0.0       0.0       0.0
12 H  pz              0.6       8.5       0.0       0.0       0.0       0.0
13 H  s               0.3       4.7       0.0       0.0       0.0       0.0
13 H  pz              0.2       3.5       0.0       0.0       0.0       0.0
13 H  px              0.5       5.2       0.0       0.0       0.0       0.0
14 H  s               0.0       3.3       0.0       0.0       0.0       0.0
14 H  pz              0.1       6.5       0.0       0.0       0.0       0.0
14 H  px              0.0       0.1       0.0       0.0       0.0       0.0

                    144   
                  22.18898
                   0.00000
                  --------
 0 C  s               0.7
 1 C  s               7.3
 2 C  s               0.7
 3 C  s              54.2
 4 C  s              36.7


                      *****************************
                      * MAYER POPULATION ANALYSIS *
                      *****************************

  NA   - Mulliken gross atomic population
  ZA   - Total nuclear charge
  QA   - Mulliken gross atomic charge
  VA   - Mayer's total valence
  BVA  - Mayer's bonded valence
  FA   - Mayer's free valence

  ATOM       NA         ZA         QA         VA         BVA        FA
  0 C      6.4740     6.0000    -0.4740     3.7615     3.7615    -0.0000
  1 C      6.0330     6.0000    -0.0330     3.6445     3.6445    -0.0000
  2 C      6.4740     6.0000    -0.4740     3.7615     3.7615     0.0000
  3 C      6.1069     6.0000    -0.1069     3.6520     3.6520    -0.0000
  4 C      6.3804     6.0000    -0.3804     4.0031     4.0031     0.0000
  5 H      0.8455     1.0000     0.1545     0.9632     0.9632     0.0000
  6 H      0.8542     1.0000     0.1458     0.9675     0.9675     0.0000
  7 H      0.8565     1.0000     0.1435     0.9649     0.9649    -0.0000
  8 H      0.8538     1.0000     0.1462     0.9658     0.9658    -0.0000
  9 H      0.8542     1.0000     0.1458     0.9675     0.9675     0.0000
 10 H      0.8565     1.0000     0.1435     0.9649     0.9649     0.0000
 11 H      0.8455     1.0000     0.1545     0.9632     0.9632     0.0000
 12 H      0.8463     1.0000     0.1537     0.9671     0.9671    -0.0000
 13 H      0.8598     1.0000     0.1402     0.9725     0.9725     0.0000
 14 H      0.8594     1.0000     0.1406     0.9723     0.9723     0.0000

  Mayer bond orders larger than 0.100000
B(  0-C ,  1-C ) :   0.9036 B(  0-C ,  5-H ) :   0.9728 B(  0-C ,  6-H ) :   0.9841 
B(  0-C ,  7-H ) :   0.9704 B(  1-C ,  2-C ) :   0.9036 B(  1-C ,  3-C ) :   0.9435 
B(  1-C ,  8-H ) :   0.9696 B(  2-C ,  9-H ) :   0.9842 B(  2-C , 10-H ) :   0.9704 
B(  2-C , 11-H ) :   0.9728 B(  3-C ,  4-C ) :   1.9407 B(  3-C , 12-H ) :   0.9173 
B(  4-C , 13-H ) :   0.9603 B(  4-C , 14-H ) :   0.9931 

-------
TIMINGS
-------

Total SCF time: 0 days 0 hours 0 min 11 sec 

Total time                  ....      11.230 sec
Sum of individual times     ....      11.201 sec  ( 99.7%)

SCF preparation             ....       1.229 sec  ( 10.9%)
Fock matrix formation       ....       6.655 sec  ( 59.3%)
  Startup                   ....       0.007 sec  (  0.1% of F)
  Split-RI-J                ....       1.013 sec  ( 15.2% of F)
  XC integration            ....       5.555 sec  ( 83.5% of F)
    Basis function eval.    ....       1.056 sec  ( 19.0% of XC)
    Density eval.           ....       1.574 sec  ( 28.3% of XC)
    XC-Functional eval.     ....       0.849 sec  ( 15.3% of XC)
    XC-Potential eval.      ....       1.646 sec  ( 29.6% of XC)
Diagonalization             ....       0.000 sec  (  0.0%)
Density matrix formation    ....       0.027 sec  (  0.2%)
Total Energy calculation    ....       0.002 sec  (  0.0%)
Population analysis         ....       3.202 sec  ( 28.5%)
Orbital Transformation      ....       0.012 sec  (  0.1%)
Orbital Orthonormalization  ....       0.000 sec  (  0.0%)
DIIS solution               ....       0.058 sec  (  0.5%)
  MO trafo                  ....       0.000 sec  (  0.0 % of DIIS)
  Orb grad                  ....       0.000 sec  (  0.0 % of DIIS)
  Energy W gradient         ....       0.000 sec  (  0.0 % of DIIS)
  DIIS error                ....       0.002 sec  (  4.2 % of DIIS)
  DIIS work                 ....       0.048 sec  ( 82.9 % of DIIS)
  Form Q                    ....       0.000 sec  (  0.0 % of DIIS)
  Form QpQm                 ....       0.000 sec  (  0.0 % of DIIS)
  Exp/Cayley                ....       0.000 sec  (  0.0 % of DIIS)
  Orb update                ....       0.000 sec  (  0.0 % of DIIS)
  Wake-sleep                ....       0.001 sec  (  1.6 % of DIIS)
SOSCF solution              ....       0.015 sec  (  0.1%)
  MO trafo                  ....       0.010 sec  ( 62.2 % of SOSCF)
  Orb grad                  ....       0.000 sec  (  1.0 % of SOSCF)
  Rot update                ....       0.001 sec  (  8.5 % of SOSCF)
  Step                      ....       0.004 sec  ( 28.1 % of SOSCF)
Finished LeanSCF after  15.5 sec

Maximum memory used throughout the entire LEANSCF-calculation: 16.0 MB


-------------------------------------------------------------------------------
                          DFT DISPERSION CORRECTION                            
                                                                               
                                DFTD4 V3.4.0                                   
-------------------------------------------------------------------------------
The R2SCAN3C composite method is recognized
Using three-body term ABC
Active option DFTDOPT                   ...         5   

-------------------------   ----------------
Dispersion correction           -0.003407814
-------------------------   ----------------

------------------   -----------------
gCP correction             0.005977088
------------------   -----------------

-------------------------   --------------------
FINAL SINGLE POINT ENERGY      -196.460226994157
-------------------------   --------------------


------------------------------------------------------------------------------
                              ORCA PROPERTY CALCULATIONS
------------------------------------------------------------------------------

GBWName                                 ... sp.gbw
Number of atoms                         ...     15
Number of basis functions               ...    145
Max core memory                         ...   1024 MB

Electric properties:
Dipole moment                           ... YES
Quadrupole moment                       ...  NO
Static polarizability (Dipole/Dipole)   ...  NO
Static polarizability (Dipole/Quad.)    ...  NO
Static polarizability (Quad./Quad.)     ...  NO
Static polarizability (Velocity)        ...  NO

Atomic electric properties:
Dipole moment                           ...  NO
Quadrupole moment                       ...  NO
Static polarizability                   ...  NO

Choice of electric origin               ... Center of mass
Position of electric origin             ...     0.000007    -0.000000    -0.000000

General magnetic properties:
Magnetizability                         ...  NO

EPR properties:
g-Tensor (aka g-matrix)                 ...  NO
Zero-Field splitting spin-orbit         ...  NO
Zero-field splitting spin-spin          ...  NO
Hyperfine couplings                     ...  NO (   0 nuclei)
Quadrupole couplings                    ...  NO (   0 nuclei)
Contact density                         ...  NO (   0 nuclei)

NMR properties:
Chemical shifts                         ...  NO (   0 nuclei)
Spin-rotation constants                 ...  NO (   0 nuclei)
Spin-spin couplings                     ...  NO (   0 nuclei,    0 pairs)

Choice of magnetic origin               ... GIAO
Position of magnetic origin             ...     0.000000     0.000000     0.000000

Properties with geometric perturbations:
SCF Hessian                             ...  NO
IR spectrum                             ...  NO
VCD spectrum                            ...  NO
X-ray spectroscopy properties:
SCF XES/XAS/RIXS spectra                ...  NO


-------------
DIPOLE MOMENT
-------------

Method             : SCF
Type of density    : Electron Density
Multiplicity       :   1
Irrep              :   0
Energy             :  -196.4627962684176055 Eh
Relativity type    : 
Basis              : AO
                                X                 Y                 Z
Electronic contribution:     -2.214358490       0.001037110       0.036937004
Nuclear contribution   :      2.371346860      -0.001098337      -0.017172745
                        -----------------------------------------
Total Dipole Moment    :      0.156988371      -0.000061227       0.019764260
                        -----------------------------------------
Magnitude (a.u.)       :      0.158227615
Magnitude (Debye)      :      0.402182636



--------------------
Rotational spectrum 
--------------------
 
Rotational constants in cm-1:             0.253766             0.120141             0.092882 
Rotational constants in MHz :          7607.726806          3601.735340          2784.538726 

Dipole components along the rotational axes: 
x,y,z [a.u.] :     0.156988     0.000061     0.019764 
x,y,z [Debye]:     0.399033     0.000156     0.050237 

 

Dipole moment calculation done in   1.4 sec 

Maximum memory used throughout the entire PROP-calculation: 8.8 MB

--------------------------------
SUGGESTED CITATIONS FOR THIS RUN
--------------------------------

Below you find a list of papers that are relevant to this ORCA run
We neither can nor want to force you to cite these papers, but we appreciate if you do
You receive ORCA, which is the product of decades of hard work by many enthusiastic individuals, for free
The only thing we kindly ask in return is that you cite our papers,
We deeply appreciate it, if you show your appreciation for ORCA by not just citing the generic ORCA reference.

Please note that relegating all ORCA citations to the supporting information does *not* help us.
SI sections are not indexed - citations you put there will not count into any citation statistics
But we need these citations in order to attract the funding resources that allow us to do what we are doing

Therefore, if you are a happy ORCA user, please consider citing a few of the papers listed below in the main body of your paper

In addition to the list printed below, the program has created the file sp.bibtex that contains the list in bibtex format
You can import this file easily into all common literature databanks and citation aid programs


List of essential papers. We consider these as the minimum necessary citations

  1. Neese,F.
     Software update: the ORCA program system, version 5.0
     WIRES Comput. Molec. Sci., 2022 12(1)e1606
     doi.org/10.1002/wcms.1606
  2. Grimme,S.; Hansen,A.; Ehlert,S.; Mewes,J.
     r2SCAN-3c: A 'Swiss army knife' composite electronic-structure method
     J. Chem. Phys., 2021 154 064103
     doi.org/10.1063/5.0040021

List of papers to cite with high priority. The work reported in these papers was absolutely
necessary for this run to complete.
Our perspective: the developers of density functionals and basis sets usually get cited in chemistry papers
Good! But without the algorithms to do something with them, the functionals or basis sets would not do anything.
Hence, in our opinion, the algorithm design and method developments papers are equally worthy of getting cited

  1. Neese,F.
     An improvement of the resolution of the identity approximation for the formation of the Coulomb matrix
     J. Comp. Chem., 2003 24(14)1740-1747
     doi.org/10.1002/jcc.10318
  2. Neese,F.
     The SHARK Integral Generation and Digestion System
     J. Comp. Chem., 2022  1-16
     doi.org/10.1002/jcc.26942
  3. Lehtola,S.; Steigemann,C.; Oliveira,M.; Marques,M.
     Recent developments in Libxc - A comprehensive library of functionals for density functional theory
     Software X, 2018 7 
     doi.org/10.1016/j.softx.2017.11.002
  4. Caldeweyher,E.; Bannwarth,C.; Grimme,S.
     Extension of the D3 dispersion coefficient model
     J. Chem. Phys., 2017 147 034112
     doi.org/10.1063/1.4993215
  5. Caldeweyher,E.; Ehlert,S.; Hansen,A.; Neugebauer,H.; Spicher,S.; Bannwarth,C.; Grimme,S.
     A generally applicable atomic-charge dependent London dispersion correction
     J. Chem. Phys., 2019 150 154122
     doi.org/10.1063/1.5090222
  6. Caldeweyher,E.; Mewes,J.; Ehlert,S.; Grimme,S.
     Extension and evaluation of the D4 London-dispersion model for periodic systems
     Phys. Chem. Chem. Phys., 2020 22(16)8499-8512
     doi.org/10.1039/D0CP00502A
  7. Wittmann,L.; Gordiy,I.; Friede,M.; Helmich-Paris,B.; Grimme,S.; Hansen,A.; Bursch,M.
     Extension of the D3 and D4 London Dispersion Corrections to the full Actinides Series
     Phys. Chem. Chem. Phys., 2024 26(32)21379-21394
     doi.org/https://doi.org/10.1039/D4CP01514B 

List of suggested additional citations. These are papers that are important in the 'surrounding' of 
of this run, or papers that preceded the highly important papers. If you like your results we are grateful for a citation.

  1. Neese,F.
     The ORCA program system
     WIRES Comput. Molec. Sci., 2012 2(1)73-78
     doi.org/10.1002/wcms.81
  2. Neese,F.
     Software update: the ORCA program system, version 4.0
     WIRES Comput. Molec. Sci., 2018 8(1)1-6
     doi.org/10.1002/wcms.1327
  3. Neese,F.; Wennmohs,F.; Becker,U.; Riplinger,C.
     The ORCA quantum chemistry program package
     J. Chem. Phys., 2020 152 Art. No. L224108
     doi.org/10.1063/5.0004608

List of optional additional citations

  1. Neese,F.
     Approximate second-order SCF convergence for spin unrestricted wavefunctions
     Chem. Phys. Lett., 2000 325(1-3)93-98
     doi.org/10.1016/s0009-2614(00)00662-x

Timings for individual modules:

Sum of individual times          ...       17.617 sec (=   0.294 min)
Startup calculation              ...        0.523 sec (=   0.009 min)   3.0 %
SCF iterations                   ...       15.589 sec (=   0.260 min)  88.5 %
Property calculations            ...        1.505 sec (=   0.025 min)   8.5 %
                             ****ORCA TERMINATED NORMALLY****
TOTAL RUN TIME: 0 days 0 hours 0 minutes 21 seconds 304 msec
