
                                 *****************
                                 * O   R   C   A *
                                 *****************

                                            #,                                       
                                            ###                                      
                                            ####                                     
                                            #####                                    
                                            ######                                   
                                           ########,                                 
                                     ,,################,,,,,                         
                               ,,#################################,,                 
                          ,,##########################################,,             
                       ,#########################################, ''#####,          
                    ,#############################################,,   '####,        
                  ,##################################################,,,,####,       
                ,###########''''           ''''###############################       
              ,#####''   ,,,,##########,,,,          '''####'''          '####       
            ,##' ,,,,###########################,,,                        '##       
           ' ,,###''''                  '''############,,,                           
         ,,##''                                '''############,,,,        ,,,,,,###''
      ,#''                                            '''#######################'''  
     '                                                          ''''####''''         
             ,#######,   #######,   ,#######,      ##                                
            ,#'     '#,  ##    ##  ,#'     '#,    #''#        ,####,   ,####,        
            ##       ##  ##   ,#'  ##            #'  '#       #'       #'  '#        
            ##       ##  #######   ##           ,######,      #####,   #    #        
            '#,     ,#'  ##    ##  '#,     ,#' ,#      #,     #,   #   #,  ,#        
             '#######'   ##     ##  '#######'  #'      '#     '####' # '####'        



                #########################################################
                #                        -***-                          #
                #          Department of theory and spectroscopy        #
                #                                                       #
                #                      Frank Neese                      #
                #                                                       #
                #     Directorship, Architecture, Infrastructure        #
                #                    SHARK, DRIVERS                     #
                #        Core code/Algorithms in most modules           #
                #                                                       #
                #        Max Planck Institute fuer Kohlenforschung      #
                #                Kaiser Wilhelm Platz 1                 #
                #                 D-45470 Muelheim/Ruhr                 #
                #                      Germany                          #
                #                                                       #
                #                  All rights reserved                  #
                #                        -***-                          #
                #########################################################


                         Program Version 6.0.1  -  RELEASE   -


 With contributions from (in alphabetic order):
[Max-Planck-Institut fuer Kohlenforschung]                               
  Daniel Aravena         : Magnetic Suceptibility                        
  Michael Atanasov       : Ab Initio Ligand Field Theory (pilot matlab implementation)
  Alexander A. Auer      : GIAO ZORA, VPT2 properties, NMR spectrum      
  Ute Becker             : All parallelization in ORCA, NUMFREQ, NUMCALC 
  Giovanni Bistoni       : ED, misc. LED, open-shell LED, HFLD           
  Martin Brehm           : Molecular dynamics                            
  Dmytro Bykov           : pre 5.0 version of the SCF Hessian            
  Marcos Casanova-Páez   : Triplet and SCS-CIS(D). UHF-(DLPNO)-IP/EA/STEOM-CCSD. UHF-CVS-IP/STEOM-CCSD   
  Vijay G. Chilkuri      : MRCI spin determinant printing, contributions to CSF-ICE 
  Pauline Colinet        : FMM embedding                                 
  Dipayan Datta          : RHF DLPNO-CCSD density                        
  Achintya Kumar Dutta   : EOM-CC, STEOM-CC                              
  Nicolas Foglia         : Exact transition moments, OPA infrastructure, MCD improvements    
  Dmitry Ganyushin       : Spin-Orbit,Spin-Spin,Magnetic field MRCI      
  Miquel Garcia-Rates    : C-PCM and meta-GGA Hessian, CCSD/C-PCM, Gaussian charge scheme 
  Tiago L. C. Gouveia    : GS-ROHF, GS-ROCIS                             
  Yang Guo               : DLPNO-NEVPT2, F12-NEVPT2, CIM, IAO-localization        
  Andreas Hansen         : Spin unrestricted coupled pair/coupled cluster methods 
  Ingolf Harden          : AUTO-CI MPn and infrastructure                
  Benjamin Helmich-Paris : MC-RPA, TRAH-(SCF,CASSCF), AVAS, COSX integrals, SCF dyn. polar. 
  Lee Huntington         : MR-EOM, pCC                                   
  Robert Izsak           : Overlap fitted RIJCOSX, COSX-SCS-MP3, EOM     
  Riya Kayal             : Wick's Theorem for AUTO-CI, AUTO-CI UHF-CCSDT 
  Emily Kempfer          : AUTO-CI, RHF CISDT and CCSDT                  
  Christian Kollmar      : KDIIS, OOCD, Brueckner-CCSD(T), CCSD density, CASPT2, CASPT2-K, improved NEVPT2 
  Axel Koslowski         : Symmetry handling                             
  Simone Kossmann        : meta-GGA functionals, TD-DFT gradient, OOMP2, (MP2 Hessian; deprecated post 5.0) 
  Lucas Lang             : DCDCAS                                        
  Marvin Lechner         : AUTO-CI (C++ implementation), FIC-MRCC        
  Spencer Leger          : CASSCF response                               
  Dagmar Lenk            : GEPOL surface, SMD, ORCA-2-JSON               
  Dimitrios Liakos       : Extrapolation schemes; Compound Job, initial MDCI parallelization 
  Dimitrios Manganas     : Further ROCIS development; embedding schemes. LFT, Crystal Embedding 
  Dimitrios Pantazis     : SARC Basis sets                               
  Anastasios Papadopoulos: AUTO-CI, single reference methods and gradients 
  Taras Petrenko         : pre 6.0 DFT Hessian and TD-DFT gradient, (ASA, deprecated), ECA, 1-Electron XAS/XES, NRVS 
  Peter Pinski           : DLPNO-MP2, DLPNO-MP2 Gradient                 
  Christoph Reimann      : Effective Core Potentials                     
  Marius Retegan         : Local ZFS, SOC                                
  Christoph Riplinger    : Optimizer, TS searches, QM/MM, DLPNO-CCSD(T), (RO)-DLPNO pert. Triples 
  Michael Roemelt        : Original ROCIS implementation                 
  Masaaki Saitow         : Open-shell DLPNO-CCSD energy and density      
  Barbara Sandhoefer     : DKH picture change effects                    
  Kantharuban Sivalingam : CASSCF convergence/infrastructure, NEVPT2 and variants, FIC-MRCI 
  Bernardo de Souza      : ESD, SOC TD-DFT                               
  Georgi L. Stoychev     : AutoAux, RI-MP2 NMR, DLPNO-MP2 response, X2C  
  Van Anh Tran           : RI-MP2 g-tensors                              
  Willem Van den Heuvel  : Paramagnetic NMR                              
  Zikuan Wang            : NOTCH, Electric field optimization            
  Frank Wennmohs         : Technical directorship and infrastructure     
  Hang Xu                : AUTO-CI-Response properties                   
                                                                         
[FACCTs GmbH]                                                            
  Markus Bursch, Miquel Garcia-Rates, Christoph Riplinger, Bernardo de Souza, Georgi L. Stoychev 
                                                                 
  APM, Basis sets (HGBS, AHGBS, def-TZVP (Ac-Lr), def2-XVPD (La-Lu)), CI-OPT, improved COSX, DLPNO-Multilevel,           
  DOCKER, DRACO, updates on ESD, GOAT, IRC, LR-CPCM, MBIS, meta-GGA TD-DFT gradient, ML-optimized integration grids, 
  MM, NACMEs, nearIR, NEB, NEB-TS, NL-DFT gradient (VV10), 2- and 3-layer-ONIOM, interface openCOSMO-RS, QMMM,   
  Crystal-QMMM, SF, symmetry and pop. for TD-DFT, r2SCAN hybrids, SOLVATOR                                   
                                                                         
[Other institutions]                                                     
  V. Asgeirsson          : NEB                                           
  Christoph Bannwarth    : sTDA-DFT, sTD-DFT, PBEh-3c, B97-3c, D3        
  Sebastian Ehlert       : rSCAN, r2SCAN, r2SCAN-3c, D4, dhf basis sets  
  Marvin Friede          : D4 for Fr, Ra, Ac-Lr                          
  Lars Goerigk           : TD-DFT with DH, B97 family of functionals     
  Stefan Grimme          : VdW corrections, initial TS optimization, DFT functionals, gCP, sTDA/sTD-DF 
  Waldemar Hujo          : DFT-NL                                        
  H. Jonsson             : NEB                                           
  Holger Kruse           : gCP                                           
  Marcel Mueller         : wB97X-3c, vDZP basis set                      
  Hagen Neugebauer       : wr2SCAN                                       
  Tobias Risthaus        : range-separated hybrid DFT                    
  Lukas Wittmann         : regularized MP2, r2SCAN double-hybrids, wr2SCAN        
                                                                         
We gratefully acknowledge several colleagues who have allowed us to      
interface, adapt or use parts of their codes:                            
  Ed Valeev, F. Pavosevic, A. Kumar             : LibInt (2-el integral package), F12 methods 
  Garnet Chan, S. Sharma, J. Yang, R. Olivares  : DMRG                   
  Ulf Ekstrom                                   : XCFun DFT Library      
  Mihaly Kallay                                 : mrcc  (arbitrary order and MRCC methods)
  Frank Weinhold                                : gennbo (NPA and NBO analysis)           
  Simon Mueller                                 : openCOSMO-RS                            
  Christopher J. Cramer and Donald G. Truhlar   : smd solvation model                     
  S Lehtola, MJT Oliveira, MAL Marques          : LibXC Library                           
  Liviu Ungur et al                             : ANISO software                          


 Your calculation uses the libint2 library for the computation of 2-el integrals
 For citations please refer to: http://libint.valeyev.net

 Your ORCA version has been built with support for libXC version: 6.2.2
 For citations please refer to: https://libxc.gitlab.io

 This ORCA versions uses:
   CBLAS   interface :  Fast vector & matrix operations
   LAPACKE interface :  Fast linear algebra routines
   SCALAPACK package :  Parallel linear algebra routines
   Shared memory     :  Shared parallel matrices
   BLAS/LAPACK       :  OpenBLAS 0.3.27  USE64BITINT DYNAMIC_ARCH NO_AFFINITY Zen SINGLE_THREADED
        Core in use  :  Zen
   Copyright (c) 2011-2014, The OpenBLAS Project


Your calculation utilizes the geometrical counterpoise correction gCP
Please cite in your paper:
H.Kruse, S. Grimme J.Chem.Phys., 136, (2012), 154101 
   

Your calculation utilizes the atom-pairwise dispersion correction
based on EEQ partial charges (D4)


================================================================================

----- Orbital basis set information -----
Your calculation utilizes the basis: def2-SV(P)
   F. Weigend and R. Ahlrichs, Phys. Chem. Chem. Phys. 7, 3297 (2005).

----- AuxJ basis set information -----
Your calculation utilizes the auxiliary basis: def2/J
   F. Weigend, Phys. Chem. Chem. Phys. 8, 1057 (2006).

================================================================================
                                        WARNINGS
                       Please study these warnings very carefully!
================================================================================


================================================================================
                                       INPUT FILE
================================================================================
NAME = sp.inp
|  1> ! pbe def2-sv(p) def2/J RI DEFGRID1 loosescf d4 GCP(DFT/SV(P)) printgap
|  2> %output
|  3>     printlevel normal
|  4> end
|  5> * xyz 0 1
|  6> C -2.644843749 -0.2119551075 -1.1401349164
|  7> C -1.7459114813 0.0042492038 0.0514063752
|  8> O -2.1571596437 -0.0022759577 1.1838786321
|  9> C -0.2799463778 0.2078429183 -0.2908835174
| 10> C 0.4087753487 -1.1643568479 -0.2554493843
| 11> C 1.845390312 -1.0526456277 -0.7776003378
| 12> C 2.4792630198 0.2926627635 -0.4024868169
| 13> C 1.8852131544 0.8101219521 0.9028538761
| 14> C 0.4038967251 1.1492725202 0.71182893
| 15> H -3.6157706375 -0.5810434049 -0.8206853601
| 16> H -2.7800600707 0.7419108047 -1.6480644737
| 17> H -2.1925572528 -0.9072803475 -1.8426105815
| 18> H -0.2040735844 0.6035623698 -1.3076151615
| 19> H 0.4026327496 -1.5220658314 0.7749304839
| 20> H -0.1465617579 -1.8872388677 -0.8566409659
| 21> H 2.4339574531 -1.8709889294 -0.3591851481
| 22> H 1.8534515803 -1.166192801 -1.8634932683
| 23> H 3.5604390311 0.1793235245 -0.3093118318
| 24> H 2.2941682144 1.0276735049 -1.1885481924
| 25> H 2.0040426111 0.0475801233 1.6740684515
| 26> H 2.4225878138 1.699396005 1.2358470768
| 27> H -0.1179441021 1.0753756791 1.6678994957
| 28> H 0.3019260447 2.1767413684 0.3563044408
| 29> *
| 30> 
| 31>                          ****END OF INPUT****
================================================================================

                       ****************************
                       * Single Point Calculation *
                       ****************************

---------------------------------
CARTESIAN COORDINATES (ANGSTROEM)
---------------------------------
  C     -2.644844   -0.211955   -1.140135
  C     -1.745911    0.004249    0.051406
  O     -2.157160   -0.002276    1.183879
  C     -0.279946    0.207843   -0.290884
  C      0.408775   -1.164357   -0.255449
  C      1.845390   -1.052646   -0.777600
  C      2.479263    0.292663   -0.402487
  C      1.885213    0.810122    0.902854
  C      0.403897    1.149273    0.711829
  H     -3.615771   -0.581043   -0.820685
  H     -2.780060    0.741911   -1.648064
  H     -2.192557   -0.907280   -1.842611
  H     -0.204074    0.603562   -1.307615
  H      0.402633   -1.522066    0.774930
  H     -0.146562   -1.887239   -0.856641
  H      2.433957   -1.870989   -0.359185
  H      1.853452   -1.166193   -1.863493
  H      3.560439    0.179324   -0.309312
  H      2.294168    1.027674   -1.188548
  H      2.004043    0.047580    1.674068
  H      2.422588    1.699396    1.235847
  H     -0.117944    1.075376    1.667899
  H      0.301926    2.176741    0.356304

----------------------------
CARTESIAN COORDINATES (A.U.)
----------------------------
  NO LB      ZA    FRAG     MASS         X           Y           Z
   0 C     6.0000    0    12.011   -4.998030   -0.400537   -2.154543
   1 C     6.0000    0    12.011   -3.299295    0.008030    0.097144
   2 O     8.0000    0    15.999   -4.076441   -0.004301    2.237206
   3 C     6.0000    0    12.011   -0.529022    0.392766   -0.549690
   4 C     6.0000    0    12.011    0.772473   -2.200316   -0.482729
   5 C     6.0000    0    12.011    3.487282   -1.989212   -1.469452
   6 C     6.0000    0    12.011    4.685128    0.553052   -0.760590
   7 C     6.0000    0    12.011    3.562537    1.530909    1.706147
   8 C     6.0000    0    12.011    0.763254    2.171810    1.345162
   9 H     1.0000    0     1.008   -6.832816   -1.098013   -1.550871
  10 H     1.0000    0     1.008   -5.253552    1.402008   -3.114391
  11 H     1.0000    0     1.008   -4.143333   -1.714511   -3.482029
  12 H     1.0000    0     1.008   -0.385643    1.140568   -2.471035
  13 H     1.0000    0     1.008    0.760866   -2.876288    1.464406
  14 H     1.0000    0     1.008   -0.276962   -3.566365   -1.618817
  15 H     1.0000    0     1.008    4.599513   -3.535657   -0.678762
  16 H     1.0000    0     1.008    3.502516   -2.203785   -3.521492
  17 H     1.0000    0     1.008    6.728255    0.338872   -0.584515
  18 H     1.0000    0     1.008    4.335350    1.942021   -2.246031
  19 H     1.0000    0     1.008    3.787092    0.089913    3.163531
  20 H     1.0000    0     1.008    4.578028    3.211393    2.335413
  21 H     1.0000    0     1.008   -0.222882    2.032166    3.151873
  22 H     1.0000    0     1.008    0.570558    4.113445    0.673318

--------------------------------
INTERNAL COORDINATES (ANGSTROEM)
--------------------------------
 C      0   0   0     0.000000000000     0.00000000     0.00000000
 C      1   0   0     1.508175777463     0.00000000     0.00000000
 O      2   1   0     1.204848970393   122.57302257     0.00000000
 C      2   1   3     1.519100541715   114.60659943   179.05503732
 C      4   2   1     1.535749130783   107.92818901   268.06117109
 C      5   4   2     1.532639412170   110.32689614   172.30716571
 C      6   5   4     1.533740340047   111.59243726    34.26634116
 C      7   6   5     1.524655232913   110.24666435    29.46823417
 C      8   7   6     1.531604388081   110.19451612   293.80835132
 H      1   2   3     1.086725914438   110.42455253   347.48806743
 H      1   2   3     1.089098740836   108.47609005   106.73235149
 H      1   2   3     1.086973929809   110.74925003   225.20142302
 H      4   2   1     1.093660734043   108.96051083    25.42927898
 H      5   4   2     1.090722751753   108.19796104   293.35969641
 H      5   4   2     1.091965674508   110.53175417    50.77782125
 H      6   5   4     1.091406574101   108.67651455   155.66291861
 H      6   5   4     1.091843121113   109.76549935   272.87013204
 H      7   6   5     1.091086123253   109.83437001   151.31296629
 H      7   6   5     1.091967656578   110.13890550   269.42765926
 H      8   7   6     1.091037305393   108.99834817    55.07968176
 H      8   7   6     1.091084019422   110.24376672   172.81900263
 H      9   8   7     1.091718607818   109.76062341   154.36717288
 H      9   8   7     1.092010950542   109.83213895   272.60567388

---------------------------
INTERNAL COORDINATES (A.U.)
---------------------------
 C      0   0   0     0.000000000000     0.00000000     0.00000000
 C      1   0   0     2.850039181218     0.00000000     0.00000000
 O      2   1   0     2.276834586781   122.57302257     0.00000000
 C      2   1   3     2.870683993733   114.60659943   179.05503732
 C      4   2   1     2.902145267588   107.92818901   268.06117109
 C      5   4   2     2.896268751055   110.32689614   172.30716571
 C      6   5   4     2.898349203237   111.59243726    34.26634116
 C      7   6   5     2.881180838856   110.24666435    29.46823417
 C      8   7   6     2.894312838985   110.19451612   293.80835132
 H      1   2   3     2.053614360922   110.42455253   347.48806743
 H      1   2   3     2.058098352978   108.47609005   106.73235149
 H      1   2   3     2.054083042050   110.74925003   225.20142302
 H      4   2   1     2.066719270765   108.96051083    25.42927898
 H      5   4   2     2.061167288851   108.19796104   293.35969641
 H      5   4   2     2.063516072463   110.53175417    50.77782125
 H      6   5   4     2.062459525813   108.67651455   155.66291861
 H      6   5   4     2.063284480109   109.76549935   272.87013204
 H      7   6   5     2.061853961471   109.83437001   151.31296629
 H      7   6   5     2.063519818032   110.13890550   269.42765926
 H      8   7   6     2.061761709084   108.99834817    55.07968176
 H      8   7   6     2.061849985806   110.24376672   172.81900263
 H      9   8   7     2.063049184081   109.76062341   154.36717288
 H      9   8   7     2.063601631767   109.83213895   272.60567388

---------------------
BASIS SET INFORMATION
---------------------
There are 3 groups of distinct atoms

 Group   1 Type C   : 7s4p1d contracted to 3s2p1d pattern {511/31/1}
 Group   2 Type O   : 7s4p1d contracted to 3s2p1d pattern {511/31/1}
 Group   3 Type H   : 4s contracted to 2s pattern {31}

Atom   0C    basis set group =>   1
Atom   1C    basis set group =>   1
Atom   2O    basis set group =>   2
Atom   3C    basis set group =>   1
Atom   4C    basis set group =>   1
Atom   5C    basis set group =>   1
Atom   6C    basis set group =>   1
Atom   7C    basis set group =>   1
Atom   8C    basis set group =>   1
Atom   9H    basis set group =>   3
Atom  10H    basis set group =>   3
Atom  11H    basis set group =>   3
Atom  12H    basis set group =>   3
Atom  13H    basis set group =>   3
Atom  14H    basis set group =>   3
Atom  15H    basis set group =>   3
Atom  16H    basis set group =>   3
Atom  17H    basis set group =>   3
Atom  18H    basis set group =>   3
Atom  19H    basis set group =>   3
Atom  20H    basis set group =>   3
Atom  21H    basis set group =>   3
Atom  22H    basis set group =>   3
---------------------------------
AUXILIARY/J BASIS SET INFORMATION
---------------------------------
There are 3 groups of distinct atoms

 Group   1 Type C   : 12s5p4d2f1g contracted to 6s4p3d1f1g pattern {711111/2111/211/2/1}
 Group   2 Type O   : 12s5p4d2f1g contracted to 6s4p3d1f1g pattern {711111/2111/211/2/1}
 Group   3 Type H   : 5s2p1d contracted to 3s1p1d pattern {311/2/1}

Atom   0C    basis set group =>   1
Atom   1C    basis set group =>   1
Atom   2O    basis set group =>   2
Atom   3C    basis set group =>   1
Atom   4C    basis set group =>   1
Atom   5C    basis set group =>   1
Atom   6C    basis set group =>   1
Atom   7C    basis set group =>   1
Atom   8C    basis set group =>   1
Atom   9H    basis set group =>   3
Atom  10H    basis set group =>   3
Atom  11H    basis set group =>   3
Atom  12H    basis set group =>   3
Atom  13H    basis set group =>   3
Atom  14H    basis set group =>   3
Atom  15H    basis set group =>   3
Atom  16H    basis set group =>   3
Atom  17H    basis set group =>   3
Atom  18H    basis set group =>   3
Atom  19H    basis set group =>   3
Atom  20H    basis set group =>   3
Atom  21H    basis set group =>   3
Atom  22H    basis set group =>   3
------------------------------------------------------------------------------
                             ORCA STARTUP CALCULATIONS
                           -- RI-GTO INTEGRALS CHOSEN --
------------------------------------------------------------------------------
------------------------------------------------------------------------------
                   ___                                                        
                  /   \      - P O W E R E D   B Y -                         
                 /     \                                                     
                 |  |  |   _    _      __       _____    __    __             
                 |  |  |  | |  | |    /  \     |  _  \  |  |  /  |          
                  \  \/   | |  | |   /    \    | | | |  |  | /  /          
                 / \  \   | |__| |  /  /\  \   | |_| |  |  |/  /          
                |  |  |   |  __  | /  /__\  \  |    /   |      \           
                |  |  |   | |  | | |   __   |  |    \   |  |\   \          
                \     /   | |  | | |  |  |  |  | |\  \  |  | \   \       
                 \___/    |_|  |_| |__|  |__|  |_| \__\ |__|  \__/        
                                                                              
                      - O R C A' S   B I G   F R I E N D -                    
                                      &                                       
                       - I N T E G R A L  F E E D E R -                       
                                                                              
 v1 FN, 2020, v2 2021, v3 2022-2024                                           
------------------------------------------------------------------------------


----------------------
SHARK INTEGRAL PACKAGE
----------------------

Number of atoms                             ...     23
Number of basis functions                   ...    154
Number of shells                            ...     82
Maximum angular momentum                    ...      2
Integral batch strategy                     ... SHARK/LIBINT Hybrid
RI-J (if used) integral strategy            ... SPLIT-RIJ (Revised 2003 algorithm where possible)
Printlevel                                  ...      1
Contraction scheme used                     ... SEGMENTED contraction
Prescreening option                         ... SCHWARTZ
   Thresh                                   ... 1.000e-09
   Tcut                                     ... 1.000e-10
   Tpresel                                  ... 1.000e-10 
Coulomb Range Separation                    ... NOT USED
Exchange Range Separation                   ... NOT USED
Multipole approximations                    ... NOT USED
Finite Nucleus Model                        ... NOT USED
CABS basis                                  ... NOT available
Auxiliary Coulomb fitting basis             ... AVAILABLE
   # of basis functions in Aux-J            ...    595
   # of shells in Aux-J                     ...    205
   Maximum angular momentum in Aux-J        ...      4
Auxiliary J/K fitting basis                 ... NOT available
Auxiliary Correlation fitting basis         ... NOT available
Auxiliary 'external' fitting basis          ... NOT available

Checking pre-screening integrals            ... done (  0.0 sec) Dimension = 82
Check shell pair data                       ... done (  0.0 sec)
Shell pair information
Shell pair cut-off parameter TPreSel        ...   1.0e-10
Total number of shell pairs                 ...      3403
Shell pairs after pre-screening             ...      3200
Total number of primitive shell pairs       ...     13689
Primitive shell pairs kept                  ...      9055
          la=0 lb=0:   1440 shell pairs
          la=1 lb=0:    952 shell pairs
          la=1 lb=1:    168 shell pairs
          la=2 lb=0:    446 shell pairs
          la=2 lb=1:    154 shell pairs
          la=2 lb=2:     40 shell pairs

Calculating one electron integrals          ... done (  0.0 sec)
Calculating RI/J V-Matrix + Cholesky decomp.... done (  0.0 sec)
Calculating Nuclear repulsion               ... done (  0.0 sec) ENN=    474.475586894803 Eh

Diagonalization of the overlap matrix:
Smallest eigenvalue                        ... 6.448e-04
Time for diagonalization                   ...    0.002 sec
Threshold for overlap eigenvalues          ... 1.000e-07
Number of eigenvalues below threshold      ... 0
Time for construction of square roots      ...    0.003 sec
Total time needed                          ...    0.006 sec

-------------------
DFT GRID GENERATION
-------------------

General Integration Accuracy     IntAcc      ... 4.159
Radial Grid Type                 RadialGrid  ... OptM3 with GC (2021)
Angular Grid (max. ang.)         AngularGrid ... 3 (Lebedev-194)
Angular grid pruning method      GridPruning ... 4 (adaptive)
Weight generation scheme         WeightScheme... mBecke (2022)
Basis function cutoff            BFCut       ... 1.0000e-10
Integration weight cutoff        WCut        ... 1.0000e-14
Partially contracted basis set               ... off
Rotationally invariant grid construction     ... off
Angular grids for H and He will be reduced by one unit

Total number of grid points                  ...    48517
Total number of batches                      ...      768
Average number of points per batch           ...       63
Average number of grid points per atom       ...     2109
Initializing property integral containers    ... done (  0.0 sec)

SHARK setup successfully completed in   0.5 seconds

Maximum memory used throughout the entire STARTUP-calculation: 25.0 MB
-------------------------------------------------------------------------------
                                 ORCA GUESS
                   Start orbitals & Density for SCF / CASSCF
-------------------------------------------------------------------------------

------------
SCF SETTINGS
------------
Hamiltonian:
 Density Functional     Method          .... DFT(GTOs)
 Exchange Functional    Exchange        .... PBE
   PBE kappa parameter   XKappa         ....  0.804000
   PBE mue parameter    XMuePBE         ....  0.219520
 Correlation Functional Correlation     .... PBE
   PBE beta parameter  CBetaPBE         ....  0.066725
 LDA part of GGA corr.  LDAOpt          .... PW91-LDA
 Gradients option       PostSCFGGA      .... off
   NL short-range parameter             ....  6.400000
 RI-approximation to the Coulomb term is turned on
   Number of AuxJ basis functions       .... 595


General Settings:
 Integral files         IntName         .... sp
 Hartree-Fock type      HFTyp           .... RHF
 Total Charge           Charge          ....    0
 Multiplicity           Mult            ....    1
 Number of Electrons    NEL             ....   70
 Basis Dimension        Dim             ....  154
 Nuclear Repulsion      ENuc            ....    474.4755868948 Eh

Convergence Acceleration:
 AO-DIIS                CNVDIIS         .... on
   Start iteration      DIISMaxIt       ....    12
   Startup error        DIISStart       ....  0.200000
   # of expansion vecs  DIISMaxEq       ....     5
   Bias factor          DIISBfac        ....   1.050
   Max. coefficient     DIISMaxC        ....  10.000
 MO-DIIS                CNVKDIIS        .... off
 Trust-Rad. Augm. Hess. CNVTRAH         .... auto
   Auto Start mean grad. ratio tolernc. ....  1.125000
   Auto Start start iteration           ....    50
   Auto Start num. interpolation iter.  ....    10
   Max. Number of Micro iterations      ....    24
   Max. Number of Macro iterations      .... Maxiter - #DIIS iter
   Number of Davidson start vectors     ....     2
   Converg. threshold    (grad. norm)   ....   1.000e-04
   Grad. Scal. Fac. for Micro threshold ....   0.100
   Minimum threshold for Micro iter.    ....   1.000e-02
   NR start threshold (gradient norm)   ....   1.000e-04
   Initial trust radius                 ....   0.400
   Minimum AH scaling param. (alpha)    ....   1.000
   Maximum AH scaling param. (alpha)    .... 1000.000
   Quad. conv. algorithm                .... NR
   White noise on init. David. guess    .... on
   Maximum white noise                  ....   0.010
   Pseudo random numbers                .... off
   Inactive MOs                         .... canonical
   Orbital update algorithm             .... Taylor
   Preconditioner                       .... Diag
   Full preconditioner red. dimension   ....   250
 SOSCF                  CNVSOSCF        .... on
   Start iteration      SOSCFMaxIt      ....   150
   Startup grad/error   SOSCFStart      ....  0.003300
   Hessian update       SOSCFHessUp     .... L-BFGS
 Level Shifting         CNVShift        .... on
   Level shift para.    LevelShift      ....    0.2500
   Turn off err/grad.   ShiftErr        ....    0.0010
 Zerner damping         CNVZerner       .... off
 Static damping         CNVDamp         .... on
   Fraction old density DampFac         ....    0.7000
   Max. Damping (<1)    DampMax         ....    0.9800
   Min. Damping (>=0)   DampMin         ....    0.0000
   Turn off err/grad.   DampErr         ....    0.1000

SCF Procedure:
 Maximum # iterations   MaxIter         ....   125
 SCF integral mode      SCFMode         .... Direct
   Integral package                     .... SHARK and LIBINT hybrid scheme
 Reset frequency        DirectResetFreq ....    20
 Integral Threshold     Thresh          ....  1.000e-09 Eh
 Primitive CutOff       TCut            ....  1.000e-10 Eh

Convergence Tolerance:
 Convergence Check Mode ConvCheckMode   .... Total+1el-Energy
 Convergence forced     ConvForced      .... 0
 Energy Change          TolE            ....  1.000e-05 Eh
 1-El. energy change                    ....  1.000e-02 Eh
 Orbital Gradient       TolG            ....  1.000e-04
 Orbital Rotation angle TolX            ....  1.000e-04
 DIIS Error             TolErr          ....  5.000e-04

------------------------------
INITIAL GUESS: MODEL POTENTIAL
------------------------------
Loading Hartree-Fock densities                     ... done
Calculating cut-offs                               ... done
Initializing the effective Hamiltonian             ... done
Setting up the integral package (SHARK)            ... done
Starting the Coulomb interaction                   ... done (   0.2 sec)
Making the grid                                    ... done (   0.3 sec)
Mapping shells                                     ... done
Starting the XC term evaluation                    ... done (   0.1 sec)
  promolecular density results
     # of electrons  =     69.996157193
     EX              =    -53.233192836
     EC              =     -2.318973709
     EX+EC           =    -55.552166545
Transforming the Hamiltonian                       ... done (   0.0 sec)
Diagonalizing the Hamiltonian                      ... done (   0.0 sec)
Back transforming the eigenvectors                 ... done (   0.0 sec)
Now organizing SCF variables                       ... done
                      ------------------
                      INITIAL GUESS DONE (   0.6 sec)
                      ------------------
             **** ENERGY FILE WAS UPDATED (sp.en.tmp) ****
Finished Guess after   0.7 sec
Maximum memory used throughout the entire GUESS-calculation: 19.2 MB

-------------------------------------------------------------------------------------------
                                      ORCA LEAN-SCF
                              memory conserving SCF solver
-------------------------------------------------------------------------------------------

----------------------------------------D-I-I-S--------------------------------------------
Iteration    Energy (Eh)           Delta-E    RMSDP     MaxDP     DIISErr   Damp  Time(sec)
-------------------------------------------------------------------------------------------
               ***  Starting incremental Fock matrix formation  ***
    1    -387.4209364445695769     0.00e+00  5.37e-03  1.48e-01  2.28e-01  0.700   0.6
    2    -387.5512069970307607    -1.30e-01  3.53e-03  8.08e-02  8.07e-02  0.700   0.6
                               ***Turning on AO-DIIS***
    3    -387.5922882924525652    -4.11e-02  1.37e-03  1.74e-02  2.97e-02  0.700   0.6
    4    -387.6181216036479213    -2.58e-02  2.09e-03  2.85e-02  1.82e-02  0.000   0.5
    5    -387.6784080983921399    -6.03e-02  6.80e-04  1.50e-02  1.14e-02  0.000   0.5
                              *** Initializing SOSCF ***
---------------------------------------S-O-S-C-F--------------------------------------
Iteration    Energy (Eh)           Delta-E    RMSDP     MaxDP     MaxGrad    Time(sec)
--------------------------------------------------------------------------------------
    6    -387.6792957578709888    -8.88e-04  2.34e-04  2.70e-03  2.72e-03     0.5
               *** Restarting incremental Fock matrix formation ***
    7    -387.6793876353560222    -9.19e-05  1.61e-04  3.80e-03  4.72e-04     0.6
    8    -387.6793856238434159     2.01e-06  7.73e-05  2.44e-03  1.00e-03     0.5
                 **** Energy Check signals convergence ****

               *****************************************************
               *                     SUCCESS                       *
               *           SCF CONVERGED AFTER   8 CYCLES          *
               *****************************************************

             **** ENERGY FILE WAS UPDATED (sp.en.tmp) ****

----------------
TOTAL SCF ENERGY
----------------

Total Energy       :       -387.67938562384342 Eh          -10549.29240 eV

Components:
Nuclear Repulsion  :        474.47558689480292 Eh           12911.13711 eV
Electronic Energy  :       -862.15497251864633 Eh          -23460.42951 eV
One Electron Energy:      -1464.90570492090046 Eh          -39862.11078 eV
Two Electron Energy:        602.75073240225413 Eh           16401.68127 eV

Virial components:
Potential Energy   :       -771.93766880126304 Eh          -21005.49187 eV
Kinetic Energy     :        384.25828317741963 Eh           10456.19947 eV
Virial Ratio       :          2.00890313259648

DFT components:
N(Alpha)           :       35.000511118940 electrons
N(Beta)            :       35.000511118940 electrons
N(Total)           :       70.001022237879 electrons
E(X)               :      -54.416707087001 Eh       
E(C)               :       -2.326898679644 Eh       
E(XC)              :      -56.743605766645 Eh       

---------------
SCF CONVERGENCE
---------------

  Last Energy change         ...   -2.0115e-06  Tolerance :   1.0000e-05
  Last MAX-Density change    ...    2.4421e-03  Tolerance :   1.0000e-03
  Last RMS-Density change    ...    7.7302e-05  Tolerance :   1.0000e-04
  Last DIIS Error            ...    2.7170e-03  Tolerance :   5.0000e-04
  Last Orbital Gradient      ...    1.0018e-03  Tolerance :   1.0000e-04
  Last Orbital Rotation      ...    1.2413e-03  Tolerance :   1.0000e-04


----------------
ORBITAL ENERGIES
----------------

  NO   OCC          E(Eh)            E(eV) 
   0   2.0000     -18.737089      -509.8621 
   1   2.0000      -9.970590      -271.3136 
   2   2.0000      -9.898720      -269.3579 
   3   2.0000      -9.894665      -269.2475 
   4   2.0000      -9.887977      -269.0655 
   5   2.0000      -9.886290      -269.0196 
   6   2.0000      -9.883899      -268.9546 
   7   2.0000      -9.881866      -268.8992 
   8   2.0000      -9.879986      -268.8481 
   9   2.0000      -0.939705       -25.5707 
  10   2.0000      -0.762111       -20.7381 
  11   2.0000      -0.692195       -18.8356 
  12   2.0000      -0.666686       -18.1414 
  13   2.0000      -0.654524       -17.8105 
  14   2.0000      -0.565066       -15.3762 
  15   2.0000      -0.548548       -14.9267 
  16   2.0000      -0.488682       -13.2977 
  17   2.0000      -0.461562       -12.5597 
  18   2.0000      -0.445883       -12.1331 
  19   2.0000      -0.426107       -11.5950 
  20   2.0000      -0.408683       -11.1208 
  21   2.0000      -0.391087       -10.6420 
  22   2.0000      -0.379453       -10.3254 
  23   2.0000      -0.378077       -10.2880 
  24   2.0000      -0.355850        -9.6832 
  25   2.0000      -0.340132        -9.2555 
  26   2.0000      -0.333107        -9.0643 
  27   2.0000      -0.330750        -9.0002 
  28   2.0000      -0.322306        -8.7704 
  29   2.0000      -0.312275        -8.4974 
  30   2.0000      -0.306885        -8.3508 
  31   2.0000      -0.270958        -7.3731 
  32   2.0000      -0.264712        -7.2032 
  33   2.0000      -0.264294        -7.1918 
  34   2.0000      -0.195104        -5.3090 
  35   0.0000      -0.045216        -1.2304 
  36   0.0000       0.020948         0.5700 
  37   0.0000       0.043893         1.1944 
  38   0.0000       0.058492         1.5916 
  39   0.0000       0.068275         1.8579 
  40   0.0000       0.082804         2.2532 
  41   0.0000       0.092248         2.5102 
  42   0.0000       0.100394         2.7319 
  43   0.0000       0.107135         2.9153 
  44   0.0000       0.111119         3.0237 
  45   0.0000       0.123574         3.3626 
*Only the first 10 virtual orbitals were printed.

                    ********************************
                    * MULLIKEN POPULATION ANALYSIS *
                    ********************************

-----------------------
MULLIKEN ATOMIC CHARGES
-----------------------
   0 C :   -0.252660
   1 C :    0.036101
   2 O :   -0.156720
   3 C :   -0.209376
   4 C :   -0.139977
   5 C :   -0.131394
   6 C :   -0.160788
   7 C :   -0.153571
   8 C :   -0.108705
   9 H :    0.116118
  10 H :    0.128012
  11 H :    0.118861
  12 H :    0.064489
  13 H :    0.089103
  14 H :    0.088217
  15 H :    0.085328
  16 H :    0.080857
  17 H :    0.087038
  18 H :    0.076991
  19 H :    0.078879
  20 H :    0.085673
  21 H :    0.098453
  22 H :    0.079071
Sum of atomic charges:    0.0000000

--------------------------------
MULLIKEN REDUCED ORBITAL CHARGES
--------------------------------
  0 C s       :     3.035432  s :     3.035432
      pz      :     1.062382  p :     3.191546
      px      :     1.063276
      py      :     1.065887
      dz2     :     0.003422  d :     0.025683
      dxz     :     0.005949
      dyz     :     0.006853
      dx2y2   :     0.005826
      dxy     :     0.003633

  1 C s       :     3.140266  s :     3.140266
      pz      :     0.952393  p :     2.730175
      px      :     0.991630
      py      :     0.786152
      dz2     :     0.027166  d :     0.093458
      dxz     :     0.034703
      dyz     :     0.018095
      dx2y2   :     0.006933
      dxy     :     0.006562

  2 O s       :     3.745928  s :     3.745928
      pz      :     1.376337  p :     4.392893
      px      :     1.702670
      py      :     1.313887
      dz2     :     0.006576  d :     0.017899
      dxz     :     0.005049
      dyz     :     0.004988
      dx2y2   :     0.000568
      dxy     :     0.000718

  3 C s       :     3.083932  s :     3.083932
      pz      :     1.035564  p :     3.085308
      px      :     1.013768
      py      :     1.035976
      dz2     :     0.010692  d :     0.040136
      dxz     :     0.004766
      dyz     :     0.008123
      dx2y2   :     0.010015
      dxy     :     0.006540

  4 C s       :     3.025735  s :     3.025735
      pz      :     1.049524  p :     3.077566
      px      :     1.015630
      py      :     1.012412
      dz2     :     0.008193  d :     0.036676
      dxz     :     0.005427
      dyz     :     0.007479
      dx2y2   :     0.006567
      dxy     :     0.009010

  5 C s       :     3.014788  s :     3.014788
      pz      :     1.041828  p :     3.080729
      px      :     1.001393
      py      :     1.037508
      dz2     :     0.010318  d :     0.035877
      dxz     :     0.004501
      dyz     :     0.004773
      dx2y2   :     0.006814
      dxy     :     0.009471

  6 C s       :     3.022185  s :     3.022185
      pz      :     1.033707  p :     3.102177
      px      :     1.041446
      py      :     1.027024
      dz2     :     0.007336  d :     0.036425
      dxz     :     0.003550
      dyz     :     0.011266
      dx2y2   :     0.009946
      dxy     :     0.004327

  7 C s       :     3.012864  s :     3.012864
      pz      :     1.054617  p :     3.104111
      px      :     1.029831
      py      :     1.019663
      dz2     :     0.006043  d :     0.036596
      dxz     :     0.006803
      dyz     :     0.009620
      dx2y2   :     0.006824
      dxy     :     0.007307

  8 C s       :     3.015971  s :     3.015971
      pz      :     1.035994  p :     3.057736
      px      :     0.994694
      py      :     1.027048
      dz2     :     0.006929  d :     0.034998
      dxz     :     0.008696
      dyz     :     0.004879
      dx2y2   :     0.009444
      dxy     :     0.005050

  9 H s       :     0.883882  s :     0.883882

 10 H s       :     0.871988  s :     0.871988

 11 H s       :     0.881139  s :     0.881139

 12 H s       :     0.935511  s :     0.935511

 13 H s       :     0.910897  s :     0.910897

 14 H s       :     0.911783  s :     0.911783

 15 H s       :     0.914672  s :     0.914672

 16 H s       :     0.919143  s :     0.919143

 17 H s       :     0.912962  s :     0.912962

 18 H s       :     0.923009  s :     0.923009

 19 H s       :     0.921121  s :     0.921121

 20 H s       :     0.914327  s :     0.914327

 21 H s       :     0.901547  s :     0.901547

 22 H s       :     0.920929  s :     0.920929


------------------------
MULLIKEN OVERLAP CHARGES
------------------------
B(  0-C ,  1-C ) :   0.7719 B(  0-C ,  2-O ) :  -0.1880 B(  0-C ,  3-C ) :  -0.5077 
B(  0-C ,  9-H ) :   0.6239 B(  0-C , 10-H ) :   0.6663 B(  0-C , 11-H ) :   0.6593 
B(  1-C ,  2-O ) :   1.5128 B(  1-C ,  3-C ) :   0.2667 B(  2-O ,  3-C ) :  -0.2703 
B(  2-O , 21-H ) :   0.0650 B(  3-C ,  4-C ) :   0.6987 B(  3-C ,  6-C ) :  -0.0593 
B(  3-C ,  7-C ) :  -0.0741 B(  3-C ,  8-C ) :   0.5667 B(  3-C , 12-H ) :   0.5947 
B(  3-C , 14-H ) :  -0.0740 B(  3-C , 21-H ) :  -0.0502 B(  3-C , 22-H ) :  -0.0509 
B(  4-C ,  5-C ) :   0.7713 B(  4-C ,  6-C ) :  -0.0979 B(  4-C , 12-H ) :  -0.0536 
B(  4-C , 13-H ) :   0.6417 B(  4-C , 14-H ) :   0.6951 B(  5-C ,  6-C ) :   0.7644 
B(  5-C ,  8-C ) :  -0.1434 B(  5-C , 15-H ) :   0.6653 B(  5-C , 16-H ) :   0.6710 
B(  6-C ,  7-C ) :   0.8491 B(  6-C , 17-H ) :   0.6708 B(  6-C , 18-H ) :   0.6767 
B(  7-C ,  8-C ) :   0.7910 B(  7-C , 19-H ) :   0.6661 B(  7-C , 20-H ) :   0.6741 
B(  8-C , 21-H ) :   0.6540 B(  8-C , 22-H ) :   0.6714 B( 13-H , 14-H ) :  -0.0627 
B( 15-H , 16-H ) :  -0.0606 B( 17-H , 18-H ) :  -0.0640 B( 19-H , 20-H ) :  -0.0637 



                     *******************************
                     * LOEWDIN POPULATION ANALYSIS *
                     *******************************

----------------------
LOEWDIN ATOMIC CHARGES
----------------------
   0 C :   -0.362468
   1 C :    0.050222
   2 O :   -0.119332
   3 C :   -0.170915
   4 C :   -0.209063
   5 C :   -0.226994
   6 C :   -0.230991
   7 C :   -0.228137
   8 C :   -0.219435
   9 H :    0.132710
  10 H :    0.145453
  11 H :    0.134574
  12 H :    0.118658
  13 H :    0.123717
  14 H :    0.117003
  15 H :    0.119628
  16 H :    0.116232
  17 H :    0.118434
  18 H :    0.113599
  19 H :    0.115978
  20 H :    0.119149
  21 H :    0.124841
  22 H :    0.117136

-------------------------------
LOEWDIN REDUCED ORBITAL CHARGES
-------------------------------
  0 C s       :     2.957581  s :     2.957581
      pz      :     1.106979  p :     3.338293
      px      :     1.112634
      py      :     1.118680
      dz2     :     0.008822  d :     0.066595
      dxz     :     0.016938
      dyz     :     0.017300
      dx2y2   :     0.014500
      dxy     :     0.009035

  1 C s       :     2.884163  s :     2.884163
      pz      :     1.036195  p :     2.845828
      px      :     1.036849
      py      :     0.772784
      dz2     :     0.069822  d :     0.219787
      dxz     :     0.086351
      dyz     :     0.033371
      dx2y2   :     0.017658
      dxy     :     0.012584

  2 O s       :     3.543418  s :     3.543418
      pz      :     1.506095  p :     4.544253
      px      :     1.722147
      py      :     1.316011
      dz2     :     0.013778  d :     0.031661
      dxz     :     0.009860
      dyz     :     0.006196
      dx2y2   :     0.000962
      dxy     :     0.000865

  3 C s       :     2.888449  s :     2.888449
      pz      :     1.073121  p :     3.182442
      px      :     1.048126
      py      :     1.061194
      dz2     :     0.025899  d :     0.100024
      dxz     :     0.011684
      dyz     :     0.019663
      dx2y2   :     0.025592
      dxy     :     0.017187

  4 C s       :     2.907193  s :     2.907193
      pz      :     1.109222  p :     3.213546
      px      :     1.053900
      py      :     1.050424
      dz2     :     0.019546  d :     0.088323
      dxz     :     0.012376
      dyz     :     0.016588
      dx2y2   :     0.017849
      dxy     :     0.021964

  5 C s       :     2.907806  s :     2.907806
      pz      :     1.097071  p :     3.231926
      px      :     1.057297
      py      :     1.077557
      dz2     :     0.025046  d :     0.087261
      dxz     :     0.010417
      dyz     :     0.010647
      dx2y2   :     0.018354
      dxy     :     0.022796

  6 C s       :     2.906261  s :     2.906261
      pz      :     1.081677  p :     3.236720
      px      :     1.086459
      py      :     1.068584
      dz2     :     0.017994  d :     0.088010
      dxz     :     0.008844
      dyz     :     0.026534
      dx2y2   :     0.023769
      dxy     :     0.010869

  7 C s       :     2.904517  s :     2.904517
      pz      :     1.077244  p :     3.235069
      px      :     1.064022
      py      :     1.093803
      dz2     :     0.015523  d :     0.088550
      dxz     :     0.015836
      dyz     :     0.023833
      dx2y2   :     0.016833
      dxy     :     0.016525

  8 C s       :     2.906550  s :     2.906550
      pz      :     1.099234  p :     3.226493
      px      :     1.053906
      py      :     1.073352
      dz2     :     0.016490  d :     0.086392
      dxz     :     0.021081
      dyz     :     0.012741
      dx2y2   :     0.024305
      dxy     :     0.011775

  9 H s       :     0.867290  s :     0.867290

 10 H s       :     0.854547  s :     0.854547

 11 H s       :     0.865426  s :     0.865426

 12 H s       :     0.881342  s :     0.881342

 13 H s       :     0.876283  s :     0.876283

 14 H s       :     0.882997  s :     0.882997

 15 H s       :     0.880372  s :     0.880372

 16 H s       :     0.883768  s :     0.883768

 17 H s       :     0.881566  s :     0.881566

 18 H s       :     0.886401  s :     0.886401

 19 H s       :     0.884022  s :     0.884022

 20 H s       :     0.880851  s :     0.880851

 21 H s       :     0.875159  s :     0.875159

 22 H s       :     0.882864  s :     0.882864


---------------------------------
LOEWDIN BOND ORDERS (THRESH 0.050000)
---------------------------------
B(  0-C ,  1-C ) :   1.1054 B(  0-C ,  2-O ) :   0.1070 B(  0-C ,  3-C ) :   0.0727 
B(  0-C ,  9-H ) :   0.9288 B(  0-C , 10-H ) :   0.9110 B(  0-C , 11-H ) :   0.9191 
B(  1-C ,  2-O ) :   2.2768 B(  1-C ,  3-C ) :   1.0162 B(  1-C ,  4-C ) :   0.0730 
B(  1-C ,  8-C ) :   0.0592 B(  2-O ,  3-C ) :   0.1063 B(  3-C ,  4-C ) :   1.0301 
B(  3-C ,  5-C ) :   0.0510 B(  3-C ,  8-C ) :   1.0423 B(  3-C , 12-H ) :   0.8643 
B(  4-C ,  5-C ) :   1.0828 B(  4-C , 13-H ) :   0.8994 B(  4-C , 14-H ) :   0.9022 
B(  5-C ,  6-C ) :   1.0863 B(  5-C ,  7-C ) :   0.0508 B(  5-C , 15-H ) :   0.9060 
B(  5-C , 16-H ) :   0.9095 B(  6-C ,  7-C ) :   1.0957 B(  6-C ,  8-C ) :   0.0522 
B(  6-C , 17-H ) :   0.9072 B(  6-C , 18-H ) :   0.9055 B(  7-C ,  8-C ) :   1.0855 
B(  7-C , 19-H ) :   0.9043 B(  7-C , 20-H ) :   0.9051 B(  8-C , 21-H ) :   0.8909 
B(  8-C , 22-H ) :   0.9064 

------------------------------------------
LOEWDIN REDUCED ORBITAL POPULATIONS PER MO
-------------------------------------------
THRESHOLD FOR PRINTING IS 0.1%%
                      0         1         2         3         4         5   
                 -18.73709  -9.97059  -9.89872  -9.89466  -9.88798  -9.88629
                   2.00000   2.00000   2.00000   2.00000   2.00000   2.00000
                  --------  --------  --------  --------  --------  --------
 0 C  s               0.0       0.0       0.0       0.0       0.0      99.7
 1 C  s               0.0      99.4       0.0       0.0       0.0       0.0
 1 C  px              0.0       0.0       0.1       0.0       0.0       0.0
 2 O  s              99.9       0.0       0.0       0.0       0.0       0.0
 2 O  pz              0.0       0.3       0.0       0.0       0.0       0.0
 3 C  s               0.0       0.0      99.6       0.0       0.0       0.0
 4 C  s               0.0       0.0       0.0      99.6       0.0       0.0
 5 C  s               0.0       0.0       0.0       0.0      99.6       0.0

                      6         7         8         9        10        11   
                  -9.88390  -9.88187  -9.87999  -0.93970  -0.76211  -0.69220
                   2.00000   2.00000   2.00000   2.00000   2.00000   2.00000
                  --------  --------  --------  --------  --------  --------
 0 C  s               0.0       0.0       0.0       1.1       0.4      13.4
 0 C  pz              0.0       0.0       0.0       1.4       0.0       0.1
 0 C  px              0.0       0.0       0.0       0.3       0.2       0.8
 1 C  s               0.0       0.0       0.0      19.6       0.9       6.2
 1 C  pz              0.0       0.0       0.0      11.7       1.4       9.9
 1 C  px              0.0       0.0       0.0       1.5       2.6       1.0
 1 C  dz2             0.0       0.0       0.0       1.2       0.1       0.1
 1 C  dxz             0.0       0.0       0.0       0.5       0.0       0.1
 2 O  s               0.0       0.0       0.0      50.7       1.1       3.2
 2 O  pz              0.0       0.0       0.0       6.0       0.1       0.4
 2 O  px              0.0       0.0       0.0       0.8       0.0       0.0
 2 O  dz2             0.0       0.0       0.0       0.2       0.0       0.0
 3 C  s               0.0       0.0       0.0       1.2      13.8       9.6
 3 C  pz              0.0       0.0       0.0       0.4       0.2       0.1
 3 C  px              0.0       0.0       0.0       1.4       1.1       2.0
 3 C  py              0.0       0.0       0.0       0.0       0.2       0.3
 4 C  s               0.0       0.0       0.0       0.1      12.6       1.1
 4 C  px              0.0       0.0       0.0       0.1       0.2       3.0
 4 C  py              0.0       0.0       0.0       0.1       1.8       0.5
 5 C  s               0.0       0.0       0.0       0.0       9.6       3.6
 5 C  pz              0.0       0.0       0.0       0.0       0.5       0.1
 5 C  px              0.0       0.0       0.0       0.0       0.7       1.1
 5 C  py              0.1       0.0       0.0       0.0       0.8       0.9
 6 C  s              99.6       0.0       0.0       0.0       8.8      10.8
 6 C  pz              0.0       0.1       0.0       0.0       0.3       0.3
 6 C  px              0.0       0.0       0.0       0.0       1.3       0.1
 6 C  py              0.0       0.0       0.0       0.0       0.3       0.0
 7 C  s               0.0      99.6       0.0       0.0       8.7       6.3
 7 C  pz              0.1       0.0       0.0       0.0       1.1       0.7
 7 C  px              0.0       0.0       0.1       0.0       0.6       0.5
 7 C  py              0.0       0.0       0.0       0.0       0.2       0.2
 8 C  s               0.0       0.0      99.6       0.1       9.4       0.0
 8 C  pz              0.0       0.0       0.0       0.0       0.6       0.6
 8 C  px              0.0       0.1       0.0       0.1       0.2       2.7
 8 C  py              0.0       0.0       0.0       0.1       1.2       0.1
 9 H  s               0.0       0.0       0.0       0.2       0.0       2.2
10 H  s               0.0       0.0       0.0       0.1       0.1       3.0
11 H  s               0.0       0.0       0.0       0.1       0.1       3.3
12 H  s               0.0       0.0       0.0       0.1       2.6       2.3
13 H  s               0.0       0.0       0.0       0.0       2.2       0.2
14 H  s               0.0       0.0       0.0       0.0       2.0       0.4
15 H  s               0.0       0.0       0.0       0.0       1.5       0.8
16 H  s               0.0       0.0       0.0       0.0       1.5       0.6
17 H  s               0.1       0.0       0.0       0.0       1.3       2.2
18 H  s               0.1       0.0       0.0       0.0       1.6       2.0
19 H  s               0.0       0.1       0.0       0.0       1.6       1.3
20 H  s               0.0       0.1       0.0       0.0       1.3       1.2
21 H  s               0.0       0.0       0.1       0.2       1.4       0.0
22 H  s               0.0       0.0       0.1       0.0       1.5       0.0

                     12        13        14        15        16        17   
                  -0.66669  -0.65452  -0.56507  -0.54855  -0.48868  -0.46156
                   2.00000   2.00000   2.00000   2.00000   2.00000   2.00000
                  --------  --------  --------  --------  --------  --------
 0 C  s               0.0      25.2       2.7       0.8       1.7       0.0
 0 C  pz              0.0       0.0       0.3       0.1       2.5       0.4
 0 C  px              0.0       0.0       1.3       0.4       4.4       0.2
 0 C  py              0.0       0.0       0.1       0.0       0.3       0.1
 0 C  dxz             0.0       0.0       0.0       0.0       0.2       0.0
 1 C  s               0.0       1.5       1.9       0.3       6.2       1.6
 1 C  pz              0.0       5.7       0.3       0.1       1.8       0.0
 1 C  px              0.3       6.6       5.4       0.7       2.1       1.2
 1 C  py              0.3       0.2       0.6       0.6       0.2       0.2
 1 C  dxz             0.0       0.2       0.0       0.0       0.0       0.1
 2 O  s               0.1       0.4       0.4       0.0       2.1       2.4
 2 O  pz              0.0       0.3       0.1       0.0       1.9       1.1
 2 O  px              0.0       0.3       0.5       0.0       0.8       1.8
 2 O  py              0.0       0.0       0.0       0.1       0.0       0.0
 3 C  s               0.8       4.9       6.1       0.2       0.0       2.5
 3 C  pz              1.4       0.4       0.7       1.0       0.0      13.5
 3 C  px              0.0       1.0       3.2       0.6      11.1       4.7
 3 C  py              5.5       0.2       1.5       8.0       0.0       0.9
 3 C  dx2y2           0.0       0.0       0.1       0.0       0.2       0.0
 3 C  dxy             0.1       0.0       0.0       0.0       0.0       0.0
 4 C  s              10.4       4.7       7.6       3.6       1.8       1.0
 4 C  pz              0.6       0.0       0.2       0.6       0.4       5.7
 4 C  px              1.8       0.6       0.6       5.5       0.7       1.5
 4 C  py              0.6       0.3       2.9       0.0       0.4       6.6
 4 C  dx2y2           0.1       0.0       0.0       0.1       0.1       0.0
 5 C  s              15.8       0.5       0.0       9.8       4.3       0.3
 5 C  pz              0.0       0.0       0.4       1.3       0.3       1.0
 5 C  px              0.7       2.2       4.6       1.1       1.2       1.8
 5 C  py              0.2       0.9       3.6       0.8       4.9       0.2
 5 C  dx2y2           0.0       0.1       0.1       0.0       0.0       0.0
 6 C  s               0.2       8.1       9.4       1.1       3.3       2.4
 6 C  pz              2.3       0.1       2.2       3.4       2.3       0.5
 6 C  px              0.0       0.0       0.9       0.3       0.0       5.7
 6 C  py              4.0       0.0       0.0       4.2       2.5       0.0
 7 C  s              10.4       3.2       4.1       5.4       4.4       1.5
 7 C  pz              0.1       0.5       3.2       0.0       6.8       0.1
 7 C  px              1.9       1.5       1.7       5.7       0.7       0.0
 7 C  py              0.7       0.1       0.2       0.3       0.0       0.0
 8 C  s              16.8       1.3       1.5      11.0       0.7       2.0
 8 C  pz              0.0       0.3       2.5       0.0       1.6       4.6
 8 C  px              0.6       1.6       3.1       2.5       0.3       3.1
 8 C  py              0.0       0.2       0.1       1.3       0.0       0.6
 9 H  s               0.0       5.8       1.6       0.4       2.6       0.1
10 H  s               0.0       6.3       0.8       0.4       1.1       0.2
11 H  s               0.0       5.8       0.9       0.1       1.2       0.0
12 H  s               0.1       0.6       3.1       0.0       0.0      10.1
13 H  s               1.9       1.1       3.6       1.7       0.8       5.2
14 H  s               2.7       0.9       2.9       1.9       0.3       1.4
15 H  s               3.5       0.1       0.1       4.0       4.9       0.2
16 H  s               3.6       0.1       0.0       4.7       2.5       0.7
17 H  s               0.1       2.0       3.8       0.6       0.9       4.4
18 H  s               0.0       1.7       4.0       0.2       4.4       0.8
19 H  s               1.9       0.6       2.0       2.3       4.6       0.6
20 H  s               2.5       0.8       1.5       2.4       3.2       0.6
21 H  s               3.5       0.4       0.6       4.1       0.0       4.7
22 H  s               3.8       0.2       0.3       5.1       0.5       0.9

                     18        19        20        21        22        23   
                  -0.44588  -0.42611  -0.40868  -0.39109  -0.37945  -0.37808
                   2.00000   2.00000   2.00000   2.00000   2.00000   2.00000
                  --------  --------  --------  --------  --------  --------
 0 C  s               0.4       0.5       0.0       0.0       0.0       0.1
 0 C  pz              1.4      20.9       0.0       1.9       5.9       3.1
 0 C  px              1.5       0.3       0.2       0.9      24.0       4.0
 0 C  py              0.0       0.4      16.0      17.3       0.0       3.1
 0 C  dz2             0.0       0.1       0.0       0.0       0.0       0.0
 0 C  dxz             0.0       0.2       0.0       0.0       0.0       0.1
 0 C  dx2y2           0.0       0.1       0.1       0.1       0.1       0.0
 0 C  dxy             0.0       0.0       0.0       0.0       0.1       0.0
 1 C  s               0.3       3.9       0.1       0.2       0.3       0.3
 1 C  pz              0.7       1.6       0.2       0.7       1.9       6.6
 1 C  px              0.9       9.8       1.0       1.0       1.2       3.8
 1 C  py              0.2       0.2      12.1       7.9       0.0       0.1
 1 C  dz2             0.0       0.1       0.0       0.0       0.2       0.0
 2 O  s               0.0       5.1       0.2       0.7       1.9       3.6
 2 O  pz              0.3      14.6       0.0       0.8       4.9       7.6
 2 O  px              0.5       1.2       1.1       2.6       0.1       9.3
 2 O  py              0.0       0.1       5.3       5.1       0.0       0.1
 2 O  dz2             0.0       0.2       0.0       0.0       0.0       0.0
 2 O  dxz             0.0       0.0       0.0       0.0       0.0       0.2
 3 C  s               0.7       0.6       0.0       0.3       1.6       0.1
 3 C  pz              5.1       0.2       1.4       2.8       0.0       2.5
 3 C  px              0.5       1.5       0.0       0.5       1.9       0.2
 3 C  py              0.0       0.0       6.8       0.7       0.0       0.8
 3 C  dx2y2           0.0       0.0       0.0       0.1       0.2       0.0
 4 C  s               0.7       0.0       0.7       0.1       0.0       0.1
 4 C  pz              8.8       1.0       1.0       0.5       1.1       1.0
 4 C  px              1.6       1.8       1.9       0.0       2.0       1.2
 4 C  py              5.1       0.6       4.3       0.1       0.6       0.2
 5 C  s               0.0       0.0       0.2       0.0       0.1       0.2
 5 C  pz              6.8       1.2       7.4       6.8       3.1       0.2
 5 C  px              1.4       1.3       0.1       3.1       0.4       0.1
 5 C  py              0.5       1.7       2.8       2.1       0.4       3.2
 6 C  s               0.1       0.0       0.0       0.0       0.1       0.3
 6 C  pz              2.7       0.1       3.4       3.5       0.0       0.7
 6 C  px              0.3       5.0       1.8       3.0       9.2       1.9
 6 C  py              6.1       0.0       0.1       2.0       0.2       3.3
 7 C  s               0.0       0.2       0.0       0.2       0.0       0.2
 7 C  pz              0.3       2.6       0.5       0.1       4.8       4.7
 7 C  px              0.1       2.9       2.7       0.3       2.3       1.5
 7 C  py             13.1       0.4       0.0       0.1       0.0       5.3
 8 C  s               0.5       0.1       0.0       0.3       0.0       0.4
 8 C  pz              0.0       0.8       3.3       2.5       0.1       9.5
 8 C  px              0.9       1.5       1.1       0.0       2.0       0.2
 8 C  py             12.1       0.1       2.0       2.5       0.6       0.3
 9 H  s               0.6       0.0       0.4       0.4      13.0       1.9
10 H  s               0.7       2.3       5.0       9.7       0.1       0.0
11 H  s               0.1       6.4       3.8       2.0       5.6       1.3
12 H  s               0.7       0.7       2.0       2.1       0.5       0.4
13 H  s               0.5       0.2       2.1       0.1       0.4       0.1
14 H  s               7.1       1.0       0.2       0.0       0.2       0.7
15 H  s               0.5       0.7       1.2       3.9       0.0       1.5
16 H  s               2.0       0.8       3.4       2.7       1.3       0.0
17 H  s               0.1       1.7       1.1       1.9       4.1       1.8
18 H  s               3.2       0.1       0.4       2.5       0.3       0.1
19 H  s               2.5       0.6       0.0       0.0       1.2       2.9
20 H  s               2.8       1.7       0.1       0.1       1.0       2.4
21 H  s               0.0       0.8       0.6       0.5       0.2       5.9
22 H  s               5.1       0.0       1.4       2.6       0.2       0.2

                     24        25        26        27        28        29   
                  -0.35585  -0.34013  -0.33311  -0.33075  -0.32231  -0.31227
                   2.00000   2.00000   2.00000   2.00000   2.00000   2.00000
                  --------  --------  --------  --------  --------  --------
 0 C  pz              2.4       6.2       0.8       0.8       0.0       0.0
 0 C  px              0.4       1.2       1.7       4.3       4.7       1.9
 0 C  py              3.1       7.0       0.0       3.9       0.1       0.6
 0 C  dyz             0.1       0.1       0.0       0.2       0.0       0.0
 0 C  dx2y2           0.0       0.2       0.0       0.0       0.0       0.0
 0 C  dxy             0.0       0.1       0.0       0.0       0.0       0.0
 1 C  s               0.2       0.3       0.1       0.1       0.0       0.0
 1 C  pz              3.3       3.6       0.4       0.3       0.5       0.4
 1 C  px              0.2       0.8       1.6       2.4       1.4       0.2
 1 C  py              0.9       2.0       0.0       1.2       0.0       1.2
 1 C  dz2             0.1       0.2       0.0       0.0       0.0       0.0
 1 C  dyz             0.1       0.1       0.0       0.1       0.0       0.1
 1 C  dxy             0.0       0.1       0.0       0.0       0.0       0.0
 2 O  s               2.7       1.7       0.2       0.4       0.0       0.1
 2 O  pz             10.2      11.0       2.3       3.8       0.0       0.4
 2 O  px              2.8       1.1       0.5       0.3       1.2       0.5
 2 O  py              1.8       3.3       0.0       2.6       0.4       4.1
 3 C  s               0.7       0.0       0.0       0.0       0.2       0.0
 3 C  pz              0.8       1.7       0.1       0.7       5.6       5.9
 3 C  px              0.0       2.8       1.6       1.6       3.8       0.5
 3 C  py              1.9       4.9       3.8       1.6       1.3       1.2
 3 C  dz2             0.0       0.0       0.1       0.1       0.0       0.1
 3 C  dxz             0.1       0.0       0.1       0.0       0.1       0.0
 3 C  dyz             0.1       0.0       0.0       0.1       0.2       0.0
 3 C  dxy             0.0       0.0       0.2       0.1       0.0       0.0
 4 C  s               0.1       0.1       0.5       0.2       0.1       0.0
 4 C  pz             12.7       0.1       0.2       7.2       5.0       2.0
 4 C  px              0.5       2.1       4.6       6.6       1.5       0.0
 4 C  py              1.8       4.4       6.9       0.6       5.3       0.0
 4 C  dz2             0.0       0.0       0.1       0.1       0.1       0.1
 4 C  dyz             0.1       0.0       0.1       0.2       0.1       0.0
 4 C  dx2y2           0.0       0.0       0.2       0.0       0.0       0.0
 4 C  dxy             0.2       0.0       0.0       0.0       0.1       0.0
 5 C  s               0.1       0.0       0.7       0.0       0.0       0.0
 5 C  pz              0.6       0.5       4.5       0.0       0.0      11.8
 5 C  px              4.5       3.3       5.0       1.9       3.3       0.8
 5 C  py              1.9       1.0       7.8       0.1       5.3       2.6
 5 C  dz2             0.0       0.0       0.1       0.0       0.0       0.4
 5 C  dxz             0.0       0.0       0.0       0.2       0.0       0.0
 5 C  dyz             0.1       0.0       0.0       0.1       0.0       0.1
 5 C  dx2y2           0.0       0.0       0.0       0.0       0.2       0.0
 5 C  dxy             0.1       0.0       0.0       0.0       0.1       0.1
 6 C  s               0.4       0.0       0.1       0.2       0.0       0.1
 6 C  pz              3.5       0.1       0.3       7.7       6.1       1.6
 6 C  px              0.0       2.7       0.8       2.2       6.3       0.1
 6 C  py              1.1       6.1       2.3       1.4       2.5       0.8
 6 C  dz2             0.0       0.1       0.0       0.0       0.0       0.1
 6 C  dxz             0.0       0.0       0.0       0.1       0.0       0.0
 6 C  dyz             0.0       0.0       0.0       0.1       0.0       0.2
 6 C  dx2y2           0.1       0.0       0.0       0.0       0.2       0.0
 6 C  dxy             0.0       0.0       0.2       0.0       0.0       0.0
 7 C  s               0.0       0.1       0.2       0.3       0.0       0.0
 7 C  pz              0.0       0.9       0.2      10.0       4.2       0.2
 7 C  px              0.3       1.2       5.9       1.2       1.1       7.0
 7 C  py             10.5       1.8       3.9       1.4       2.3       2.5
 7 C  dz2             0.0       0.1       0.0       0.0       0.0       0.0
 7 C  dyz             0.0       0.0       0.2       0.0       0.1       0.0
 7 C  dx2y2           0.0       0.0       0.1       0.0       0.1       0.1
 7 C  dxy             0.1       0.0       0.0       0.1       0.0       0.0
 8 C  s               0.1       0.1       0.3       0.2       0.4       0.0
 8 C  pz              0.2       0.0       3.0       0.7       0.1      12.2
 8 C  px              2.7       3.5       2.8       1.7       0.6       4.2
 8 C  py              0.5       2.9      11.0       0.3       5.8       1.5
 8 C  dyz             0.0       0.0       0.0       0.0       0.1       0.0
 8 C  dx2y2           0.0       0.1       0.1       0.0       0.0       0.3
 9 H  s               0.2       5.1       1.7       1.4       2.6       1.5
10 H  s               0.5       6.7       0.1       1.7       0.0       0.4
11 H  s               3.9       0.0       0.8       4.7       0.5       0.0
12 H  s               0.2       0.3       0.6       2.2       4.1       2.6
13 H  s               3.7       0.0       0.7       4.8       5.8       1.6
14 H  s               5.0       0.3       3.6       5.5       0.3       0.1
15 H  s               2.9       0.2       2.4       0.4       0.3       6.6
16 H  s               0.8       0.5       2.4       0.0       0.0       8.1
17 H  s               0.2       1.9       0.2       0.4       4.2       0.0
18 H  s               1.1       1.9       1.0       3.4       1.6       2.2
19 H  s               1.9       0.3       0.9       1.3       5.2       2.0
20 H  s               3.6       0.2       4.5       3.2       0.7       0.1
21 H  s               0.9       0.4       1.9       0.5       0.6       3.3
22 H  s               0.4       1.7       3.3       0.4       2.5       4.7

                     30        31        32        33        34        35   
                  -0.30688  -0.27096  -0.26471  -0.26429  -0.19510  -0.04522
                   2.00000   2.00000   2.00000   2.00000   2.00000   0.00000
                  --------  --------  --------  --------  --------  --------
 0 C  s               0.0       0.0       0.0       0.0       1.6       0.0
 0 C  pz              0.0       0.1       0.0       0.1       6.7       0.0
 0 C  px              0.0       0.5       0.1       0.0       2.2       0.0
 0 C  py              3.5       0.2       0.1       0.0       0.1       0.1
 0 C  dxz             0.0       0.0       0.0       0.0       0.0       0.1
 0 C  dyz             0.3       0.0       0.0       0.0       0.0       1.2
 0 C  dxy             0.0       0.0       0.0       0.0       0.0       0.3
 1 C  s               0.0       0.6       0.1       0.0       0.0       0.0
 1 C  pz              0.1       0.1       0.1       0.0       0.2       0.2
 1 C  px              0.2       3.1       0.1       0.0       2.6       1.5
 1 C  py             10.3       0.3       0.0       0.1       0.1      46.8
 1 C  dz2             0.0       0.0       0.0       0.0       1.3       0.0
 1 C  dxz             0.0       0.0       0.0       0.1       2.8       0.0
 1 C  dyz             0.9       0.0       0.0       0.1       0.2       1.3
 1 C  dx2y2           0.0       0.0       0.0       0.0       0.4       0.0
 1 C  dxy             0.1       0.0       0.0       0.2       0.0       0.2
 2 O  s               0.0       0.1       0.1       0.0       0.0       0.0
 2 O  pz              0.0       1.7       0.2       0.3       7.1       0.1
 2 O  px              2.4       2.7       0.6       0.2      54.7       1.3
 2 O  py             35.3       0.2       0.1       4.1       2.9      29.6
 2 O  dyz             0.1       0.0       0.0       0.0       0.0       0.5
 3 C  s               0.0       0.1       0.2       0.0       1.0       0.0
 3 C  pz              0.8       0.1       6.6       1.1       0.5       0.0
 3 C  px              0.0       2.1       0.4       0.0       9.4       0.1
 3 C  py              1.6       0.0       0.3      11.5       0.0       0.3
 3 C  dz2             0.1       0.1       0.3       0.0       0.0       0.1
 3 C  dyz             0.0       0.0       0.3       0.0       0.0       0.0
 3 C  dx2y2           0.0       0.3       0.0       0.1       0.0       0.0
 3 C  dxy             0.0       0.0       0.0       0.1       0.0       1.5
 4 C  s               0.1       0.1       0.1       0.0       0.0       1.1
 4 C  pz              0.5       0.0       6.0       0.7       0.0       0.1
 4 C  px              5.9       7.6       0.0       0.9       0.5       0.8
 4 C  py              0.4       0.1       0.7       8.2       0.1       2.0
 4 C  dz2             0.0       0.0       0.3       0.0       0.0       0.1
 4 C  dyz             0.0       0.0       0.2       0.0       0.0       0.0
 4 C  dxy             0.0       0.0       0.0       0.4       0.0       0.0
 5 C  s               0.0       0.0       0.0       0.2       0.1       0.2
 5 C  pz              0.7       0.3       6.2       1.2       0.0       0.1
 5 C  px              5.0       8.2       0.0       0.0       0.8       0.6
 5 C  py              3.3       0.2       0.3       8.3       0.0       0.0
 5 C  dz2             0.0       0.0       0.4       0.1       0.0       0.0
 5 C  dyz             0.0       0.0       0.1       0.0       0.0       0.0
 5 C  dx2y2           0.0       0.3       0.0       0.0       0.0       0.0
 5 C  dxy             0.0       0.1       0.0       0.4       0.0       0.1
 6 C  s               0.0       0.1       0.1       0.0       0.1       0.0
 6 C  pz              0.1       0.2      11.1       1.4       0.0       0.0
 6 C  px              0.1      12.5       0.0       0.1       0.0       0.0
 6 C  py              6.5       0.0       0.1       9.9       0.0       0.1
 6 C  dz2             0.0       0.1       0.0       0.2       0.0       0.0
 6 C  dyz             0.2       0.0       0.4       0.1       0.0       0.0
 6 C  dx2y2           0.0       0.6       0.1       0.0       0.0       0.0
 7 C  s               0.1       0.0       0.2       0.0       0.0       0.0
 7 C  pz              0.2       0.4      11.0       0.9       0.0       0.0
 7 C  px              0.4      12.6       0.0       0.5       0.4       0.1
 7 C  py              1.7       0.3       0.3       9.2       0.0       0.0
 7 C  dz2             0.0       0.1       0.0       0.1       0.0       0.0
 7 C  dxz             0.0       0.0       0.2       0.1       0.0       0.0
 7 C  dyz             0.1       0.1       0.3       0.2       0.0       0.0
 7 C  dx2y2           0.0       0.1       0.1       0.0       0.0       0.0
 7 C  dxy             0.0       0.2       0.0       0.2       0.0       0.0
 8 C  s               0.0       0.1       0.0       0.2       0.1       0.3
 8 C  pz              1.5       1.1       8.2       0.7       0.7       0.5
 8 C  px              2.0      14.6       0.2       0.2       0.1       0.1
 8 C  py              0.3       0.4       0.1       9.5       0.0       0.2
 8 C  dz2             0.1       0.2       0.1       0.0       0.0       0.0
 8 C  dxz             0.0       0.1       0.3       0.2       0.0       0.0
 8 C  dyz             0.0       0.0       0.0       0.1       0.0       0.0
 8 C  dx2y2           0.0       0.0       0.1       0.3       0.0       0.0
 8 C  dxy             0.0       0.0       0.0       0.1       0.0       0.0
 9 H  s               0.1       0.8       0.1       0.0       0.4       0.2
10 H  s               2.7       0.2       0.0       0.0       0.2       3.9
11 H  s               1.8       0.1       0.0       0.0       0.4       2.3
12 H  s               1.7       0.1       6.5       0.0       0.3       0.8
13 H  s               0.2       0.0       6.6       0.0       0.1       0.0
14 H  s               0.5       1.8       1.3       3.8       0.1       0.2
15 H  s               0.2       2.5       2.4       2.8       0.3       0.2
16 H  s               0.3       0.2       6.2       1.6       0.0       0.0
17 H  s               0.0      10.5       0.3       0.5       0.0       0.0
18 H  s               3.1       0.4       6.2       2.0       0.0       0.1
19 H  s               1.0       0.3       6.2       3.0       0.1       0.0
20 H  s               0.6       3.3       0.2       6.1       0.1       0.0
21 H  s               2.2       5.2       5.0       0.3       0.5       0.1
22 H  s               0.2       0.6       1.8       6.6       0.0       0.1

                     36        37        38        39        40        41   
                   0.02095   0.04389   0.05849   0.06828   0.08280   0.09225
                   0.00000   0.00000   0.00000   0.00000   0.00000   0.00000
                  --------  --------  --------  --------  --------  --------
 0 C  s               4.9       1.2       9.4       1.4       1.2       1.8
 0 C  pz              1.7       1.0       2.3       0.0       0.0       0.0
 0 C  px              0.1       0.3       0.0       0.5       1.7       0.2
 0 C  py              0.1       0.2       0.2       2.1       3.8       0.2
 0 C  dxz             0.0       0.1       0.0       0.0       0.0       0.1
 0 C  dyz             0.0       0.0       0.0       0.0       0.1       0.0
 1 C  s               0.0       0.5       0.2       0.5       0.2       0.4
 1 C  pz              0.7       0.1       0.4       0.2       0.1       0.7
 1 C  px              0.2       0.2       0.0       0.1       0.0       0.1
 1 C  py              0.1       0.1       0.0       0.1       0.2       0.1
 1 C  dz2             0.2       0.0       0.1       0.1       0.0       0.0
 1 C  dxz             0.1       0.1       0.0       0.0       0.0       0.2
 1 C  dx2y2           0.0       0.0       0.1       0.2       0.2       0.2
 2 O  s               0.2       0.0       0.2       0.3       0.0       0.1
 2 O  pz              0.0       0.1       0.1       0.0       0.0       0.0
 2 O  px              0.1       0.3       0.1       0.1       0.0       0.3
 3 C  s               2.8       0.5       0.1       0.4       1.9       1.2
 3 C  pz              2.7       1.4       0.4       0.0       0.6       3.7
 3 C  px              0.1       0.5       0.2       0.1       0.0       0.8
 3 C  py              0.3       0.1       0.2       0.2       0.2       0.7
 3 C  dz2             0.1       0.1       0.0       0.0       0.1       0.3
[...]
 6 C  dxy             0.0       3.4       4.1       0.1       0.5       2.3
 7 C  s               0.1       0.4       0.4       0.1       0.2       0.0
 7 C  pz              0.0       0.8       0.6       0.0       0.0       0.3
 7 C  px              0.5       0.6       0.1       0.2       0.6       0.9
 7 C  py              0.1       0.6       0.1       0.0       0.1       0.2
 7 C  dz2             4.8       6.5       1.6       0.3       1.1       4.1
 7 C  dxz             0.2       0.0       6.2       4.8       0.1       0.7
 7 C  dyz             1.0       2.9       1.3       0.1       0.3       1.3
 7 C  dx2y2           0.6       4.2       0.2       0.0       4.2       1.5
 7 C  dxy             4.1       0.2       2.6       0.7       0.2       0.2
 8 C  s               1.0       1.0       0.0       0.0       0.0       0.0
 8 C  pz              0.2       0.1       0.1       0.0       0.2       0.2
 8 C  px              0.1       0.2       0.2       0.3       1.1       0.8
 8 C  py              0.3       0.7       0.0       0.0       0.0       0.2
 8 C  dz2             2.2       0.3       0.1       0.4       0.7       2.6
 8 C  dxz             7.2       4.1       2.3       3.9       0.1       0.0
 8 C  dyz             1.7       2.1       0.2       0.1       1.7       2.5
 8 C  dx2y2           5.0       2.7       1.7       0.1       3.9       4.0
 8 C  dxy             2.2       0.1       0.9       2.0       3.1       1.1
 9 H  s               0.0       0.0       0.0       0.1       0.0       0.0
12 H  s               0.1       0.1       0.1       0.0       0.0       0.0
13 H  s               0.5       0.1       0.0       0.0       0.1       0.0
14 H  s               0.0       0.0       0.3       0.1       0.2       0.0
15 H  s               0.3       0.2       0.0       0.1       0.0       0.0
16 H  s               0.2       0.3       0.0       0.0       0.1       0.0
17 H  s               0.1       0.0       0.0       0.2       0.0       0.0
18 H  s               0.2       0.1       0.0       0.0       0.0       0.0
19 H  s               0.2       0.0       0.0       0.0       0.0       0.0
20 H  s               0.0       0.1       0.3       0.1       0.1       0.0
21 H  s               0.6       0.2       0.0       0.0       0.0       0.1
22 H  s               0.2       0.3       0.0       0.0       0.0       0.0

                    150       151       152       153   
                   2.73846   3.07154   3.28186   3.52434
                   0.00000   0.00000   0.00000   0.00000
                  --------  --------  --------  --------
 0 C  s               0.2       0.0       0.2       0.0
 0 C  pz              0.3       0.0       0.2       0.0
 0 C  px              0.0       0.0       0.4       0.0
 0 C  dz2             3.5       0.0       0.1       0.1
 0 C  dxz             0.3       0.0       2.1       0.0
 0 C  dyz             0.1       0.0       0.0       0.0
 0 C  dx2y2           0.5       0.0       0.6       0.1
 0 C  dxy             0.1       0.3       0.1       0.0
 1 C  s               1.6       0.0       0.0       7.1
 1 C  pz              0.1       0.0       0.0       6.5
 1 C  px              0.6       0.0       0.6       0.9
 1 C  py              0.0       1.0       0.0       0.0
 1 C  dz2             5.9       0.1       8.5       3.3
 1 C  dxz             5.7       0.4      15.9       2.0
 1 C  dyz             0.3      15.9       0.7       0.0
 1 C  dx2y2           9.2       0.0       2.8       0.0
 1 C  dxy             1.3       2.5       0.1       0.0
 2 O  s               1.5       0.0       0.0       6.8
 2 O  pz              0.8       0.0       0.2       3.8
 2 O  px              0.2       0.0       1.4       0.5
 2 O  py              0.0       1.3       0.1       0.0
 2 O  dz2             0.9       0.6      17.6      46.7
 2 O  dxz             0.3       1.2      36.3      20.8
 2 O  dyz             0.0      65.7       1.5       0.0
 2 O  dx2y2          20.9       0.3       5.9       0.6
 2 O  dxy             2.0       8.2       0.3       0.0
 3 C  s               0.2       0.0       0.2       0.1
 3 C  pz              0.1       0.0       0.0       0.1
 3 C  px              2.1       0.0       0.5       0.1
 3 C  py              0.1       0.0       0.0       0.0
 3 C  dz2             0.0       0.0       1.5       0.0
 3 C  dxz            14.6       0.0       0.1       0.2
 3 C  dyz             2.2       0.2       0.0       0.0
 3 C  dx2y2           4.3       0.1       1.6       0.0
 3 C  dxy             0.2       1.0       0.2       0.0
 4 C  px              0.4       0.0       0.0       0.0
 4 C  dxz             0.5       0.0       0.0       0.0
 4 C  dyz             0.4       0.0       0.0       0.0
 4 C  dx2y2           0.5       0.2       0.0       0.0
 4 C  dxy             1.1       0.0       0.0       0.0
 5 C  px              0.2       0.0       0.0       0.0
 5 C  dxz             0.2       0.0       0.0       0.0
 5 C  dx2y2           1.1       0.0       0.0       0.0
 5 C  dxy             0.7       0.0       0.0       0.0
 6 C  s               0.2       0.0       0.0       0.0
 6 C  dyz             0.2       0.0       0.0       0.0
 6 C  dxy             0.2       0.0       0.0       0.0
 7 C  s               0.1       0.0       0.0       0.0
 7 C  px              0.5       0.0       0.0       0.0
 7 C  dz2             0.4       0.0       0.0       0.0
 7 C  dxz             0.6       0.0       0.0       0.0
 7 C  dyz             0.1       0.0       0.0       0.0
 7 C  dx2y2           1.2       0.0       0.0       0.0
 8 C  s               0.2       0.0       0.0       0.0
 8 C  pz              0.5       0.0       0.0       0.0
 8 C  px              0.7       0.0       0.0       0.0
 8 C  py              0.2       0.0       0.0       0.0
 8 C  dz2             0.5       0.1       0.0       0.0
 8 C  dxz             1.2       0.0       0.1       0.0
 8 C  dyz             2.4       0.1       0.0       0.0
 8 C  dx2y2           2.8       0.0       0.0       0.0
 8 C  dxy             1.7       0.0       0.1       0.0
 9 H  s               0.2       0.0       0.0       0.0


                      *****************************
                      * MAYER POPULATION ANALYSIS *
                      *****************************

  NA   - Mulliken gross atomic population
  ZA   - Total nuclear charge
  QA   - Mulliken gross atomic charge
  VA   - Mayer's total valence
  BVA  - Mayer's bonded valence
  FA   - Mayer's free valence

  ATOM       NA         ZA         QA         VA         BVA        FA
  0 C      6.2527     6.0000    -0.2527     3.8414     3.8414     0.0000
  1 C      5.9639     6.0000     0.0361     4.2767     4.2767    -0.0000
  2 O      8.1567     8.0000    -0.1567     2.3470     2.3470     0.0000
  3 C      6.2094     6.0000    -0.2094     4.0155     4.0155     0.0000
  4 C      6.1400     6.0000    -0.1400     4.1685     4.1685     0.0000
  5 C      6.1314     6.0000    -0.1314     4.1485     4.1485    -0.0000
  6 C      6.1608     6.0000    -0.1608     4.1940     4.1940    -0.0000
  7 C      6.1536     6.0000    -0.1536     4.2265     4.2265     0.0000
  8 C      6.1087     6.0000    -0.1087     4.0861     4.0861    -0.0000
  9 H      0.8839     1.0000     0.1161     0.9823     0.9823    -0.0000
 10 H      0.8720     1.0000     0.1280     0.9574     0.9574     0.0000
 11 H      0.8811     1.0000     0.1189     0.9633     0.9633     0.0000
 12 H      0.9355     1.0000     0.0645     0.9549     0.9549     0.0000
 13 H      0.9109     1.0000     0.0891     0.9548     0.9548     0.0000
 14 H      0.9118     1.0000     0.0882     0.9507     0.9507     0.0000
 15 H      0.9147     1.0000     0.0853     0.9454     0.9454     0.0000
 16 H      0.9191     1.0000     0.0809     0.9463     0.9463     0.0000
 17 H      0.9130     1.0000     0.0870     0.9438     0.9438    -0.0000
 18 H      0.9230     1.0000     0.0770     0.9465     0.9465    -0.0000
 19 H      0.9211     1.0000     0.0789     0.9454     0.9454     0.0000
 20 H      0.9143     1.0000     0.0857     0.9450     0.9450     0.0000
 21 H      0.9015     1.0000     0.0985     0.9847     0.9847    -0.0000
 22 H      0.9209     1.0000     0.0791     0.9459     0.9459    -0.0000

  Mayer bond orders larger than 0.100000
B(  0-C ,  1-C ) :   1.0762 B(  0-C ,  9-H ) :   0.9340 B(  0-C , 10-H ) :   0.9221 
B(  0-C , 11-H ) :   0.9268 B(  1-C ,  2-O ) :   2.1987 B(  1-C ,  3-C ) :   0.9061 
B(  3-C ,  4-C ) :   1.1242 B(  3-C ,  8-C ) :   1.0872 B(  3-C , 12-H ) :   0.8805 
B(  4-C ,  5-C ) :   1.1496 B(  4-C , 13-H ) :   0.8934 B(  4-C , 14-H ) :   0.9182 
B(  5-C ,  6-C ) :   1.1385 B(  5-C , 15-H ) :   0.9168 B(  5-C , 16-H ) :   0.9201 
B(  6-C ,  7-C ) :   1.1834 B(  6-C , 17-H ) :   0.9221 B(  6-C , 18-H ) :   0.9114 
B(  7-C ,  8-C ) :   1.1551 B(  7-C , 19-H ) :   0.9067 B(  7-C , 20-H ) :   0.9193 
B(  8-C , 21-H ) :   0.8936 B(  8-C , 22-H ) :   0.9179 

-------
TIMINGS
-------

Total SCF time: 0 days 0 hours 0 min 6 sec 

Total time                  ....       6.345 sec
Sum of individual times     ....       6.315 sec  ( 99.5%)

SCF preparation             ....       0.596 sec  (  9.4%)
Fock matrix formation       ....       4.242 sec  ( 66.9%)
  Startup                   ....       0.007 sec  (  0.2% of F)
  Split-RI-J                ....       1.997 sec  ( 47.1% of F)
  XC integration            ....       2.146 sec  ( 50.6% of F)
    Basis function eval.    ....       0.890 sec  ( 41.5% of XC)
    Density eval.           ....       0.451 sec  ( 21.0% of XC)
    XC-Functional eval.     ....       0.141 sec  (  6.6% of XC)
    XC-Potential eval.      ....       0.501 sec  ( 23.3% of XC)
Diagonalization             ....       0.000 sec  (  0.0%)
Density matrix formation    ....       0.028 sec  (  0.4%)
Total Energy calculation    ....       0.002 sec  (  0.0%)
Population analysis         ....       1.355 sec  ( 21.4%)
Orbital Transformation      ....       0.014 sec  (  0.2%)
Orbital Orthonormalization  ....       0.000 sec  (  0.0%)
DIIS solution               ....       0.062 sec  (  1.0%)
  MO trafo                  ....       0.000 sec  (  0.0 % of DIIS)
  Orb grad                  ....       0.000 sec  (  0.0 % of DIIS)
  Energy W gradient         ....       0.000 sec  (  0.0 % of DIIS)
  DIIS error                ....       0.003 sec  (  4.9 % of DIIS)
  DIIS work                 ....       0.051 sec  ( 82.0 % of DIIS)
  Form Q                    ....       0.000 sec  (  0.0 % of DIIS)
  Form QpQm                 ....       0.000 sec  (  0.0 % of DIIS)
  Exp/Cayley                ....       0.000 sec  (  0.0 % of DIIS)
  Orb update                ....       0.000 sec  (  0.0 % of DIIS)
  Wake-sleep                ....       0.001 sec  (  1.4 % of DIIS)
SOSCF solution              ....       0.017 sec  (  0.3%)
  MO trafo                  ....       0.010 sec  ( 62.6 % of SOSCF)
  Orb grad                  ....       0.000 sec  (  1.0 % of SOSCF)
  Rot update                ....       0.002 sec  (  9.4 % of SOSCF)
  Step                      ....       0.004 sec  ( 26.7 % of SOSCF)
Finished LeanSCF after   8.0 sec

Maximum memory used throughout the entire LEANSCF-calculation: 15.6 MB


-------------------------------------------------------------------------------
                          DFT DISPERSION CORRECTION                            
                                                                               
                                DFTD4 V3.4.0                                   
-------------------------------------------------------------------------------
The PBE functional is recognized
Active option DFTDOPT                   ...         5   

-------------------------   ----------------
Dispersion correction           -0.021845422
-------------------------   ----------------

------------------   -----------------
gCP correction             0.099619860
------------------   -----------------

-------------------------   --------------------
FINAL SINGLE POINT ENERGY      -387.601611184951
-------------------------   --------------------


------------------------------------------------------------------------------
                              ORCA PROPERTY CALCULATIONS
------------------------------------------------------------------------------

GBWName                                 ... sp.gbw
Number of atoms                         ...     23
Number of basis functions               ...    154
Max core memory                         ...   1024 MB

Electric properties:
Dipole moment                           ... YES
Quadrupole moment                       ...  NO
Static polarizability (Dipole/Dipole)   ...  NO
Static polarizability (Dipole/Quad.)    ...  NO
Static polarizability (Quad./Quad.)     ...  NO
Static polarizability (Velocity)        ...  NO

Atomic electric properties:
Dipole moment                           ...  NO
Quadrupole moment                       ...  NO
Static polarizability                   ...  NO

Choice of electric origin               ... Center of mass
Position of electric origin             ...     0.000022    -0.000001    -0.000014

General magnetic properties:
Magnetizability                         ...  NO

EPR properties:
g-Tensor (aka g-matrix)                 ...  NO
Zero-Field splitting spin-orbit         ...  NO
Zero-field splitting spin-spin          ...  NO
Hyperfine couplings                     ...  NO (   0 nuclei)
Quadrupole couplings                    ...  NO (   0 nuclei)
Contact density                         ...  NO (   0 nuclei)

NMR properties:
Chemical shifts                         ...  NO (   0 nuclei)
Spin-rotation constants                 ...  NO (   0 nuclei)
Spin-spin couplings                     ...  NO (   0 nuclei,    0 pairs)

Choice of magnetic origin               ... GIAO
Position of magnetic origin             ...     0.000000     0.000000     0.000000

Properties with geometric perturbations:
SCF Hessian                             ...  NO
IR spectrum                             ...  NO
VCD spectrum                            ...  NO
X-ray spectroscopy properties:
SCF XES/XAS/RIXS spectra                ...  NO


-------------
DIPOLE MOMENT
-------------

Method             : SCF
Type of density    : Electron Density
Multiplicity       :   1
Irrep              :   0
Energy             :  -387.6793856238434159 Eh
Relativity type    : 
Basis              : AO
                                X                 Y                 Z
Electronic contribution:     -5.370704219       0.332043443       3.310021594
Nuclear contribution   :      5.799870425      -0.359582873      -4.192091293
                        -----------------------------------------
Total Dipole Moment    :      0.429166206      -0.027539430      -0.882069699
                        -----------------------------------------
Magnitude (a.u.)       :      0.981320032
Magnitude (Debye)      :      2.494317296



--------------------
Rotational spectrum 
--------------------
 
Rotational constants in cm-1:             0.102063             0.036324             0.030987 
Rotational constants in MHz :          3059.773294          1088.968747           928.964742 

Dipole components along the rotational axes: 
x,y,z [a.u.] :     0.426365    -0.688576    -0.554134 
x,y,z [Debye]:     1.083734    -1.750221    -1.408498 

 

Dipole moment calculation done in   0.4 sec 

Maximum memory used throughout the entire PROP-calculation: 10.0 MB

--------------------------------
SUGGESTED CITATIONS FOR THIS RUN
--------------------------------

Below you find a list of papers that are relevant to this ORCA run
We neither can nor want to force you to cite these papers, but we appreciate if you do
You receive ORCA, which is the product of decades of hard work by many enthusiastic individuals, for free
The only thing we kindly ask in return is that you cite our papers,
We deeply appreciate it, if you show your appreciation for ORCA by not just citing the generic ORCA reference.

Please note that relegating all ORCA citations to the supporting information does *not* help us.
SI sections are not indexed - citations you put there will not count into any citation statistics
But we need these citations in order to attract the funding resources that allow us to do what we are doing

Therefore, if you are a happy ORCA user, please consider citing a few of the papers listed below in the main body of your paper

In addition to the list printed below, the program has created the file sp.bibtex that contains the list in bibtex format
You can import this file easily into all common literature databanks and citation aid programs


List of essential papers. We consider these as the minimum necessary citations

  1. Neese,F.
     Software update: the ORCA program system, version 5.0
     WIRES Comput. Molec. Sci., 2022 12(1)e1606
     doi.org/10.1002/wcms.1606

List of papers to cite with high priority. The work reported in these papers was absolutely
necessary for this run to complete.
Our perspective: the developers of density functionals and basis sets usually get cited in chemistry papers
Good! But without the algorithms to do something with them, the functionals or basis sets would not do anything.
Hence, in our opinion, the algorithm design and method developments papers are equally worthy of getting cited

  1. Neese,F.
     An improvement of the resolution of the identity approximation for the formation of the Coulomb matrix
     J. Comp. Chem., 2003 24(14)1740-1747
     doi.org/10.1002/jcc.10318
  2. Neese,F.
     The SHARK Integral Generation and Digestion System
     J. Comp. Chem., 2022  1-16
     doi.org/10.1002/jcc.26942
  3. Caldeweyher,E.; Bannwarth,C.; Grimme,S.
     Extension of the D3 dispersion coefficient model
     J. Chem. Phys., 2017 147 034112
     doi.org/10.1063/1.4993215
  4. Caldeweyher,E.; Ehlert,S.; Hansen,A.; Neugebauer,H.; Spicher,S.; Bannwarth,C.; Grimme,S.
     A generally applicable atomic-charge dependent London dispersion correction
     J. Chem. Phys., 2019 150 154122
     doi.org/10.1063/1.5090222
  5. Caldeweyher,E.; Mewes,J.; Ehlert,S.; Grimme,S.
     Extension and evaluation of the D4 London-dispersion model for periodic systems
     Phys. Chem. Chem. Phys., 2020 22(16)8499-8512
     doi.org/10.1039/D0CP00502A
  6. Wittmann,L.; Gordiy,I.; Friede,M.; Helmich-Paris,B.; Grimme,S.; Hansen,A.; Bursch,M.
     Extension of the D3 and D4 London Dispersion Corrections to the full Actinides Series
     Phys. Chem. Chem. Phys., 2024 26(32)21379-21394
     doi.org/https://doi.org/10.1039/D4CP01514B 

List of suggested additional citations. These are papers that are important in the 'surrounding' of 
of this run, or papers that preceded the highly important papers. If you like your results we are grateful for a citation.

  1. Neese,F.
     The ORCA program system
     WIRES Comput. Molec. Sci., 2012 2(1)73-78
     doi.org/10.1002/wcms.81
  2. Neese,F.
     Software update: the ORCA program system, version 4.0
     WIRES Comput. Molec. Sci., 2018 8(1)1-6
     doi.org/10.1002/wcms.1327
  3. Neese,F.; Wennmohs,F.; Becker,U.; Riplinger,C.
     The ORCA quantum chemistry program package
     J. Chem. Phys., 2020 152 Art. No. L224108
     doi.org/10.1063/5.0004608

List of optional additional citations

  1. Neese,F.
     Approximate second-order SCF convergence for spin unrestricted wavefunctions
     Chem. Phys. Lett., 2000 325(1-3)93-98
     doi.org/10.1016/s0009-2614(00)00662-x

Timings for individual modules:

Sum of individual times          ...        9.764 sec (=   0.163 min)
Startup calculation              ...        0.532 sec (=   0.009 min)   5.4 %
SCF iterations                   ...        8.814 sec (=   0.147 min)  90.3 %
Property calculations            ...        0.417 sec (=   0.007 min)   4.3 %
                             ****ORCA TERMINATED NORMALLY****
TOTAL RUN TIME: 0 days 0 hours 0 minutes 11 seconds 63 msec
