15
 energy: -345.701094453126 gnorm: 0.026727999769 xtb: 6.7.1 (edcfbbe)
C           -2.64627473347263       -0.11718634155193       -0.00085845520038
O           -1.36238137450371       -0.72485551562120        0.00067979340030
C           -0.31386112433908        0.11611823145146        0.00083968960037
O           -0.42486942878827        1.31559394158297        0.00022920630010
C            0.96398818052717       -0.63289887158045        0.00047569950021
C            2.12901817634342       -0.02643072291171       -0.74330040942938
C            2.13002484844387       -0.02601719111153        0.74212947542886
H           -3.36757089979226       -0.93000060251211        0.00656677790291
H           -2.77214392332841        0.50028760232169       -0.89252819449550
H           -2.76820249562666        0.51326675422744        0.88221533409093
H            0.84296322457354       -1.70688898125637        0.00086868520038
H            2.78790943033540       -0.69836504420946       -1.27103485276323
H            1.94491077416184        0.91074832460358       -1.24572465805201
H            2.78951526223611       -0.69788586820925        1.26921454616242
H            1.94682984226269        0.91136677490385        1.24450154285147
15
 energy: -345.701799585300 gnorm: 0.011100775418 xtb: 6.7.1 (edcfbbe)
C           -2.64909502571521       -0.11180264480375       -0.00066560204196
O           -1.36059901169687       -0.73508616947909        0.00051195475738
C           -0.30847494109976        0.11205839039993        0.00012714071373
O           -0.41865040245104        1.31860360235335       -0.00001438080286
C            0.96787209762491       -0.63959707059075        0.00040395245519
C            2.13050562085157       -0.02359405221878       -0.74404588431684
C            2.13135520862956       -0.02312593251392        0.74303613194109
H           -3.37270801260107       -0.92614424789866        0.00645532348365
H           -2.77847836065588        0.50654288372399       -0.89339234333025
H           -2.77455954679541        0.51901114671025        0.88380524246306
H            0.86412379185363       -1.71790442981420        0.00082107620465
H            2.78925270301579       -0.70393762308666       -1.27092997375446
H            1.93345285577571        0.91713994648379       -1.24533309206284
H            2.79073158576133       -0.70323536420666        1.26944765843292
H            1.93512721538974        0.91792450702086        1.24404714820722
15
 energy: -345.701949388351 gnorm: 0.004324590889 xtb: 6.7.1 (edcfbbe)
C           -2.65355300482163       -0.10633792855200       -0.00060730077507
O           -1.36300209597047       -0.74381302734282        0.00056642859745
C           -0.30625830868288        0.10489602404490        0.00040646885651
O           -0.41414461986341        1.31297829692599       -0.00038329597821
C            0.96919455537608       -0.64537388340416        0.00034688442688
C            2.13127030604054       -0.02098735771059       -0.74448777127500
C            2.13199772538299       -0.02031221991872        0.74334589656529
H           -3.38034928697184       -0.91935442679520        0.00590553912471
H           -2.77703059566690        0.51209518129591       -0.89446190501499
H           -2.77337839344315        0.52347581621056        0.88570417872046
H            0.88007966659316       -1.72568455626753        0.00088120570325
H            2.79247688650461       -0.70333072677323       -1.26832596817062
H            1.92374253131650        0.91991233482556       -1.24394236283097
H            2.79368036524412       -0.70231649529696        1.26703038742102
H            1.92513015054300        0.92100656543950        1.24229628867380
15
 energy: -345.701970453036 gnorm: 0.001679293400 xtb: 6.7.1 (edcfbbe)
C           -2.65497824767690       -0.10370495220800       -0.00043788878123
O           -1.36482554729005       -0.74832663424054        0.00044498443982
C           -0.30613253023217        0.09976452398864       -0.00024452778008
O           -0.41286473854355        1.30752212115691       -0.00067227121777
C            0.96919232435099       -0.64873418399998        0.00026309837626
C            2.13092207306392       -0.01966803748614       -0.74444627223908
C            2.13147462833312       -0.01889911290475        0.74341308076632
H           -3.38441316317019       -0.91406828797813        0.00569528448431
H           -2.77323358954778        0.51495721814797       -0.89435617597211
H           -2.76958613090657        0.52553813613107        0.88648014634142
H            0.88639966377949       -1.72922435973809        0.00086658560926
H            2.79408478082510       -0.70051228574458       -1.26683133529719
H            1.91882639912835        0.92007542502255       -1.24307299173230
H            2.79506957388536       -0.69924353153678        1.26590576080050
H            1.91992043678197        0.92137797556600        1.24126740269369
15
 energy: -345.701972116480 gnorm: 0.002425057490 xtb: 6.7.1 (edcfbbe)
C           -2.65466640982692       -0.09982121946623       -0.00022851174963
O           -1.36742560481791       -0.75542553306709        0.00044435272305
C           -0.30654767138385        0.08948764582036       -0.00025181189892
O           -0.41124132630340        1.29728295953776       -0.00126896586259
C            0.96927956039731       -0.65504537897530        0.00003533547010
C            2.12914681694678       -0.01785566459453       -0.74437024559406
C            2.12927595975437       -0.01665881849090        0.74314810853077
H           -3.39032489519230       -0.90370696790796        0.00474205515876
H           -2.76468868881034        0.52045201280066       -0.89334477902520
H           -2.76145366873734        0.52881150001560        0.88736781457171
H            0.89500877834708       -1.73539126835641        0.00090769532115
H            2.79696938390255       -0.69392884298104       -1.26529072767746
H            1.90952784580119        0.91934154466784       -1.24273666440578
H            2.79713785570975       -0.69199748334131        1.26496039396205
H            1.90985808124709        0.92131030317807        1.24016125284295
15
 energy: -345.701977647529 gnorm: 0.001058632172 xtb: 6.7.1 (edcfbbe)
C           -2.65404208076069       -0.10089176619883       -0.00022611567010
O           -1.36658747882604       -0.75325309013598        0.00042712770625
C           -0.30652033973831        0.09201431057230       -0.00038449034435
O           -0.41172395160345        1.29970338706806       -0.00129341812368
C            0.96927969140165       -0.65370584831766        0.00008191996196
C            2.12918908455005       -0.01842992554846       -0.74432904387034
C            2.12939024758183       -0.01729124583801        0.74316483072263
H           -3.38825963558516       -0.90620089410271        0.00479993236230
H           -2.76599457214516        0.51935015119938       -0.89326607115615
H           -2.76279670388349        0.52783464103209        0.88721159885866
H            0.89231899814695       -1.73405834099969        0.00093604622602
H            2.79615926088157       -0.69510891759425       -1.26596840553608
H            1.91126504930915        0.91911787321493       -1.24309412773520
H            2.79648262939330       -0.69323492297696        1.26560191402961
H            1.91169578808670        0.92100919331300        1.24061351830886
15
 energy: -345.701977164469 gnorm: 0.000954814721 xtb: 6.7.1 (edcfbbe)
C           -2.65360004226093       -0.10261693624931       -0.00024020609855
O           -1.36518031115122       -0.74959333358331        0.00053624088191
C           -0.30609077667848        0.09656162925225       -0.00024885276461
O           -0.41225289648229        1.30402902449252       -0.00145155406759
C            0.96930150583639       -0.65132675970561        0.00014921913074
C            2.12950068263387       -0.01947898993700       -0.74436907029757
C            2.12979239569418       -0.01831017672550        0.74317458625230
H           -3.38494093720888       -0.91085467811559        0.00453775109868
H           -2.76875878693313        0.51771862295128       -0.89311252794187
H           -2.76591334036482        0.52587981729506        0.88723556340223
H            0.88782499034767       -1.73171530311807        0.00102471287380
H            2.79496916341845       -0.69751656112729       -1.26692074265040
H            1.91461868264844        0.91886412663921       -1.24359772513286
H            2.79543644810965       -0.69558465892859        1.26649157404947
H            1.91514915539453        0.92079843733559        1.24106612249241
15
 energy: -345.701978843663 gnorm: 0.000513739425 xtb: 6.7.1 (edcfbbe)
C           -2.65374544610948       -0.10166783472725       -0.00016173058756
O           -1.36587168302077       -0.75152875188398        0.00048150088744
C           -0.30624079735852        0.09429477137211       -0.00052607321971
O           -0.41189602838135        1.30184848405996       -0.00156338474854
C            0.96937633387578       -0.65274447504760        0.00010237339485
C            2.12931515692392       -0.01898511607370       -0.74432504375794
C            2.12951571607367       -0.01776333743018        0.74316769101193
H           -3.38661062187752       -0.90839642274535        0.00442685015390
H           -2.76719947129865        0.51890425038639       -0.89294936591483
H           -2.76436782860474        0.52668934326556        0.88748312990074
H            0.89015985361513       -1.73316943102518        0.00102038349313
H            2.79573995632125       -0.69625189030901       -1.26636981945823
H            1.91260293737250        0.91888899661779       -1.24340973570187
H            2.79608272872479       -0.69419709664180        1.26611257313865
H            1.91299514722331        0.92093294404109        1.24078583129737
15
 energy: -345.701978843663 gnorm: 0.000513739425 xtb: 6.7.1 (edcfbbe)
C           -2.65374544610948       -0.10166783472725       -0.00016173058756
O           -1.36587168302077       -0.75152875188398        0.00048150088744
C           -0.30624079735852        0.09429477137211       -0.00052607321971
O           -0.41189602838135        1.30184848405996       -0.00156338474854
C            0.96937633387578       -0.65274447504760        0.00010237339485
C            2.12931515692392       -0.01898511607370       -0.74432504375794
C            2.12951571607367       -0.01776333743018        0.74316769101193
H           -3.38661062187752       -0.90839642274535        0.00442685015390
H           -2.76719947129865        0.51890425038639       -0.89294936591483
H           -2.76436782860474        0.52668934326556        0.88748312990074
H            0.89015985361513       -1.73316943102518        0.00102038349313
H            2.79573995632125       -0.69625189030901       -1.26636981945823
H            1.91260293737250        0.91888899661779       -1.24340973570187
H            2.79608272872479       -0.69419709664180        1.26611257313865
H            1.91299514722331        0.92093294404109        1.24078583129737
