15
 energy: -17.724710720012 gnorm: 0.022237789026 xtb: 6.7.1 (edcfbbe)
C            1.85430347007375        0.94505103518505       -0.20659983577592
C            0.95743906204362       -0.12185499203529        0.41618796855687
C           -0.38435850581497       -0.28226083972605       -0.28848181099537
H           -0.19463134853041       -0.51568949505464       -1.35135513096452
C           -1.26421362982281        0.95838875619666       -0.19991404358381
O           -1.02211833496862       -1.40556049629395        0.34201949736218
H            1.42837093115052        1.94763187535088       -0.10353614929087
H            2.01365252427295        0.75578865562774       -1.27408124972013
H            2.83473940076434        0.95539389920533        0.27747604220501
H            0.76515549848001        0.10511605703421        1.47230169453190
H            1.46059331106365       -1.09503436385760        0.38980542993248
H           -1.43042443441052        1.22886089364739        0.84818521977479
H           -0.80833860048286        1.80879569642092       -0.71595722951283
H           -2.23845433571257        0.77793486953529       -0.66838691636963
H           -1.89650580913936       -1.51013423795469       -0.04830972952649
15
 energy: -17.725258567938 gnorm: 0.009736608435 xtb: 6.7.1 (edcfbbe)
C            1.85530678953207        0.94450095313111       -0.20674914224747
C            0.96006812243179       -0.11426977896700        0.41855290398410
C           -0.38276940469742       -0.28128904808451       -0.29050388372006
H           -0.20358744854423       -0.51807714028340       -1.35341858193631
C           -1.26614861780039        0.95712475957523       -0.19709151474057
O           -1.01756069932329       -1.39893715943555        0.32832828387869
H            1.42513303913782        1.93916920566338       -0.10163718769925
H            2.00579395506566        0.74489615908941       -1.26794843208259
H            2.82907797136716        0.94634586295668        0.28057191737758
H            0.77045730460058        0.12302497819427        1.46862294336069
H            1.46398932228483       -1.08335069998449        0.39124315276171
H           -1.42892410987055        1.22460177689135        0.84636198500227
H           -0.80463191761812        1.79834867782794       -0.70994090875021
H           -2.23583771549500        0.77124107816849       -0.66205123650898
H           -1.89515739210418       -1.50090231146167       -0.05498654205592
15
 energy: -17.725346737357 gnorm: 0.002909526441 xtb: 6.7.1 (edcfbbe)
C            1.85522973685418        0.94411036211983       -0.20913649266687
C            0.95973294124682       -0.11199414461751        0.42097303225870
C           -0.38389755275365       -0.28324197979631       -0.28983622084895
H           -0.20132892439764       -0.51311923428140       -1.35366055024388
C           -1.26637299781973        0.95842731774876       -0.19514711070113
O           -1.01324236086368       -1.40053367655622        0.31956647121307
H            1.42595333735687        1.93681070452640       -0.10584223755960
H            2.00343854793692        0.73936737922373       -1.26703741977496
H            2.82623768696382        0.94359379960669        0.27899807465513
H            0.76580938437699        0.13228909477535        1.46648869272159
H            1.46173105389390       -1.08065293567777        0.39774580260218
H           -1.42854535839811        1.22071127998781        0.84735552974770
H           -0.80193136871418        1.79686887311645       -0.70462684582524
H           -2.23330974588545        0.77050210037578       -0.66007129481009
H           -1.89429518083031       -1.50071162727035       -0.05641567414398
15
 energy: -17.725366902553 gnorm: 0.001163758326 xtb: 6.7.1 (edcfbbe)
C            1.85605436639193        0.94276239884277       -0.21086923207325
C            0.95892607441264       -0.11074093879921        0.42329185326827
C           -0.38399200404415       -0.28424626655304       -0.29049571077412
H           -0.19716706150252       -0.50693768064379       -1.35573709557124
C           -1.26784371936989        0.95810223833552       -0.19343584303361
O           -1.01061717865101       -1.40236900225673        0.31353577706030
H            1.42784178180930        1.93611185799255       -0.11037375143110
H            2.00324651705232        0.73411409389720       -1.26797687639359
H            2.82707478289820        0.94238714475145        0.27709240054683
H            0.76251082865701        0.13884425867590        1.46684870726748
H            1.46015267349823       -1.07970027758110        0.40516164563236
H           -1.43066739854609        1.21714062281373        0.84982635640658
H           -0.80209055766569        1.79692311506246       -0.70038230659685
H           -2.23395873896964        0.77079109646708       -0.66001367033977
H           -1.89426116700392       -1.50075534772357       -0.05711849734462
15
 energy: -17.725380467363 gnorm: 0.001970505032 xtb: 6.7.1 (edcfbbe)
C            1.85822054515527        0.93956961954604       -0.21354999320512
C            0.95742258518826       -0.10810916014848        0.42692240782798
C           -0.38349125111771       -0.28435172159247       -0.29133336016723
H           -0.19029520621698       -0.49624703843480       -1.35854485258525
C           -1.27082547054250        0.95680565343009       -0.19049263717200
O           -1.00657190708232       -1.40675100543132        0.30331837362275
H            1.43265513644102        1.93528156176138       -0.11886613393205
H            2.00437123729732        0.72450611416057       -1.27003917033227
H            2.83017519237625        0.94006210209384        0.27365888979480
H            0.75807293422857        0.15045551182398        1.46804955934936
H            1.45708505041925       -1.07824927751544        0.41845414408720
H           -1.43668402959989        1.21056805694872        0.85422320407252
H           -0.80483612252240        1.79899486289060       -0.69245110200998
H           -2.23577480289875        0.77054858551490       -0.66091186736777
H           -1.89431469215868       -1.50065655176636       -0.05908370535925
15
 energy: -17.725388478162 gnorm: 0.001228271992 xtb: 6.7.1 (edcfbbe)
C            1.85977318589234        0.93768095715639       -0.21477402184108
C            0.95679789505463       -0.10608030848598        0.42816752745701
C           -0.38262893230584       -0.28282912815024       -0.29185354274952
H           -0.18803943442735       -0.49227762299522       -1.35920725310598
C           -1.27260006117334        0.95563415512580       -0.18883504506322
O           -1.00475466385487       -1.40867164555432        0.29877853114631
H            1.43603223751724        1.93471363545991       -0.12365274923424
H            2.00636970910949        0.71946237631148       -1.27073187252530
H            2.83172485006678        0.93828888154991        0.27270578638391
H            0.75678663743228        0.15653966854745        1.46832879503582
H            1.45502025881247       -1.07711555476974        0.42424837519590
H           -1.44123640380935        1.20669631878682        0.85621492056738
H           -0.80765914727562        1.80066088102108       -0.68750723405991
H           -2.23649652736872        0.76918334212778       -0.66171720687012
H           -1.89388040470340       -1.49945864284990       -0.06081125371328
15
 energy: -17.725396619656 gnorm: 0.000327519886 xtb: 6.7.1 (edcfbbe)
C            1.86214781161491        0.93560015349393       -0.21641946963622
C            0.95614858933364       -0.10320660934182        0.42915352371387
C           -0.38170155406927       -0.28066853455803       -0.29262612956132
H           -0.18620675092066       -0.48799897249711       -1.35988003177790
C           -1.27488445789075        0.95410138625230       -0.18684734924025
O           -1.00252423153720       -1.41096690509697        0.29375336569385
H            1.44014470356582        1.93373317291183       -0.13036513480416
H            2.00999851298164        0.71275641208548       -1.27110421422931
H            2.83318200824655        0.93641047865166        0.27261479554189
H            0.75518892600540        0.16457689146433        1.46774590742853
H            1.45217236662447       -1.07533476464327        0.43052189124275
H           -1.44756711941343        1.20008754411887        0.85860515443532
H           -0.81074609242155        1.80298212961048       -0.67981044094540
H           -2.23672388320765        0.76741462871113       -0.66365947683765
H           -1.89341962994517       -1.49705969788157       -0.06232863440033
15
 energy: -17.725401548140 gnorm: 0.000577493247 xtb: 6.7.1 (edcfbbe)
C            1.86413796515208        0.93386420518800       -0.21822654121605
C            0.95565940578442       -0.10098685284837        0.43016405640784
C           -0.38100743197987       -0.27916481670820       -0.29344441254565
H           -0.18440385202583       -0.48441313196047       -1.36077911583213
C           -1.27705498112511        0.95293206424817       -0.18489315347590
O           -1.00059215133802       -1.41248033543828        0.28968954473992
H            1.44317438437804        1.93288795638321       -0.13756003378672
H            2.01408219691496        0.70620965474287       -1.27154631377956
H            2.83401181104629        0.93560487883382        0.27294649530859
H            0.75359512632590        0.17123142351862        1.46736861722804
H            1.45010738090786       -1.07386687612186        0.43600040490516
H           -1.45417913517665        1.19355842971024        0.86107835130377
H           -0.81268223900617        1.80521935872290       -0.67172497518223
H           -2.23671707876513        0.76697577218150       -0.66630720805956
H           -1.89292220212604       -1.49514441717094       -0.06341195939184
15
 energy: -17.725405543970 gnorm: 0.000597972258 xtb: 6.7.1 (edcfbbe)
C            1.86577082512151        0.93259204154388       -0.21967210908557
C            0.95528924880174       -0.09932533836334        0.43068331959335
C           -0.38093448377471       -0.27831859385572       -0.29364065165723
H           -0.18357125034295       -0.48148268167352       -1.36118941643238
C           -1.27864274403401        0.95235176240747       -0.18343276535566
O           -0.99940662492832       -1.41358342114971        0.28715876899847
H            1.44487541343746        1.93203524240955       -0.14420441150136
H            2.01799331229710        0.70043661501468       -1.27165770250868
H            2.83449751076119        0.93604833369913        0.27377262617885
H            0.75265194381688        0.17614588287548        1.46685351832938
H            1.44870869006304       -1.07264304061412        0.43964168479450
H           -1.45999338166755        1.18778813040642        0.86299933699994
H           -0.81328966853935        1.80745872003144       -0.66435914727058
H           -2.23620808181581        0.76756005066049       -0.66944756171528
H           -1.89253151022947       -1.49463639011090       -0.06415173274406
15
 energy: -17.725410037303 gnorm: 0.000392894768 xtb: 6.7.1 (edcfbbe)
C            1.86705520711896        0.93119461136216       -0.22153913725003
C            0.95498901430924       -0.09787223083303        0.43131682652827
C           -0.38085220074671       -0.27742840419262       -0.29382526200739
H           -0.18281675125504       -0.47855848673976       -1.36168354950652
C           -1.28023310103816        0.95202141441387       -0.18161659595779
O           -0.99810552381557       -1.41397904010760        0.28516351816055
H            1.44568260371357        1.93090736729222       -0.15261194612981
H            2.02289552865828        0.69368011372867       -1.27179371095445
H            2.83408603932256        0.93743420927154        0.27518228808505
H            0.75187229450335        0.18079255505670        1.46652767341133
H            1.44736002208508       -1.07167125047986        0.44322192244973
H           -1.46696220723927        1.18151581353820        0.86521318360199
H           -0.81304046314931        1.81001005578021       -0.65541436414944
H           -2.23515708213151        0.76918589341332       -0.67352165674502
H           -1.89156418136874       -1.49480530822280       -0.06526543291280
15
 energy: -17.725414445548 gnorm: 0.000204931936 xtb: 6.7.1 (edcfbbe)
C            1.86871277025029        0.92956695355362       -0.22358998945499
C            0.95461196264224       -0.09613219585485        0.43185722561288
C           -0.38110654541456       -0.27642704647525       -0.29355030423530
H           -0.18246969097422       -0.47528151108514       -1.36177749559989
C           -1.28198633460337        0.95193629567108       -0.17948499218297
O           -0.99705659592877       -1.41445273573522        0.28342906828023
H            1.44623469231618        1.92937828038436       -0.16279355963124
H            2.02898378718564        0.68553025131700       -1.27170912270544
H            2.83376414287011        0.93982427436825        0.27700114654597
H            0.75127663261651        0.18592079238882        1.46611970307001
H            1.44578009048114       -1.07051484965633        0.44693914974402
H           -1.47488699154465        1.17474443652101        0.86769541945375
H           -0.81252730970015        1.81312238813924       -0.64513585686641
H           -2.23387223133193        0.77155711057498       -0.67812965973306
H           -1.89024917989775       -1.49634513083037       -0.06751697567387
15
 energy: -17.725417543289 gnorm: 0.000158612064 xtb: 6.7.1 (edcfbbe)
C            1.86989268916164        0.92800312462191       -0.22546607161506
C            0.95424134732375       -0.09462874611378        0.43257404099865
C           -0.38122358380677       -0.27533075480542       -0.29333768908182
H           -0.18215771780822       -0.47219490038010       -1.36189016784483
C           -1.28346536457168        0.95197724022105       -0.17751818854765
O           -0.99601594642197       -1.41464852968353        0.28193654949696
H            1.44665503645518        1.92791506930653       -0.17200196066645
H            2.03414685721754        0.67805572103799       -1.27157108600099
H            2.83308157735631        0.94171245445930        0.27860398564819
H            0.75077937642730        0.19068355876992        1.46593530411862
H            1.44425395536937       -1.06956516652332        0.45062487564453
H           -1.48118286344967        1.16924219214807        0.86990746369990
H           -0.81237656404639        1.81578247161505       -0.63651940766183
H           -2.23291959645550        0.77356154292464       -0.68139497260519
H           -1.88850000378417       -1.49813796431710       -0.07052891895935
15
 energy: -17.725419457452 gnorm: 0.000177387531 xtb: 6.7.1 (edcfbbe)
C            1.87095665663170        0.92683152079844       -0.22672500303399
C            0.95388580547205       -0.09338305562363        0.43312536099287
C           -0.38132937728614       -0.27450960186164       -0.29315838750608
H           -0.18178569305571       -0.47006236774263       -1.36186107591548
C           -1.28457968009131        0.95198681514106       -0.17596352755980
O           -0.99548353419339       -1.41481103827819        0.28073481312290
H            1.44729747000580        1.92677961695588       -0.17824751288200
H            2.03770456735720        0.67285388070613       -1.27142045895485
H            2.83296165699945        0.94287549361993        0.27950656402524
H            0.75016375047230        0.19433231243893        1.46576035296117
H            1.44296894420324       -1.06873265725212        0.45349545145909
H           -1.48496118356010        1.16607080805190        0.87157357258935
H           -0.81279934892862        1.81732282698867       -0.63119803991373
H           -2.23265776212754        0.77461629715138       -0.68269495926131
H           -1.88713307293222       -1.49974353781290       -0.07357339349971
15
 energy: -17.725420776061 gnorm: 0.000149401090 xtb: 6.7.1 (edcfbbe)
C            1.87154627165224        0.92595397687234       -0.22753328149504
C            0.95360045031875       -0.09253457596607        0.43370738675194
C           -0.38134750574513       -0.27380185691537       -0.29304037998917
H           -0.18151220698288       -0.46825094544597       -1.36187118512891
C           -1.28532084663349        0.95207157427197       -0.17497583591196
O           -0.99494992245232       -1.41504492055740        0.27966535096827
H            1.44790154713768        1.92606130074069       -0.18233043989587
H            2.03974287854530        0.66915073377178       -1.27129410354433
H            2.83282285501164        0.94321808530198        0.27999899064667
H            0.74969207593385        0.19712988549168        1.46575729625680
H            1.44202294196747       -1.06818252869579        0.45593009580560
H           -1.48669870119416        1.16431559410690        0.87272310587858
H           -0.81354529176720        1.81839910504398       -0.62835273696405
H           -2.23287311168563        0.77501559379394       -0.68275954409879
H           -1.88587223513941       -1.50107370853342       -0.07627096265609
15
 energy: -17.725421851698 gnorm: 0.000120382114 xtb: 6.7.1 (edcfbbe)
C            1.87220810231498        0.92518665572423       -0.22811608148882
C            0.95327508970430       -0.09169270902854        0.43422069738522
C           -0.38133842029342       -0.27323165637681       -0.29303384552560
H           -0.18106911655072       -0.46672334426949       -1.36194137278441
C           -1.28598825867650        0.95203961051350       -0.17404627813292
O           -0.99460722191257       -1.41525795962879        0.27854429906752
H            1.44875774169217        1.92546000829698       -0.18529485201644
H            2.04127398185789        0.66631967301169       -1.27120507664156
H            2.83302477658126        0.94321153354079        0.28025618210863
H            0.74907201029062        0.19963733023692        1.46573217215997
H            1.44106748651723       -1.06759631398173        0.45810326336472
H           -1.48755898175917        1.16345858853236        0.87378471425261
H           -0.81462945577010        1.81892975345590       -0.62676676417469
H           -2.23342094372153        0.77486068454933       -0.68201136949408
H           -1.88485759130773       -1.50217454129511       -0.07887193145647
15
 energy: -17.725422758726 gnorm: 0.000081348628 xtb: 6.7.1 (edcfbbe)
C            1.87281799135705        0.92444028193254       -0.22860505535795
C            0.95299299957347       -0.09095893315376        0.43474858535664
C           -0.38130651432625       -0.27262127168058       -0.29301996468503
H           -0.18059586375715       -0.46509685495088       -1.36200506886045
C           -1.28668265599107        0.95202788774163       -0.17325795568394
O           -0.99413493125282       -1.41556575923794        0.27727621005707
H            1.44969137046307        1.92496069240147       -0.18789573251618
H            2.04262660432775        0.66368702397179       -1.27111306969759
H            2.83325297285919        0.94297992415833        0.28047098741285
H            0.74844161132461        0.20200735459609        1.46572062251293
H            1.44019282031087       -1.06711979358886        0.46030426969844
H           -1.48802020270519        1.16290244899177        0.87473737244532
H           -0.81598650623202        1.81943152811598       -0.62576334162312
H           -2.23423724257838        0.77452930838167       -0.68091317963867
H           -1.88384325440643       -1.50317652439803       -0.08133092279665
15
 energy: -17.725423461348 gnorm: 0.000066209951 xtb: 6.7.1 (edcfbbe)
C            1.87338566326181        0.92374653376890       -0.22903468381582
C            0.95266084284464       -0.09020179491536        0.43524945315320
C           -0.38127056379102       -0.27210752347652       -0.29313079410748
H           -0.18015401457942       -0.46350683820591       -1.36223480559167
C           -1.28726270761334        0.95197107127968       -0.17249717726616
O           -0.99367065370511       -1.41589885997517        0.27598696858476
H            1.45056411011498        1.92448465566153       -0.19034062041170
H            2.04391121865951        0.66120563848093       -1.27098743425061
H            2.83344282255301        0.94276918366544        0.28075105688212
H            0.74785324416848        0.20427644367246        1.46574515484457
H            1.43928353231812       -1.06659490945926        0.46231036018997
H           -1.48834680146816        1.16234648458492        0.87567276953781
H           -0.81725522184134        1.81985905668329       -0.62486751365531
H           -2.23492722965799        0.77406832078187       -0.67983489785464
H           -1.88300504229745       -1.50399014926559       -0.08343407961534
15
 energy: -17.725423967299 gnorm: 0.000061780884 xtb: 6.7.1 (edcfbbe)
C            1.87393942621718        0.92315452711432       -0.22941669901447
C            0.95249066883771       -0.08965313541353        0.43558711565483
C           -0.38122350803570       -0.27161197917137       -0.29314890644990
H           -0.17972400605655       -0.46216464971401       -1.36231031292365
C           -1.28789763903109        0.95189568880069       -0.17186383149615
O           -0.99326647656501       -1.41614033769538        0.27488357745851
H            1.45126911424863        1.92403032518264       -0.19254937731853
H            2.04522967135698        0.65907351211184       -1.27085033803193
H            2.83360967408588        0.94274589281200        0.28108246607100
H            0.74735690287228        0.20607509798757        1.46565088531419
H            1.43864242543112       -1.06625039603092        0.46395444330600
H           -1.48886438747777        1.16178403798616        0.87642639384517
H           -0.81838337181382        1.82020437694976       -0.62395848632865
H           -2.23561733170068        0.77379629854991       -0.67906401685436
H           -1.88235196340245       -1.50451194618848       -0.08506915660837
15
 energy: -17.725424351172 gnorm: 0.000061627552 xtb: 6.7.1 (edcfbbe)
C            1.87433150880944        0.92269232607676       -0.22976334321138
C            0.95228052572836       -0.08915258835985        0.43587073714632
C           -0.38120401645113       -0.27128123529880       -0.29324946381710
H           -0.17945297353759       -0.46111642032179       -1.36249175707009
C           -1.28828464702191        0.95184918320870       -0.17132599377597
O           -0.99290322496314       -1.41641136306209        0.27398173112201
H            1.45169694397906        1.92365508591852       -0.19457047560667
H            2.04643618406722        0.65720860988076       -1.27071680231689
H            2.83360991318081        0.94287788993110        0.28145152904563
H            0.74698432453631        0.20754085027325        1.46562803213876
H            1.43804698423910       -1.06590308160260        0.46520237785079
H           -1.48944078812907        1.16107098648421        0.87707886883171
H           -0.81909013584403        1.82063371296972       -0.62289566550629
H           -2.23590206182252        0.77363980166535       -0.67867993632798
H           -1.88189933780420       -1.50487644448202       -0.08616608187916
15
 energy: -17.725424695831 gnorm: 0.000063346987 xtb: 6.7.1 (edcfbbe)
C            1.87471300785170        0.92228333229986       -0.23009701448278
C            0.95216368341765       -0.08874800532340        0.43606203244596
C           -0.38117336128564       -0.27097663453750       -0.29331716584694
H           -0.17923191996110       -0.46016894439709       -1.36263684530292
C           -1.28869881383262        0.95175923388364       -0.17084485111598
O           -0.99260385955239       -1.41659373991140        0.27322567911678
H            1.45199007191230        1.92326454845303       -0.19657864542511
H            2.04766850824910        0.65545097027645       -1.27055968999997
H            2.83357209299732        0.94318458447237        0.28187831886737
H            0.74673191327467        0.20881600369451        1.46554322004476
H            1.43761345502275       -1.06562989192715        0.46624440022127
H           -1.49027171514636        1.16015124978432        0.87765019472627
H           -0.81958749094026        1.82102003846230       -0.62158785570023
H           -2.23609060581111        0.77365376160565       -0.67867111650643
H           -1.88158576722928       -1.50503919355439       -0.08695690441838
15
 energy: -17.725425056362 gnorm: 0.000055684288 xtb: 6.7.1 (edcfbbe)
C            1.87508979640863        0.92186855592401       -0.23050931947924
C            0.95204773190314       -0.08833871472156        0.43623187117350
C           -0.38115726632756       -0.27067862309514       -0.29336240272510
H           -0.17900358112881       -0.45928075152087       -1.36274212599569
C           -1.28910386412326        0.95169403856693       -0.17033677824850
O           -0.99226518562383       -1.41680614188447        0.27249879251622
H            1.45220330319883        1.92283858710213       -0.19882379146644
H            2.04907805683465        0.65359055497431       -1.27042379813056
H            2.83345670376384        0.94362788611367        0.28234381598030
H            0.74646249761228        0.21006223901775        1.46543803012851
H            1.43717512327438       -1.06535396405940        0.46725158264858
H           -1.49146313552061        1.15897425669068        0.87822776389833
H           -0.81992870435881        1.82155406297846       -0.61985552847824
H           -2.23609354329913        0.77384614077975       -0.67899214120515
H           -1.88128873364703       -1.50517081358505       -0.08759221399285
15
 energy: -17.725425258263 gnorm: 0.000040142370 xtb: 6.7.1 (edcfbbe)
C            1.87539237258681        0.92162774432443       -0.23073530503462
C            0.95197834177169       -0.08801352053044        0.43637495759334
C           -0.38115653065432       -0.27045573502351       -0.29335974990299
H           -0.17885145856668       -0.45875656306762       -1.36277266105352
C           -1.28945319834702        0.95165254787685       -0.17006549349691
O           -0.99208945830105       -1.41682257484702        0.27216201031133
H            1.45268047072260        1.92269067240713       -0.19996481782225
H            2.04969007794069        0.65251564568324       -1.27037956141164
H            2.83359970099083        0.94357152409603        0.28240477686793
H            0.74627605651711        0.21085985612381        1.46542789428307
H            1.43695754894407       -1.06508823746262        0.46787893817704
H           -1.49233617640429        1.15821231113648        0.87852253631794
H           -0.82028692744397        1.82188355010173       -0.61880030133226
H           -2.23616750067278        0.77389041781940       -0.67923582192889
H           -1.88102412011699       -1.50534032535671       -0.08810364494388
15
 energy: -17.725425504725 gnorm: 0.000045725349 xtb: 6.7.1 (edcfbbe)
C            1.87562833148943        0.92134278773041       -0.23107458393503
C            0.95189124963820       -0.08768697079153        0.43653186390110
C           -0.38115611785287       -0.27027499208569       -0.29335241064779
H           -0.17873530434581       -0.45814808952314       -1.36282497946204
C           -1.28971931225957        0.95161476429085       -0.16971522489988
O           -0.99186886441716       -1.41693359093887        0.27178117316503
H            1.45292227809149        1.92244097395252       -0.20146052863772
H            2.05041120079970        0.65124493981516       -1.27038118331734
H            2.83358345878619        0.94374626713242        0.28251401036269
H            0.74613663821900        0.21188337969456        1.46537121499406
H            1.43662533019170       -1.06486699291127        0.46868183195519
H           -1.49351005966251        1.15710065200882        0.87890219688918
H           -0.82028368121886        1.82233541566369       -0.61718571438974
H           -2.23595490888064        0.77418193066463       -0.67987396384071
H           -1.88076103961159       -1.50555316142136       -0.08855994551331
15
 energy: -17.725425815990 gnorm: 0.000040399898 xtb: 6.7.1 (edcfbbe)
C            1.87595962550446        0.92091481916631       -0.23157684260500
C            0.95181357807369       -0.08728056882939        0.43671052992051
C           -0.38113690542521       -0.27002170407240       -0.29331379328538
H           -0.17855188131335       -0.45739107048319       -1.36283543823103
C           -1.29011321396599        0.95152106662885       -0.16921609114859
O           -0.99156914711410       -1.41709470999663        0.27125280832182
H            1.45309392678100        1.92199999381161       -0.20355759077379
H            2.05149852328438        0.64952506808634       -1.27041765092756
H            2.83354365038791        0.94412939771812        0.28266575807908
H            0.74597918788111        0.21326405265008        1.46524293709602
H            1.43623623829348       -1.06457976040880        0.46978837803711
H           -1.49532238301270        1.15549960200148        0.87943144867084
H           -0.82013214124574        1.82293878360561       -0.61477841044356
H           -2.23563788370349        0.77475320167136       -0.68093279952804
H           -1.88045197545875       -1.50575085826813       -0.08910948655873
15
 energy: -17.725426115976 gnorm: 0.000035433429 xtb: 6.7.1 (edcfbbe)
C            1.87632035986737        0.92046149099206       -0.23212646274441