15
 energy: -23.090592659997 gnorm: 0.020006594797 xtb: 6.7.1 (edcfbbe)
C           -2.68730892445669        0.00204767052663       -0.40172348199143
C           -2.02697235344905       -1.20379225931285       -0.18254121389121
C           -0.70894362829086       -1.20509999439058        0.25808324628221
C           -0.03810628865072       -0.00181572009824        0.48605331275047
C           -0.70659772649089        1.20344352607926        0.26152131721490
C           -2.02457976871928        1.20598110910643       -0.17913823933278
C            1.37758814436299       -0.00384901528894        0.95255438743357
Cl           2.54918223857642        0.00068115525545       -0.47248623734026
H           -3.71683938804426        0.00354825693078       -0.74444238026338
H           -2.54042867654619       -2.14417301806296       -0.35426918985696
H           -0.19091459223222       -2.14568516706402        0.42247250929735
H           -0.18668224133424        2.14252152298169        0.42854128938112
H           -2.53618398319117        2.14784879666133       -0.34822174932902
H            1.61962648795474       -0.89899188894502        1.52714348516074
H            1.62024016265736        0.88722035550814        1.53319393246356
15
 energy: -23.091451220684 gnorm: 0.009960421286 xtb: 6.7.1 (edcfbbe)
C           -2.67836216653276        0.00204363463007       -0.39968481424959
C           -2.02030173474369       -1.19791644164789       -0.18311466781733
C           -0.70763224703176       -1.20004671411121        0.25521279247669
C           -0.03933795409288       -0.00182125426830        0.48696310808042
C           -0.70528719725479        1.19838975757847        0.25864866174222
C           -2.01792267321519        1.20009821535134       -0.17971790386900
C            1.37162417867627       -0.00386278339170        0.96242314552618
Cl           2.50124629528580        0.00062973656100       -0.47143417660426
H           -3.70368949657029        0.00354406216389       -0.74197694012035
H           -2.53185531486752       -2.13444932089523       -0.35550366782410
H           -0.19417809775806       -2.13712343357203        0.42244562635475
H           -0.18995266480775        2.13395252021178        0.42854287753754
H           -2.52763265328500        2.13811768005877       -0.34946350104739
H            1.62288443240827       -0.90255059254948        1.52369206622204
H            1.62347675593526        0.89088026376760        1.52970838157105
15
 energy: -23.091593406201 gnorm: 0.005120936612 xtb: 6.7.1 (edcfbbe)
C           -2.67431150546445        0.00204679623037       -0.40231475933495
C           -2.01741441245807       -1.19631611592293       -0.18411318216885
C           -0.70852584694511       -1.19872629033274        0.26066888570438
C           -0.04232113373036       -0.00183613198728        0.49586295593984
C           -0.70618211600193        1.19704596293939        0.26412589869771
C           -2.01504331124966        1.19849258574115       -0.18069587403587
C            1.37318849424738       -0.00384455520444        0.95969369710705
Cl           2.47913467329107        0.00057579077466       -0.47589881615490
H           -3.69808019041202        0.00354923516037       -0.74460556380639
H           -2.52699043286801       -2.13176009059900       -0.35928171184683
H           -0.19565126856472       -2.13447903691300        0.42638525015695
H           -0.19142893606418        2.13128637695806        0.43251844080707
H           -2.52277443616181        2.13543084007368       -0.35321331672467
H            1.62443564989266       -0.90144007557224        1.52084512914852
H            1.62504423463514        0.88986003854105        1.52676395448981
15
 energy: -23.091631807261 gnorm: 0.001843272382 xtb: 6.7.1 (edcfbbe)
C           -2.67364289822581        0.00204900494410       -0.40336568019103
C           -2.01715634054351       -1.19649143768659       -0.18321428478403
C           -0.70869495522919       -1.19891787152050        0.26367196728540
C           -0.04309126485582       -0.00184107649873        0.49931180839281
C           -0.70635758363973        1.19722639829116        0.26715321983098
C           -2.01479406452998        1.19866438839178       -0.17977266477407
C            1.37658180050111       -0.00382592473460        0.95651887753499
Cl           2.46775938446167        0.00049516399776       -0.48048661954067
H           -3.69547572210851        0.00355733712913       -0.75127798611417
H           -2.52531925895219       -2.13212095761215       -0.36149580574978
H           -0.19632730914492       -2.13465436802244        0.43106596385033
H           -0.19211945641736        2.13144716810208        0.43724614210009
H           -2.52111568700376        2.13579673459240       -0.35537681587236
H            1.62609908933085       -0.90063239909218        1.52047840928790
H            1.62673372850308        0.88913316960586        1.52628445672249
15
 energy: -23.091637274914 gnorm: 0.000789420584 xtb: 6.7.1 (edcfbbe)
C           -2.67325439881266        0.00205240690784       -0.40663936623315
C           -2.01756267544127       -1.19707341672282       -0.18334177369792
C           -0.70929852203801       -1.19944298578443        0.26617948299505
C           -0.04378916800795       -0.00183705196199        0.50113809120313
C           -0.70697947087102        1.19775316037085        0.26969453076833
C           -2.01522059540676        1.19924971725614       -0.17986036459945
C            1.37953081105780       -0.00380769865148        0.95353416405855
Cl           2.46488233776663        0.00035736493173       -0.48342593139973
H           -3.69464935873917        0.00355952911746       -0.75725634768959
H           -2.52598348142382       -2.13323053126622       -0.36095321586574
H           -0.19698659505018       -2.13563800005346        0.43495543879474
H           -0.19281282388557        2.13243317136833        0.44119518773169
H           -2.52181075855210        2.13690787272932       -0.35476222340937
H            1.62816564066774       -0.90021848753052        1.52031557010334
H            1.62884852088227        0.88882027917635        1.52596774521903
15
 energy: -23.091638301647 gnorm: 0.000116771743 xtb: 6.7.1 (edcfbbe)
C           -2.67350935272203        0.00205001328863       -0.40545161906801
C           -2.01766981851024       -1.19697873002618       -0.18297758977354
C           -0.70912701084526       -1.19935516727228        0.26534742067588
C           -0.04343545212903       -0.00183085453621        0.49982530109176
C           -0.70681647796872        1.19767434739553        0.26887254194701
C           -2.01533594162211        1.19915550400352       -0.17948654321093
C            1.37880366865559       -0.00380709454019        0.95417416000378
Cl           2.46671337724634        0.00030557057755       -0.48269431765946
H           -3.69466263052299        0.00355560455387       -0.75673388894823
H           -2.52612133375448       -2.13305736918429       -0.36077853289962
H           -0.19693351647071       -2.13553083124625        0.43425369351524
H           -0.19277555442469        2.13233737015344        0.44051201926214
H           -2.52196510392573        2.13673322029574       -0.35456752916736
H            1.62760695121406       -0.90038594292556        1.52042118967085
H            1.62830765792592        0.88901968934978        1.52602468253939
15
 energy: -23.091638341676 gnorm: 0.000053202102 xtb: 6.7.1 (edcfbbe)
C           -2.67331921704638        0.00204959524179       -0.40585582743216
C           -2.01756333921548       -1.19694721541834       -0.18320411001014
C           -0.70915764796987       -1.19932718671506        0.26544735115686
C           -0.04352763493238       -0.00182642418340        0.50003900163105
C           -0.70685752906168        1.19765252773723        0.26898974801373
C           -2.01524078158631        1.19912527368372       -0.17969431561139
C            1.37873210536804       -0.00380209080927        0.95418730327766
Cl           2.46659767718402        0.00023032930923       -0.48260438080804
H           -3.69465961400506        0.00355232950858       -0.75645085086888
H           -2.52613048889429       -2.13298507838232       -0.36065016323392
H           -0.19695564154412       -2.13547112865977        0.43422104025868
H           -0.19281747602487        2.13228681730140        0.44051040106789
H           -2.52199407755777        2.13665941916688       -0.35440708343137
H            1.62762339391417       -0.90035874082750        1.52034484991739
H            1.62834973351792        0.88904690293392        1.52586802405152
