22
 energy: -463.174428370518 gnorm: 0.016643865443 xtb: 6.7.1 (edcfbbe)
C           -3.52381975286150        0.00025587970011        0.00095165430042
C           -2.82762870695300        1.11515664699416        0.43677936269355
C           -1.44514947514038        1.11703346999499        0.43335434929203
C           -0.73553017302593       -0.00002982630001       -0.00088421950039
C           -1.44593070924073       -1.11691743519494       -0.43427636579244
C           -2.82841640675335       -1.11477207959398       -0.43590509089316
C            0.73553659342594       -0.00020598930009       -0.00096748360043
C            1.44577055194066        1.11677326639487       -0.43443626499251
C            2.82824628355327        1.11494359389406       -0.43580987539312
C            3.52377906486148        0.00002620280001        0.00105333400047
C            2.82781336755308       -1.11511860659414        0.43665162479349
C            1.44532339734046       -1.11715204569504        0.43322986889198
H           -4.60389676854011        0.00015210550007        0.00211168620094
H           -3.36498408449111        1.98660623428032        0.78229015674665
H           -0.90697478810190        1.98385163507910        0.78899997384963
H           -0.90838963650253       -1.98370713287903       -0.79102339695052
H           -3.36639848569174       -1.98620212848014       -0.78043315244583
H            0.90802936650237        1.98332912927887       -0.79141167815070
H            3.36606652439159        1.98624108868016       -0.78094929314606
H            4.60388970584011        0.00016893940007        0.00196653510087
H            3.36535604169128       -1.98632202118019        0.78239918004670
H            0.90737321360208       -1.98403535077918        0.78913772224969
22
 energy: -463.175224873384 gnorm: 0.003891767944 xtb: 6.7.1 (edcfbbe)
C           -3.53813952178548        0.00019328372284        0.00102651096755
C           -2.83856669606549        1.12116492445012        0.43404883578143
C           -1.45050695170828        1.12219384800164        0.43126317515820
C           -0.73726563553482       -0.00000212733673       -0.00084291199732
C           -1.45121526440247       -1.12200399054145       -0.43226417045496
C           -2.83928289796452       -1.12079968134387       -0.43314965639920
C            0.73727021403060       -0.00019761157393       -0.00089242069137
C            1.45107615046673        1.12184282519212       -0.43247721824914
C            2.83913789794954        1.12081544297250       -0.43342601923320
C            3.53812951209968       -0.00001653391863        0.00091452327291
C            2.83872520506551       -1.12104030015676        0.43408968118109
C            1.45065598810251       -1.12225790171398        0.43128623892233
H           -4.62203539826772        0.00019911277558        0.00187853020024
H           -3.37655827918175        1.99464996370467        0.78540677443268
H           -0.90887641817384        1.98903856592835        0.79415598902647
H           -0.91019316953527       -1.98897448996682       -0.79578205843239
H           -3.37787701108690       -1.99421309269825       -0.78375205178584
H            0.90989343701544        1.98866593839499       -0.79609487492851
H            3.37759142805443        1.99430122855957       -0.78405925671405
H            4.62203380715481        0.00013485633398        0.00182688792484
H            3.37687124870486       -1.99441659837200        0.78545158737565
H            0.90919783957471       -1.98920178949705        0.79422048778182
22
 energy: -463.175287038225 gnorm: 0.000528530823 xtb: 6.7.1 (edcfbbe)
C           -3.54473732411246        0.00021431515752        0.00087534616052
C           -2.84384086829622        1.12253283370585        0.43366663129022
C           -1.45398757485525        1.12340313549149        0.43096167464212
C           -0.73831592044843        0.00000889905848       -0.00070898757308
C           -1.45461450620976       -1.12322616874568       -0.43174106165132
C           -2.84447646556654       -1.12215399970454       -0.43284437493063
C            0.73832139076363       -0.00017591975899       -0.00076799109019
C            1.45449973080194        1.12308103184192       -0.43195976146645
C            2.84435651219536        1.12218427348697       -0.43305509902592
C            3.54474094480515       -0.00006179658406        0.00077379563394
C            2.84397290357348       -1.12243743878633        0.43363168713857
C            1.45411268985601       -1.12346366294298        0.43096325484894
H           -4.62991045730480        0.00021940937149        0.00166018402653
H           -3.38201399944634        1.99810401777113        0.78317989707346
H           -0.91184846513135        1.99135651102840        0.79374830328809
H           -0.91302355467387       -1.99128682858531       -0.79510089552433
H           -3.38319156826072       -1.99766133228369       -0.78168278454608
H            0.91278624709898        1.99102723175843       -0.79540587949681
H            3.38295863467655        1.99770783753513       -0.78202902260129
H            4.62991432444718        0.00005552005358        0.00156752857976
H            3.38226532443030       -1.99789472917159        0.78324750111177
H            0.91209803343795       -1.99145681163444        0.79384866577479
22
 energy: -463.175290520692 gnorm: 0.000304588959 xtb: 6.7.1 (edcfbbe)
C           -3.54629273756913        0.00021661874856        0.00076803795351
C           -2.84520919830121        1.12312009045948        0.43155458647975
C           -1.45528323216091        1.12384405682905        0.42967927363264
C           -0.73867386385512        0.00002375565749       -0.00054746079745
C           -1.45582054131700       -1.12364428119553       -0.43026789685041
C           -2.84575404598461       -1.12272897670111       -0.43081005079770
C            0.73868006530766       -0.00014362103996       -0.00059735693207
C            1.45573206350781        1.12352971845836       -0.43046983126235
C            2.84566134561335        1.12272572394782       -0.43106838056274
C            3.54629947810789       -0.00010992246370        0.00063557996870
C            2.84531350327176       -1.12302206788696        0.43155572613759
C            1.45538369819184       -1.12387312140151        0.42970151377113
H           -4.63148564609009        0.00024856601477        0.00138476284574
H           -3.38327610132055        1.99914608585431        0.78013163951017
H           -0.91375102722071        1.99243119433740        0.79187831251383
H           -0.91476257816435       -1.99234320152209       -0.79291455909092
H           -3.38428725224095       -1.99868906502510       -0.77883546303191
H            0.91458486870886        1.99213669447963       -0.79320252650592
H            3.38410840346039        1.99870917087611       -0.77916859966386
H            4.63149187896170       -0.00004087613190        0.00126284291375
H            3.38346750882270       -1.99897775381363        0.78017716642931
H            0.91394003448163       -1.99248195724579        0.79198136187710
22
 energy: -463.175290520692 gnorm: 0.000304588959 xtb: 6.7.1 (edcfbbe)
C           -3.54629273756913        0.00021661874856        0.00076803795351
C           -2.84520919830121        1.12312009045948        0.43155458647975
C           -1.45528323216091        1.12384405682905        0.42967927363264
C           -0.73867386385512        0.00002375565749       -0.00054746079745
C           -1.45582054131700       -1.12364428119553       -0.43026789685041
C           -2.84575404598461       -1.12272897670111       -0.43081005079770
C            0.73868006530766       -0.00014362103996       -0.00059735693207
C            1.45573206350781        1.12352971845836       -0.43046983126235
C            2.84566134561335        1.12272572394782       -0.43106838056274
C            3.54629947810789       -0.00010992246370        0.00063557996870
C            2.84531350327176       -1.12302206788696        0.43155572613759
C            1.45538369819184       -1.12387312140151        0.42970151377113
H           -4.63148564609009        0.00024856601477        0.00138476284574
H           -3.38327610132055        1.99914608585431        0.78013163951017
H           -0.91375102722071        1.99243119433740        0.79187831251383
H           -0.91476257816435       -1.99234320152209       -0.79291455909092
H           -3.38428725224095       -1.99868906502510       -0.77883546303191
H            0.91458486870886        1.99213669447963       -0.79320252650592
H            3.38410840346039        1.99870917087611       -0.77916859966386
H            4.63149187896170       -0.00004087613190        0.00126284291375
H            3.38346750882270       -1.99897775381363        0.78017716642931
H            0.91394003448163       -1.99248195724579        0.79198136187710
