      -----------------------------------------------------------      
     |                   =====================                   |     
     |                           x T B                           |     
     |                   =====================                   |     
     |                         S. Grimme                         |     
     |          Mulliken Center for Theoretical Chemistry        |     
     |                    University of Bonn                     |     
      -----------------------------------------------------------      

   * xtb version 6.7.1 (edcfbbe) compiled by 'albert@albert-system' on 2024-07-22

   xtb is free software: you can redistribute it and/or modify it under
   the terms of the GNU Lesser General Public License as published by
   the Free Software Foundation, either version 3 of the License, or
   (at your option) any later version.
   
   xtb is distributed in the hope that it will be useful,
   but WITHOUT ANY WARRANTY; without even the implied warranty of
   MERCHANTABILITY or FITNESS FOR A PARTICULAR PURPOSE.  See the
   GNU Lesser General Public License for more details.
   
   Cite this work as:
   * C. Bannwarth, E. Caldeweyher, S. Ehlert, A. Hansen, P. Pracht,
     J. Seibert, S. Spicher, S. Grimme, WIREs Comput. Mol. Sci., 2020, 11,
     e01493. DOI: 10.1002/wcms.1493
   
   for GFN2-xTB:
   * C. Bannwarth, S. Ehlert and S. Grimme., J. Chem. Theory Comput., 2019,
     15, 1652-1671. DOI: 10.1021/acs.jctc.8b01176
   for GFN1-xTB:
   * S. Grimme, C. Bannwarth, P. Shushkov, J. Chem. Theory Comput., 2017,
     13, 1989-2009. DOI: 10.1021/acs.jctc.7b00118
   for GFN0-xTB:
   * P. Pracht, E. Caldeweyher, S. Ehlert, S. Grimme, ChemRxiv, 2019, preprint.
     DOI: 10.26434/chemrxiv.8326202.v1
   for GFN-FF:
   * S. Spicher and S. Grimme, Angew. Chem. Int. Ed., 2020, 59, 15665-15673.
     DOI: 10.1002/anie.202004239
   
   for ALPB and GBSA implicit solvation:
   * S. Ehlert, M. Stahn, S. Spicher, S. Grimme, J. Chem. Theory Comput.,
     2021, 17, 4250-4261. DOI: 10.1021/acs.jctc.1c00471
   
   for ddCOSMO and CPCM-X implicit solvation:
   * M. Stahn, S. Ehlert, S. Grimme, J. Phys. Chem. A,
     2023, XX, XXXX-XXXX. DOI: 10.1021/acs.jpca.3c04382
   
   for DFT-D4:
   * E. Caldeweyher, C. Bannwarth and S. Grimme, J. Chem. Phys., 2017,
     147, 034112. DOI: 10.1063/1.4993215
   * E. Caldeweyher, S. Ehlert, A. Hansen, H. Neugebauer, S. Spicher,
     C. Bannwarth and S. Grimme, J. Chem. Phys., 2019, 150, 154122.
     DOI: 10.1063/1.5090222
   * E. Caldeweyher, J.-M. Mewes, S. Ehlert and S. Grimme, Phys. Chem. Chem. Phys.
     2020, 22, 8499-8512. DOI: 10.1039/D0CP00502A
   
   for sTDA-xTB:
   * S. Grimme and C. Bannwarth, J. Chem. Phys., 2016, 145, 054103.
     DOI: 10.1063/1.4959605
   
   in the mass-spec context:
   * V. Asgeirsson, C. Bauer and S. Grimme, Chem. Sci., 2017, 8, 4879.
     DOI: 10.1039/c7sc00601b
   * J. Koopman and S. Grimme, ACS Omega 2019, 4, 12, 15120-15133.
     DOI: 10.1021/acsomega.9b02011
   
   for metadynamics refer to:
   * S. Grimme, J. Chem. Theory Comput., 2019, 155, 2847-2862
     DOI: 10.1021/acs.jctc.9b00143
   
   for SPH calculations refer to:
   * S. Spicher and S. Grimme, J. Chem. Theory Comput., 2021, 17, 1701-1714
     DOI: 10.1021/acs.jctc.0c01306
   
   for ONIOM refer to:
   * C. Plett, A. Katbashev, S. Ehlert, S. Grimme, M. Bursch,
     Phys. Chem. Chem. Phys., 2023, 25, 17860-17868. DOI: 10.1039/D3CP02178E
   
   for DIPRO refer to:
   * J. Kohn, N. Gildemeister, S. Grimme, D. Fazzi, A. Hansen,
     J. Chem. Phys., 2023, just accepted.
   
   for PTB refer to:
   * S. Grimme, M. Mueller, A. Hansen, J. Chem. Phys., 2023, 158, 124111.
     DOI: 10.1063/5.0137838
   
   with help from (in alphabetical order)
   P. Atkinson, C. Bannwarth, F. Bohle, G. Brandenburg, E. Caldeweyher
   M. Checinski, S. Dohm, S. Ehlert, S. Ehrlich, I. Gerasimov, C. Hölzer
   A. Katbashev, J. Kohn, J. Koopman, C. Lavigne, S. Lehtola, F. März, M. Müller,
   F. Musil, H. Neugebauer, J. Pisarek, C. Plett, P. Pracht, F. Pultar,
   J. Seibert, P. Shushkov, S. Spicher, M. Stahn, M. Steiner, T. Strunk,
   J. Stückrath, T. Rose, and J. Unsleber
   
 * started run on 2025/04/16 at 10:17:40.581     
   ID    Z sym.   atoms
    1    6 C      1, 6
    2    8 O      2, 4, 5
    3   16 S      3
    4    1 H      7-12

           -------------------------------------------------
          |                Calculation Setup                |
           -------------------------------------------------

          program call               : /software/projects/pawsey0265/mwang1/xtb/bin/xtb xtb_rrho.coord --gfn2 --bhess vtight --chrg 0 --enso --norestart -I rrho-xcontrol-inp --parallel 1
          hostname                   : nid002823
          coordinate file            : xtb_rrho.coord
          omp threads                :                     1


           -------------------------------------------------
          |                 G F N 2 - x T B                 |
           -------------------------------------------------

        Reference                      10.1021/acs.jctc.8b01176
      * Hamiltonian:
        H0-scaling (s, p, d)           1.850000    2.230000    2.230000
        zeta-weighting                 0.500000
      * Dispersion:
        s8                             2.700000
        a1                             0.520000
        a2                             5.000000
        s9                             5.000000
      * Repulsion:
        kExp                           1.500000    1.000000
        rExp                           1.000000
      * Coulomb:
        alpha                          2.000000
        third order                    shell-resolved
        anisotropic                    true
        a3                             3.000000
        a5                             4.000000
        cn-shift                       1.200000
        cn-exp                         4.000000
        max-rad                        5.000000


          ...................................................
          :                      SETUP                      :
          :.................................................:
          :  # basis functions                  36          :
          :  # atomic orbitals                  35          :
          :  # shells                           19          :
          :  # electrons                        38          :
          :  max. iterations                   250          :
          :  Hamiltonian                  GFN2-xTB          :
          :  restarted?                      false          :
          :  GBSA solvation                  false          :
          :  PC potential                    false          :
          :  electronic temp.          300.0000000     K    :
          :  accuracy                    1.0000000          :
          :  -> integral cutoff          0.2500000E+02      :
          :  -> integral neglect         0.1000000E-07      :
          :  -> SCF convergence          0.1000000E-05 Eh   :
          :  -> wf. convergence          0.1000000E-03 e    :
          :  Broyden damping             0.4000000          :
          :  net charge                          0          :
          :  unpaired electrons                  0          :
          ...................................................

 iter      E             dE          RMSdq      gap      omega  full diag
   1    -22.8982491 -0.228982E+02  0.706E+00    7.75       0.0  T
   2    -22.9218645 -0.236155E-01  0.398E+00    7.45       1.0  T
   3    -22.9247361 -0.287153E-02  0.120E+00    7.33       1.0  T
   4    -22.9265448 -0.180876E-02  0.541E-01    7.27       1.0  T
   5    -22.9268815 -0.336636E-03  0.205E-01    7.27       1.0  T
   6    -22.9269507 -0.692419E-04  0.104E-01    7.26       1.0  T
   7    -22.9269728 -0.221116E-04  0.223E-02    7.25       1.3  T
   8    -22.9269739 -0.111473E-05  0.715E-03    7.25       4.0  T
   9    -22.9269739 -0.112884E-07  0.217E-03    7.25      13.3  T
  10    -22.9269739 -0.530589E-08  0.730E-04    7.25      39.6  T
  11    -22.9269739 -0.786695E-09  0.134E-04    7.25     215.6  T

   *** convergence criteria satisfied after 11 iterations ***

         #    Occupation            Energy/Eh            Energy/eV
      -------------------------------------------------------------
         1        2.0000           -0.7922265             -21.5576
       ...           ...                  ...                  ...
        13        2.0000           -0.5101210             -13.8811
        14        2.0000           -0.4959762             -13.4962
        15        2.0000           -0.4637563             -12.6195
        16        2.0000           -0.4549927             -12.3810
        17        2.0000           -0.4544335             -12.3658
        18        2.0000           -0.4438966             -12.0790
        19        2.0000           -0.4436287             -12.0718 (HOMO)
        20                         -0.1771547              -4.8206 (LUMO)
        21                         -0.1328657              -3.6155
        22                         -0.0900034              -2.4491
        23                         -0.0398096              -1.0833
        24                          0.0292213               0.7952
       ...                                ...                  ...
        35                          1.0761770              29.2843
      -------------------------------------------------------------
                  HL-Gap            0.2664740 Eh            7.2511 eV
             Fermi-level           -0.3103917 Eh           -8.4462 eV

 SCC (total)                   0 d,  0 h,  0 min,  0.035 sec
 SCC setup                      ...        0 min,  0.000 sec (  0.596%)
 Dispersion                     ...        0 min,  0.000 sec (  0.220%)
 classical contributions        ...        0 min,  0.000 sec (  0.100%)
 integral evaluation            ...        0 min,  0.030 sec ( 84.193%)
 iterations                     ...        0 min,  0.003 sec (  8.371%)
 molecular gradient             ...        0 min,  0.002 sec (  6.209%)
 printout                       ...        0 min,  0.000 sec (  0.259%)

         :::::::::::::::::::::::::::::::::::::::::::::::::::::
         ::                     SUMMARY                     ::
         :::::::::::::::::::::::::::::::::::::::::::::::::::::
         :: total energy             -22.774643892790 Eh    ::
         :: gradient norm              0.063288736851 Eh/a0 ::
         :: HOMO-LUMO gap              7.251127308841 eV    ::
         ::.................................................::
         :: SCC energy               -22.926965621577 Eh    ::
         :: -> isotropic ES            0.071892298431 Eh    ::
         :: -> anisotropic ES         -0.005721895905 Eh    ::
         :: -> anisotropic XC          0.003850562373 Eh    ::
         :: -> dispersion             -0.007749188971 Eh    ::
         :: repulsion energy           0.152321728787 Eh    ::
         :: add. restraining           0.000000000000 Eh    ::
         :: total charge               0.000000000000 e     ::
         :::::::::::::::::::::::::::::::::::::::::::::::::::::

metadynamics with 1 initial structures loaded
           -------------------------------------------------
          |           Optimal kpush determination           |
           -------------------------------------------------
      ----------------------------------------------------------- 
     |                   =====================                   |
     |                        A N C O P T                        |
     |                   =====================                   |
     |               Approximate Normal Coordinate               |
     |                Rational Function Optimizer                |
      ----------------------------------------------------------- 
target rmsd / Å         0.100000
unbiased initial rmsd   0.468793
 
iter. min.        max.        rmsd       kpush
      ----------------------------------------------------------- 
     |                   =====================                   |
     |                        A N C O P T                        |
     |                   =====================                   |
     |               Approximate Normal Coordinate               |
     |                Rational Function Optimizer                |
      ----------------------------------------------------------- 
 1    0.000000    0.545455    0.021898   -0.272727
      ----------------------------------------------------------- 
     |                   =====================                   |
     |                        A N C O P T                        |
     |                   =====================                   |
     |               Approximate Normal Coordinate               |
     |                Rational Function Optimizer                |
      ----------------------------------------------------------- 
 2    0.000000    0.272727    0.025711   -0.136364
      ----------------------------------------------------------- 
     |                   =====================                   |
     |                        A N C O P T                        |
     |                   =====================                   |
     |               Approximate Normal Coordinate               |
     |                Rational Function Optimizer                |
      ----------------------------------------------------------- 
 3    0.000000    0.136364    0.030529   -0.068182
      ----------------------------------------------------------- 
     |                   =====================                   |
     |                        A N C O P T                        |
     |                   =====================                   |
     |               Approximate Normal Coordinate               |
     |                Rational Function Optimizer                |
      ----------------------------------------------------------- 
 4    0.000000    0.068182    0.035723   -0.034091
      ----------------------------------------------------------- 
     |                   =====================                   |
     |                        A N C O P T                        |
     |                   =====================                   |
     |               Approximate Normal Coordinate               |
     |                Rational Function Optimizer                |
      ----------------------------------------------------------- 
 5    0.000000    0.034091    0.040251   -0.017045
      ----------------------------------------------------------- 
     |                   =====================                   |
     |                        A N C O P T                        |
     |                   =====================                   |
     |               Approximate Normal Coordinate               |
     |                Rational Function Optimizer                |
      ----------------------------------------------------------- 
 6    0.000000    0.017045    0.043496   -0.008523
      ----------------------------------------------------------- 
     |                   =====================                   |
     |                        A N C O P T                        |
     |                   =====================                   |
     |               Approximate Normal Coordinate               |
     |                Rational Function Optimizer                |
      ----------------------------------------------------------- 
 7    0.000000    0.008523    0.045500   -0.004261
      ----------------------------------------------------------- 
     |                   =====================                   |
     |                        A N C O P T                        |
     |                   =====================                   |
     |               Approximate Normal Coordinate               |
     |                Rational Function Optimizer                |
      ----------------------------------------------------------- 
 8    0.000000    0.004261    0.163290   -0.002131
      ----------------------------------------------------------- 
     |                   =====================                   |
     |                        A N C O P T                        |
     |                   =====================                   |
     |               Approximate Normal Coordinate               |
     |                Rational Function Optimizer                |
      ----------------------------------------------------------- 
 9    0.002131    0.004261    0.046051   -0.003196
      ----------------------------------------------------------- 
     |                   =====================                   |
     |                        A N C O P T                        |
     |                   =====================                   |
     |               Approximate Normal Coordinate               |
     |                Rational Function Optimizer                |
      ----------------------------------------------------------- 
10    0.002131    0.003196    0.071054   -0.002663
final kpush: -0.002663
           -------------------------------------------------
          |            Biased Numerical Hessian             |
           -------------------------------------------------
kpush                :  -0.00266
alpha                :   1.00000
step length          :   0.00500
SCC accuracy         :   0.30000
Hessian scale factor :   1.00000
frozen atoms in %    :   0.00000    0
RMS gradient         :   0.00003
estimated CPU  time      0.01 min
estimated wall time      0.01 min

writing file <hessian>.

 projected vibrational frequencies (cm⁻¹)
eigval :       -0.00    -0.00    -0.00    -0.00     0.00     0.00
eigval :      -30.06    67.69   119.14   181.75   283.55   295.24
eigval :      419.81   460.43   493.27   666.12   723.88   846.59
eigval :      856.83  1054.43  1123.38  1127.14  1135.54  1262.02
eigval :     1280.57  1380.54  1415.56  1418.26  1444.08  1470.96
eigval :     2961.38  2967.11  3008.32  3073.08  3095.82  3098.45
           -------------------------------------------------
          |                Property Printout                |
           -------------------------------------------------

    * Orbital Energies and Occupations

         #    Occupation            Energy/Eh            Energy/eV
      -------------------------------------------------------------
         1        2.0000           -0.7927380             -21.5715
       ...           ...                  ...                  ...
         7        2.0000           -0.5786613             -15.7462
         8        2.0000           -0.5669533             -15.4276
         9        2.0000           -0.5654405             -15.3864
        10        2.0000           -0.5349167             -14.5558
        11        2.0000           -0.5279862             -14.3672
        12        2.0000           -0.5181135             -14.0986
        13        2.0000           -0.5106701             -13.8960
        14        2.0000           -0.4971159             -13.5272
        15        2.0000           -0.4648844             -12.6501
        16        2.0000           -0.4566263             -12.4254
        17        2.0000           -0.4541162             -12.3571
        18        2.0000           -0.4445826             -12.0977
        19        2.0000           -0.4438077             -12.0766 (HOMO)
        20                         -0.1433312              -3.9002 (LUMO)
        21                         -0.1134560              -3.0873
        22                         -0.0657698              -1.7897
        23                         -0.0283723              -0.7721
        24                          0.0720121               1.9595
        25                          0.1149021               3.1266
        26                          0.1245461               3.3891
        27                          0.1513771               4.1192
        28                          0.1675652               4.5597
        29                          0.1945201               5.2932
        30                          0.2134879               5.8093
       ...                                ...                  ...
        35                          1.2565794              34.1933
      -------------------------------------------------------------
                  HL-Gap            0.3004765 Eh            8.1764 eV
             Fermi-level           -0.2935695 Eh           -7.9884 eV

     #   Z          covCN         q      C6AA      α(0)
     1   6 C        3.846     0.032    20.013     6.363
     2   8 O        1.707    -0.426    21.341     6.237
     3  16 S        3.771     1.291    98.698    16.721
     4   8 O        0.860    -0.587    25.795     6.809
     5   8 O        0.860    -0.587    25.795     6.809
     6   6 C        3.747    -0.231    25.188     7.158
     7   1 H        0.924     0.062     2.179     2.308
     8   1 H        0.925     0.079     1.988     2.205
     9   1 H        0.924     0.062     2.182     2.310
    10   1 H        0.926     0.102     1.765     2.077
    11   1 H        0.926     0.102     1.769     2.080
    12   1 H        0.926     0.101     1.771     2.081

 Mol. C6AA /au·bohr⁶  :       1793.661317
 Mol. C8AA /au·bohr⁸  :      46191.485968
 Mol. α(0) /au        :         63.159942


Wiberg/Mayer (AO) data.
largest (>0.10) Wiberg bond orders for each atom

 ---------------------------------------------------------------------------
     #   Z sym  total        # sym  WBO       # sym  WBO       # sym  WBO
 ---------------------------------------------------------------------------
     1   6 C    3.916 --     9 H    0.979     7 H    0.979     8 H    0.977
                             2 O    0.952
     2   8 O    2.113 --     1 C    0.952     3 S    0.922
     3  16 S    4.898 --     5 O    1.583     4 O    1.583     2 O    0.922
                             6 C    0.762
     4   8 O    1.895 --     3 S    1.583     5 O    0.122     6 C    0.103
     5   8 O    1.896 --     3 S    1.583     4 O    0.122     6 C    0.103
     6   6 C    3.971 --    12 H    0.980    11 H    0.979    10 H    0.977
                             3 S    0.762     4 O    0.103     5 O    0.103
     7   1 H    0.996 --     1 C    0.979
     8   1 H    0.994 --     1 C    0.977
     9   1 H    0.996 --     1 C    0.979
    10   1 H    0.990 --     6 C    0.977
    11   1 H    0.990 --     6 C    0.979
    12   1 H    0.990 --     6 C    0.980
 ---------------------------------------------------------------------------

Topologies differ in total number of bonds
Writing topology from bond orders to xtbtopo.mol

molecular dipole:
                 x           y           z       tot (Debye)
 q only:       -0.312      -1.139       0.415
   full:       -0.413      -1.265       0.481       3.596
molecular quadrupole (traceless):
                xx          xy          yy          xz          yz          zz
 q only:        4.676      -7.725       1.728      -1.531       0.133      -6.404
  q+dip:        4.384      -6.938       1.375      -1.432       0.176      -5.759
   full:        4.858      -7.769       1.746      -1.655       0.080      -6.604

           -------------------------------------------------
          |                Geometry Summary                 |
           -------------------------------------------------

      molecular mass/u    :      110.1321185
   center of mass at/Å    :       -0.0014702      -0.0020408      -0.0098264
  moments of inertia/u·Å² :        0.1110171E+03   0.1910834E+03   0.2001076E+03
rotational constants/cm⁻¹ :        0.1518472E+00   0.8822134E-01   0.8424284E-01

 * 11 selected distances

     #   Z          #   Z                                           value/Å
     1   6 C        2   8 O                                       1.4147245
     2   8 O        3  16 S                                       1.6222601
     3  16 S        4   8 O                                       1.4292481
     3  16 S        5   8 O                                       1.4291959
     3  16 S        6   6 C                                       1.7979873 (max)
     1   6 C        7   1 H                                       1.0922626
     1   6 C        8   1 H                                       1.0886191
     1   6 C        9   1 H                                       1.0923058
     6   6 C       10   1 H                                       1.0806265 (min)
     6   6 C       11   1 H                                       1.0813505
     6   6 C       12   1 H                                       1.0810523

 * 4 distinct bonds (by element types)

   Z      Z             #   av. dist./Å        max./Å        min./Å
   1 H    6 C           6     1.0860361     1.0923058     1.0806265
   6 C    8 O           1     1.4147245     1.4147245     1.4147245
   6 C   16 S           1     1.7979873     1.7979873     1.7979873
   8 O   16 S           3     1.4935680     1.6222601     1.4291959

           -------------------------------------------------
          |               Frequency Printout                |
           -------------------------------------------------
 projected vibrational frequencies (cm⁻¹)
eigval :       -0.00    -0.00    -0.00    -0.00     0.00     0.00
eigval :      -30.06    67.69   119.14   181.75   283.55   295.24
eigval :      419.81   460.43   493.27   666.12   723.88   846.59
eigval :      856.83  1054.43  1123.38  1127.14  1135.54  1262.02
eigval :     1280.57  1380.54  1415.56  1418.26  1444.08  1470.96
eigval :     2961.38  2967.11  3008.32  3073.08  3095.82  3098.45
 reduced masses (amu)
   1: 11.87   2: 18.70   3: 15.46   4: 14.46   5: 16.90   6: 17.04   7:  1.41   8: 11.90
   9:  1.38  10: 11.22  11: 12.88  12: 11.54  13: 17.60  14: 17.66  15: 17.20  16: 17.56
  17: 18.12  18:  5.81  19:  3.99  20: 13.19  21:  9.21  22:  3.79  23: 15.48  24:  3.68
  25: 23.05  26:  2.43  27:  1.68  28:  1.67  29:  1.54  30:  1.60  31:  1.96  32:  1.39
  33:  1.78  34:  1.21  35:  2.02  36:  2.02
 IR intensities (km·mol⁻¹)
   1:  0.84   2:  0.13   3:  0.98   4:  2.25   5:  3.12   6:  0.36   7:  0.16   8:  6.62
   9:  0.30  10: 12.78  11:  0.22  12: 13.01  13: 45.33  14: 60.03  15:127.69  16:196.33
  17:169.15  18:118.98  19: 13.30  20:136.87  21: 53.95  22:  6.05  23:281.80  24: 67.93
  25:535.57  26:  3.00  27: 12.66  28: 14.90  29:  6.72  30:  8.16  31: 14.47  32: 18.12
  33: 10.10  34:  0.71  35:  0.16  36:  0.10
 Raman intensities (Ä⁴*amu⁻¹)
   1:  0.00   2:  0.00   3:  0.00   4:  0.00   5:  0.00   6:  0.00   7:  0.00   8:  0.00
   9:  0.00  10:  0.00  11:  0.00  12:  0.00  13:  0.00  14:  0.00  15:  0.00  16:  0.00
  17:  0.00  18:  0.00  19:  0.00  20:  0.00  21:  0.00  22:  0.00  23:  0.00  24:  0.00
  25:  0.00  26:  0.00  27:  0.00  28:  0.00  29:  0.00  30:  0.00  31:  0.00  32:  0.00
  33:  0.00  34:  0.00  35:  0.00  36:  0.00
 output can be read by thermo (or use thermo option).
 writing <g98.out> molden fake output.
 recommended (thermochemical) frequency scaling factor: 1.0
           -------------------------------------------------
          |             Thermodynamic Functions             |
           -------------------------------------------------

Molecule has no symmetry elements
It seems to be the C1 point group
c1  symmetry found (for desy threshold:  0.10E+00) used in thermo
 inverting freq            1   30.0623192173068     

          ...................................................
          :                      SETUP                      :
          :.................................................:
          :  # frequencies                          30      :
          :  # imaginary freq.                       0      :
          :  linear?                             false      :
          :  only rotor calc.                    false      :
          :  symmetry                               c1      :
          :  rotational number                       1      :
          :  scaling factor                  1.0000000      :
          :  rotor cutoff                    0.0000000 cm⁻¹ :
          :  imag. cutoff                 -100.0000000 cm⁻¹ :
          :.................................................:

    mode    ω/cm⁻¹     T·S(HO)/kcal·mol⁻¹    T·S(FR)/kcal·mol⁻¹   T·S(vib)
   ------------------------------------------------------------------------
       1     30.06    -1.73681 (100.00%)    -1.20627 (  0.00%)    -1.73681
       2     67.69    -1.25803 (100.00%)    -0.96638 (  0.00%)    -1.25803
       3    119.14    -0.92851 (100.00%)    -0.79908 (  0.00%)    -0.92851
       4    181.75    -0.68882 (100.00%)    -0.67405 (  0.00%)    -0.68882
       5    283.55    -0.45085 (100.00%)    -0.54236 (  0.00%)    -0.45085
       6    295.24    -0.43045 (100.00%)    -0.53039 (  0.00%)    -0.43045
   ------------------------------------------------------------------------

   temp. (K)  partition function   enthalpy   heat capacity  entropy
                                   cal/mol     cal/K/mol   cal/K/mol   J/K/mol
 298.15  VIB   299.                 3214.008     19.891     22.109
         ROT  0.157E+06              888.752      2.981     26.761
         INT  0.471E+08             4102.761     22.871     48.870
         TR   0.112E+28             1481.254      4.968     39.988
         TOT                        5584.0147    27.8396    88.8579   371.7815

       T/K    H(0)-H(T)+PV         H(T)/Eh          T*S/Eh         G(T)/Eh
   ------------------------------------------------------------------------
    298.15    0.889869E-02    0.949246E-01    0.422193E-01    0.527053E-01
   ------------------------------------------------------------------------

         :::::::::::::::::::::::::::::::::::::::::::::::::::::
         ::                  THERMODYNAMIC                  ::
         :::::::::::::::::::::::::::::::::::::::::::::::::::::
         :: total free energy         -22.729319037432 Eh   ::
         ::.................................................::
         :: total energy              -22.782024348609 Eh   ::
         :: zero point energy           0.086025881485 Eh   ::
         :: G(RRHO) w/o ZPVE           -0.033320570308 Eh   ::
         :: G(RRHO) contrib.            0.052705311176 Eh   ::
         :::::::::::::::::::::::::::::::::::::::::::::::::::::
imag cut-off (cm-1) :    5.00
 found            1  significant imaginary frequency
 writing imag mode distorted coords to xtbhess.coord
 for further optimization.

optimized geometry written to: xtbopt.coord


           -------------------------------------------------
          | TOTAL ENERGY              -22.782024348609 Eh   |
          | TOTAL ENTHALPY            -22.687099773229 Eh   |
          | TOTAL FREE ENERGY         -22.729319037432 Eh   |
          | GRADIENT NORM               0.000030336898 Eh/α |
          | HOMO-LUMO GAP               8.176383083772 eV   |
           -------------------------------------------------

------------------------------------------------------------------------
 * finished run on 2025/04/16 at 10:17:41.874     
------------------------------------------------------------------------
 total:
 * wall-time:     0 d,  0 h,  0 min,  1.292 sec
 *  cpu-time:     0 d,  0 h,  0 min,  1.239 sec
 * ratio c/w:     0.959 speedup
 SCF:
 * wall-time:     0 d,  0 h,  0 min,  0.035 sec
 *  cpu-time:     0 d,  0 h,  0 min,  0.013 sec
 * ratio c/w:     0.369 speedup
 analytical hessian:
 * wall-time:     0 d,  0 h,  0 min,  0.311 sec
 *  cpu-time:     0 d,  0 h,  0 min,  0.310 sec
 * ratio c/w:     0.996 speedup

