
                                 *****************
                                 * O   R   C   A *
                                 *****************

                                            #,                                       
                                            ###                                      
                                            ####                                     
                                            #####                                    
                                            ######                                   
                                           ########,                                 
                                     ,,################,,,,,                         
                               ,,#################################,,                 
                          ,,##########################################,,             
                       ,#########################################, ''#####,          
                    ,#############################################,,   '####,        
                  ,##################################################,,,,####,       
                ,###########''''           ''''###############################       
              ,#####''   ,,,,##########,,,,          '''####'''          '####       
            ,##' ,,,,###########################,,,                        '##       
           ' ,,###''''                  '''############,,,                           
         ,,##''                                '''############,,,,        ,,,,,,###''
      ,#''                                            '''#######################'''  
     '                                                          ''''####''''         
             ,#######,   #######,   ,#######,      ##                                
            ,#'     '#,  ##    ##  ,#'     '#,    #''#        ,####,   ,####,        
            ##       ##  ##   ,#'  ##            #'  '#       #'       #'  '#        
            ##       ##  #######   ##           ,######,      #####,   #    #        
            '#,     ,#'  ##    ##  '#,     ,#' ,#      #,     #,   #   #,  ,#        
             '#######'   ##     ##  '#######'  #'      '#     '####' # '####'        



                #########################################################
                #                        -***-                          #
                #          Department of theory and spectroscopy        #
                #                                                       #
                #                      Frank Neese                      #
                #                                                       #
                #     Directorship, Architecture, Infrastructure        #
                #                    SHARK, DRIVERS                     #
                #        Core code/Algorithms in most modules           #
                #                                                       #
                #        Max Planck Institute fuer Kohlenforschung      #
                #                Kaiser Wilhelm Platz 1                 #
                #                 D-45470 Muelheim/Ruhr                 #
                #                      Germany                          #
                #                                                       #
                #                  All rights reserved                  #
                #                        -***-                          #
                #########################################################


                         Program Version 6.0.1  -  RELEASE   -


 With contributions from (in alphabetic order):
[Max-Planck-Institut fuer Kohlenforschung]                               
  Daniel Aravena         : Magnetic Suceptibility                        
  Michael Atanasov       : Ab Initio Ligand Field Theory (pilot matlab implementation)
  Alexander A. Auer      : GIAO ZORA, VPT2 properties, NMR spectrum      
  Ute Becker             : All parallelization in ORCA, NUMFREQ, NUMCALC 
  Giovanni Bistoni       : ED, misc. LED, open-shell LED, HFLD           
  Martin Brehm           : Molecular dynamics                            
  Dmytro Bykov           : pre 5.0 version of the SCF Hessian            
  Marcos Casanova-Páez   : Triplet and SCS-CIS(D). UHF-(DLPNO)-IP/EA/STEOM-CCSD. UHF-CVS-IP/STEOM-CCSD   
  Vijay G. Chilkuri      : MRCI spin determinant printing, contributions to CSF-ICE 
  Pauline Colinet        : FMM embedding                                 
  Dipayan Datta          : RHF DLPNO-CCSD density                        
  Achintya Kumar Dutta   : EOM-CC, STEOM-CC                              
  Nicolas Foglia         : Exact transition moments, OPA infrastructure, MCD improvements    
  Dmitry Ganyushin       : Spin-Orbit,Spin-Spin,Magnetic field MRCI      
  Miquel Garcia-Rates    : C-PCM and meta-GGA Hessian, CCSD/C-PCM, Gaussian charge scheme 
  Tiago L. C. Gouveia    : GS-ROHF, GS-ROCIS                             
  Yang Guo               : DLPNO-NEVPT2, F12-NEVPT2, CIM, IAO-localization        
  Andreas Hansen         : Spin unrestricted coupled pair/coupled cluster methods 
  Ingolf Harden          : AUTO-CI MPn and infrastructure                
  Benjamin Helmich-Paris : MC-RPA, TRAH-(SCF,CASSCF), AVAS, COSX integrals, SCF dyn. polar. 
  Lee Huntington         : MR-EOM, pCC                                   
  Robert Izsak           : Overlap fitted RIJCOSX, COSX-SCS-MP3, EOM     
  Riya Kayal             : Wick's Theorem for AUTO-CI, AUTO-CI UHF-CCSDT 
  Emily Kempfer          : AUTO-CI, RHF CISDT and CCSDT                  
  Christian Kollmar      : KDIIS, OOCD, Brueckner-CCSD(T), CCSD density, CASPT2, CASPT2-K, improved NEVPT2 
  Axel Koslowski         : Symmetry handling                             
  Simone Kossmann        : meta-GGA functionals, TD-DFT gradient, OOMP2, (MP2 Hessian; deprecated post 5.0) 
  Lucas Lang             : DCDCAS                                        
  Marvin Lechner         : AUTO-CI (C++ implementation), FIC-MRCC        
  Spencer Leger          : CASSCF response                               
  Dagmar Lenk            : GEPOL surface, SMD, ORCA-2-JSON               
  Dimitrios Liakos       : Extrapolation schemes; Compound Job, initial MDCI parallelization 
  Dimitrios Manganas     : Further ROCIS development; embedding schemes. LFT, Crystal Embedding 
  Dimitrios Pantazis     : SARC Basis sets                               
  Anastasios Papadopoulos: AUTO-CI, single reference methods and gradients 
  Taras Petrenko         : pre 6.0 DFT Hessian and TD-DFT gradient, (ASA, deprecated), ECA, 1-Electron XAS/XES, NRVS 
  Peter Pinski           : DLPNO-MP2, DLPNO-MP2 Gradient                 
  Christoph Reimann      : Effective Core Potentials                     
  Marius Retegan         : Local ZFS, SOC                                
  Christoph Riplinger    : Optimizer, TS searches, QM/MM, DLPNO-CCSD(T), (RO)-DLPNO pert. Triples 
  Michael Roemelt        : Original ROCIS implementation                 
  Masaaki Saitow         : Open-shell DLPNO-CCSD energy and density      
  Barbara Sandhoefer     : DKH picture change effects                    
  Kantharuban Sivalingam : CASSCF convergence/infrastructure, NEVPT2 and variants, FIC-MRCI 
  Bernardo de Souza      : ESD, SOC TD-DFT                               
  Georgi L. Stoychev     : AutoAux, RI-MP2 NMR, DLPNO-MP2 response, X2C  
  Van Anh Tran           : RI-MP2 g-tensors                              
  Willem Van den Heuvel  : Paramagnetic NMR                              
  Zikuan Wang            : NOTCH, Electric field optimization            
  Frank Wennmohs         : Technical directorship and infrastructure     
  Hang Xu                : AUTO-CI-Response properties                   
                                                                         
[FACCTs GmbH]                                                            
  Markus Bursch, Miquel Garcia-Rates, Christoph Riplinger, Bernardo de Souza, Georgi L. Stoychev 
                                                                 
  APM, Basis sets (HGBS, AHGBS, def-TZVP (Ac-Lr), def2-XVPD (La-Lu)), CI-OPT, improved COSX, DLPNO-Multilevel,           
  DOCKER, DRACO, updates on ESD, GOAT, IRC, LR-CPCM, MBIS, meta-GGA TD-DFT gradient, ML-optimized integration grids, 
  MM, NACMEs, nearIR, NEB, NEB-TS, NL-DFT gradient (VV10), 2- and 3-layer-ONIOM, interface openCOSMO-RS, QMMM,   
  Crystal-QMMM, SF, symmetry and pop. for TD-DFT, r2SCAN hybrids, SOLVATOR                                   
                                                                         
[Other institutions]                                                     
  V. Asgeirsson          : NEB                                           
  Christoph Bannwarth    : sTDA-DFT, sTD-DFT, PBEh-3c, B97-3c, D3        
  Sebastian Ehlert       : rSCAN, r2SCAN, r2SCAN-3c, D4, dhf basis sets  
  Marvin Friede          : D4 for Fr, Ra, Ac-Lr                          
  Lars Goerigk           : TD-DFT with DH, B97 family of functionals     
  Stefan Grimme          : VdW corrections, initial TS optimization, DFT functionals, gCP, sTDA/sTD-DF 
  Waldemar Hujo          : DFT-NL                                        
  H. Jonsson             : NEB                                           
  Holger Kruse           : gCP                                           
  Marcel Mueller         : wB97X-3c, vDZP basis set                      
  Hagen Neugebauer       : wr2SCAN                                       
  Tobias Risthaus        : range-separated hybrid DFT                    
  Lukas Wittmann         : regularized MP2, r2SCAN double-hybrids, wr2SCAN        
                                                                         
We gratefully acknowledge several colleagues who have allowed us to      
interface, adapt or use parts of their codes:                            
  Ed Valeev, F. Pavosevic, A. Kumar             : LibInt (2-el integral package), F12 methods 
  Garnet Chan, S. Sharma, J. Yang, R. Olivares  : DMRG                   
  Ulf Ekstrom                                   : XCFun DFT Library      
  Mihaly Kallay                                 : mrcc  (arbitrary order and MRCC methods)
  Frank Weinhold                                : gennbo (NPA and NBO analysis)           
  Simon Mueller                                 : openCOSMO-RS                            
  Christopher J. Cramer and Donald G. Truhlar   : smd solvation model                     
  S Lehtola, MJT Oliveira, MAL Marques          : LibXC Library                           
  Liviu Ungur et al                             : ANISO software                          


 Your calculation uses the libint2 library for the computation of 2-el integrals
 For citations please refer to: http://libint.valeyev.net

 Your ORCA version has been built with support for libXC version: 6.2.2
 For citations please refer to: https://libxc.gitlab.io

 This ORCA versions uses:
   CBLAS   interface :  Fast vector & matrix operations
   LAPACKE interface :  Fast linear algebra routines
   SCALAPACK package :  Parallel linear algebra routines
   Shared memory     :  Shared parallel matrices
   BLAS/LAPACK       :  OpenBLAS 0.3.27  USE64BITINT DYNAMIC_ARCH NO_AFFINITY Zen SINGLE_THREADED
        Core in use  :  Zen
   Copyright (c) 2011-2014, The OpenBLAS Project


Your calculation utilizes the geometrical counterpoise correction gCP
Please cite in your paper:
H.Kruse, S. Grimme J.Chem.Phys., 136, (2012), 154101 
   

Your calculation utilizes the atom-pairwise dispersion correction
based on EEQ partial charges (D4)


================================================================================

----- Orbital basis set information -----
Your calculation utilizes the basis: def2-mTZVPP
   Stefan Grimme, Andreas Hansen, Sebastian Ehlert, and Jan-Michael Mewes 
   J. Chem. Phys. 154, 064103 (2021). DOI: 10.1063/5.0040021

----- AuxJ basis set information -----
Your calculation utilizes the auxiliary basis: def2/J
   F. Weigend, Phys. Chem. Chem. Phys. 8, 1057 (2006).

================================================================================
                                        WARNINGS
                       Please study these warnings very carefully!
================================================================================



WARNING: SCAN, rSCAN, or r2SCAN functional requested.
  ===> : libXC variant has now been activated.



================================================================================
                                       INPUT FILE
================================================================================
NAME = sp.inp
|  1> ! r2scan-3c def2/J RI DEFGRID2 scfconv6 printgap
|  2> %output
|  3>     printlevel normal
|  4> end
|  5> * xyz 0 1
|  6> C -2.0804975113 0.0097662043 -0.1316093819
|  7> C -0.7652156771 0.6376857033 0.3150684385
|  8> C 0.4700103235 0.0010532654 -0.3316375751
|  9> C 1.7123508806 0.8294476247 -0.007680214
| 10> C 0.6730582347 -1.4393798085 0.1321915769
| 11> H -2.9205466553 0.5572351723 0.2903696176
| 12> H -2.1543765561 -1.0240667643 0.1951893922
| 13> H -2.1658849123 0.0353746173 -1.2160907425
| 14> H -0.7815427473 1.6999786398 0.0586139714
| 15> H -0.6778318097 0.5630394916 1.4016430932
| 16> H 0.3280090191 0.0002793609 -1.4186778308
| 17> H 2.5933669737 0.3995007891 -0.4790289296
| 18> H 1.8782069497 0.8570464902 1.0674495066
| 19> H 1.5987786087 1.85136556 -0.3630213067
| 20> H 0.7719565632 -1.4773587258 1.2152971879
| 21> H 1.5772705391 -1.8538001898 -0.3085710902
| 22> H -0.1630739695 -2.0682632307 -0.161134765
| 23> *
| 24> 
| 25>                          ****END OF INPUT****
================================================================================

                       ****************************
                       * Single Point Calculation *
                       ****************************

---------------------------------
CARTESIAN COORDINATES (ANGSTROEM)
---------------------------------
  C     -2.080498    0.009766   -0.131609
  C     -0.765216    0.637686    0.315068
  C      0.470010    0.001053   -0.331638
  C      1.712351    0.829448   -0.007680
  C      0.673058   -1.439380    0.132192
  H     -2.920547    0.557235    0.290370
  H     -2.154377   -1.024067    0.195189
  H     -2.165885    0.035375   -1.216091
  H     -0.781543    1.699979    0.058614
  H     -0.677832    0.563039    1.401643
  H      0.328009    0.000279   -1.418678
  H      2.593367    0.399501   -0.479029
  H      1.878207    0.857046    1.067450
  H      1.598779    1.851366   -0.363021
  H      0.771957   -1.477359    1.215297
  H      1.577271   -1.853800   -0.308571
  H     -0.163074   -2.068263   -0.161135

----------------------------
CARTESIAN COORDINATES (A.U.)
----------------------------
  NO LB      ZA    FRAG     MASS         X           Y           Z
   0 C     6.0000    0    12.011   -3.931571    0.018455   -0.248706
   1 C     6.0000    0    12.011   -1.446048    1.205051    0.595393
   2 C     6.0000    0    12.011    0.888191    0.001990   -0.626704
   3 C     6.0000    0    12.011    3.235874    1.567429   -0.014514
   4 C     6.0000    0    12.011    1.271896   -2.720034    0.249806
   5 H     1.0000    0     1.008   -5.519033    1.053022    0.548719
   6 H     1.0000    0     1.008   -4.071182   -1.935206    0.368854
   7 H     1.0000    0     1.008   -4.092929    0.066848   -2.298078
   8 H     1.0000    0     1.008   -1.476902    3.212494    0.110764
   9 H     1.0000    0     1.008   -1.280916    1.063990    2.648722
  10 H     1.0000    0     1.008    0.619847    0.000528   -2.680913
  11 H     1.0000    0     1.008    4.900753    0.754947   -0.905233
  12 H     1.0000    0     1.008    3.549297    1.619583    2.017187
  13 H     1.0000    0     1.008    3.021254    3.498574   -0.686011
  14 H     1.0000    0     1.008    1.458786   -2.791803    2.296579
  15 H     1.0000    0     1.008    2.980609   -3.503175   -0.583115
  16 H     1.0000    0     1.008   -0.308165   -3.908451   -0.304501

--------------------------------
INTERNAL COORDINATES (ANGSTROEM)
--------------------------------
 C      0   0   0     0.000000000000     0.00000000     0.00000000
 C      1   0   0     1.524391772425     0.00000000     0.00000000
 C      2   1   0     1.532746815874   113.61683306     0.00000000
 C      3   2   1     1.527938364643   109.91389650   170.87070729
 C      3   2   1     1.526831155326   111.76792461   293.06861483
 H      1   2   3     1.087874584351   110.20081080   184.96971694
 H      1   2   3     1.086768677768   111.24721077    65.16705511
 H      1   2   3     1.088139063059   110.49025265   304.62943675
 H      2   1   3     1.092932637382   108.58558343   120.78006406
 H      2   1   3     1.092635564788   109.40591807   237.85012904
 H      3   2   1     1.096276190972   108.31718924    52.58323877
 H      4   3   2     1.087756061551   110.63279045   181.21026468
 H      4   3   2     1.088197523041   110.31319743    61.34603429
 H      4   3   2     1.087879689853   110.80283190   301.36432349
 H      5   3   2     1.088274341386   110.32540678   301.96241327
 H      5   3   2     1.087941116318   110.29297683   182.33101005
 H      5   3   2     1.086578006620   111.20346220    62.48659881

---------------------------
INTERNAL COORDINATES (A.U.)
---------------------------
 C      0   0   0     0.000000000000     0.00000000     0.00000000
 C      1   0   0     2.880682970687     0.00000000     0.00000000
 C      2   1   0     2.896471714641   113.61683306     0.00000000
 C      3   2   1     2.887385058686   109.91389650   170.87070729
 C      3   2   1     2.885292736304   111.76792461   293.06861483
 H      1   2   3     2.055785032477   110.20081080   184.96971694
 H      1   2   3     2.053695171906   111.24721077    65.16705511
 H      1   2   3     2.056284824803   110.49025265   304.62943675
 H      2   1   3     2.065343367476   108.58558343   120.78006406
 H      2   1   3     2.064781981631   109.40591807   237.85012904
 H      3   2   1     2.071661768075   108.31718924    52.58323877
 H      4   3   2     2.055561056845   110.63279045   181.21026468
 H      4   3   2     2.056395298158   110.31319743    61.34603429
 H      4   3   2     2.055794680476   110.80283190   301.36432349
 H      5   3   2     2.056540463793   110.32540678   301.96241327
 H      5   3   2     2.055910759673   110.29297683   182.33101005
 H      5   3   2     2.053334855654   111.20346220    62.48659881

---------------------
BASIS SET INFORMATION
---------------------
There are 2 groups of distinct atoms

 Group   1 Type C   : 11s6p1d contracted to 5s3p1d pattern {62111/411/1}
 Group   2 Type H   : 4s1p contracted to 2s1p pattern {31/1}

Atom   0C    basis set group =>   1
Atom   1C    basis set group =>   1
Atom   2C    basis set group =>   1
Atom   3C    basis set group =>   1
Atom   4C    basis set group =>   1
Atom   5H    basis set group =>   2
Atom   6H    basis set group =>   2
Atom   7H    basis set group =>   2
Atom   8H    basis set group =>   2
Atom   9H    basis set group =>   2
Atom  10H    basis set group =>   2
Atom  11H    basis set group =>   2
Atom  12H    basis set group =>   2
Atom  13H    basis set group =>   2
Atom  14H    basis set group =>   2
Atom  15H    basis set group =>   2
Atom  16H    basis set group =>   2
---------------------------------
AUXILIARY/J BASIS SET INFORMATION
---------------------------------
There are 2 groups of distinct atoms

 Group   1 Type C   : 12s5p4d2f1g contracted to 6s4p3d1f1g pattern {711111/2111/211/2/1}
 Group   2 Type H   : 5s2p1d contracted to 3s1p1d pattern {311/2/1}

Atom   0C    basis set group =>   1
Atom   1C    basis set group =>   1
Atom   2C    basis set group =>   1
Atom   3C    basis set group =>   1
Atom   4C    basis set group =>   1
Atom   5H    basis set group =>   2
Atom   6H    basis set group =>   2
Atom   7H    basis set group =>   2
Atom   8H    basis set group =>   2
Atom   9H    basis set group =>   2
Atom  10H    basis set group =>   2
Atom  11H    basis set group =>   2
Atom  12H    basis set group =>   2
Atom  13H    basis set group =>   2
Atom  14H    basis set group =>   2
Atom  15H    basis set group =>   2
Atom  16H    basis set group =>   2

Checking for AutoStart:
The File: sp.gbw exists
Trying to determine its content:
     ... Fine, the file contains calculation information
     ... Fine, the calculation information was read
     ... Fine, the file contains a basis set
     ... Fine, the basis set was read
     ... Fine, the file contains a geometry
     ... Fine, the geometry was read
     ... Fine, the file contains a set of orbitals
     ... Fine, the orbitals can be read
     => possible old guess file was deleted
     => GBW file was renamed to GES file
     => GES file is set as startup file
     => Guess is set to MORead
     ... now leaving AutoStart

------------------------------------------------------------------------------
                             ORCA STARTUP CALCULATIONS
                           -- RI-GTO INTEGRALS CHOSEN --
------------------------------------------------------------------------------
------------------------------------------------------------------------------
                   ___                                                        
                  /   \      - P O W E R E D   B Y -                         
                 /     \                                                     
                 |  |  |   _    _      __       _____    __    __             
                 |  |  |  | |  | |    /  \     |  _  \  |  |  /  |          
                  \  \/   | |  | |   /    \    | | | |  |  | /  /          
                 / \  \   | |__| |  /  /\  \   | |_| |  |  |/  /          
                |  |  |   |  __  | /  /__\  \  |    /   |      \           
                |  |  |   | |  | | |   __   |  |    \   |  |\   \          
                \     /   | |  | | |  |  |  |  | |\  \  |  | \   \       
                 \___/    |_|  |_| |__|  |__|  |_| \__\ |__|  \__/        
                                                                              
                      - O R C A' S   B I G   F R I E N D -                    
                                      &                                       
                       - I N T E G R A L  F E E D E R -                       
                                                                              
 v1 FN, 2020, v2 2021, v3 2022-2024                                           
------------------------------------------------------------------------------


----------------------
SHARK INTEGRAL PACKAGE
----------------------

Number of atoms                             ...     17
Number of basis functions                   ...    155
Number of shells                            ...     81
Maximum angular momentum                    ...      2
Integral batch strategy                     ... SHARK/LIBINT Hybrid
RI-J (if used) integral strategy            ... SPLIT-RIJ (Revised 2003 algorithm where possible)
Printlevel                                  ...      1
Contraction scheme used                     ... SEGMENTED contraction
Prescreening option                         ... SCHWARTZ
   Thresh                                   ... 1.000e-10
   Tcut                                     ... 1.000e-11
   Tpresel                                  ... 1.000e-11 
Coulomb Range Separation                    ... NOT USED
Exchange Range Separation                   ... NOT USED
Multipole approximations                    ... NOT USED
Finite Nucleus Model                        ... NOT USED
CABS basis                                  ... NOT available
Auxiliary Coulomb fitting basis             ... AVAILABLE
   # of basis functions in Aux-J            ...    377
   # of shells in Aux-J                     ...    135
   Maximum angular momentum in Aux-J        ...      4
Auxiliary J/K fitting basis                 ... NOT available
Auxiliary Correlation fitting basis         ... NOT available
Auxiliary 'external' fitting basis          ... NOT available

Checking pre-screening integrals            ... done (  0.0 sec) Dimension = 81
Check shell pair data                       ... done (  0.0 sec)
Shell pair information
Shell pair cut-off parameter TPreSel        ...   1.0e-11
Total number of shell pairs                 ...      3321
Shell pairs after pre-screening             ...      3170
Total number of primitive shell pairs       ...     11471
Primitive shell pairs kept                  ...      8297
          la=0 lb=0:   1161 shell pairs
          la=1 lb=0:   1260 shell pairs
          la=1 lb=1:    360 shell pairs
          la=2 lb=0:    241 shell pairs
          la=2 lb=1:    133 shell pairs
          la=2 lb=2:     15 shell pairs

Calculating one electron integrals          ... done (  0.0 sec)
Calculating RI/J V-Matrix + Cholesky decomp.... done (  0.0 sec)
Calculating Nuclear repulsion               ... done (  0.0 sec) ENN=    193.290949473170 Eh

Diagonalization of the overlap matrix:
Smallest eigenvalue                        ... 2.614e-04
Time for diagonalization                   ...    0.002 sec
Threshold for overlap eigenvalues          ... 1.000e-07
Number of eigenvalues below threshold      ... 0
Time for construction of square roots      ...    0.003 sec
Total time needed                          ...    0.006 sec

-------------------
DFT GRID GENERATION
-------------------

General Integration Accuracy     IntAcc      ... 4.388
Radial Grid Type                 RadialGrid  ... OptM3 with GC (2021)
Angular Grid (max. ang.)         AngularGrid ... 4 (Lebedev-302)
Angular grid pruning method      GridPruning ... 4 (adaptive)
Weight generation scheme         WeightScheme... mBecke (2022)
Basis function cutoff            BFCut       ... 1.0000e-10
Integration weight cutoff        WCut        ... 1.0000e-14
Partially contracted basis set               ... off
Rotationally invariant grid construction     ... off
Angular grids for H and He will be reduced by one unit

Total number of grid points                  ...    68473
Total number of batches                      ...     1080
Average number of points per batch           ...       63
Average number of grid points per atom       ...     4028
Initializing property integral containers    ... done (  0.0 sec)

SHARK setup successfully completed in   0.6 seconds

Maximum memory used throughout the entire STARTUP-calculation: 28.7 MB
-------------------------------------------------------------------------------
                                 ORCA GUESS
                   Start orbitals & Density for SCF / CASSCF
-------------------------------------------------------------------------------

------------
SCF SETTINGS
------------
Hamiltonian:
 Density Functional     Method          .... DFT(GTOs)
  Functional kind                       .... Exchange
  Functional name                       .... Re-regularized SCAN exchange by Furness et al
  Functional family                     .... MGGA
  Functional refs                              
    [ 0] J. W. Furness, A. D. Kaplan, J. Ning, J. P. Perdew, and J. Sun.,  J. Phys. Chem. Lett. 11, 8208-8215 (2020), doi: 10.1021/acs.jpclett.0c02405
    [ 1] J. W. Furness, A. D. Kaplan, J. Ning, J. P. Perdew, and J. Sun.,  J. Phys. Chem. Lett. 11, 9248-9248 (2020), doi: 10.1021/acs.jpclett.0c03077
  Functional external parameters        .... 6
    Parameter  0 _c1        =  6.670000e-01 : c1 parameter        
    Parameter  1 _c2        =  8.000000e-01 : c2 parameter        
    Parameter  2 _d         =  1.240000e+00 : d parameter         
    Parameter  3 _k1        =  6.500000e-02 : k1 parameter        
    Parameter  4 _eta       =  1.000000e-03 : eta parameter       
    Parameter  5 _dp2       =  3.610000e-01 : dp2 parameter       
  Functional kind                       .... Correlation
  Functional name                       .... Re-regularized SCAN correlation by Furness et al
  Functional family                     .... MGGA
  Functional refs                              
    [ 0] J. W. Furness, A. D. Kaplan, J. Ning, J. P. Perdew, and J. Sun.,  J. Phys. Chem. Lett. 11, 8208-8215 (2020), doi: 10.1021/acs.jpclett.0c02405
    [ 1] J. W. Furness, A. D. Kaplan, J. Ning, J. P. Perdew, and J. Sun.,  J. Phys. Chem. Lett. 11, 9248-9248 (2020), doi: 10.1021/acs.jpclett.0c03077
  Functional external parameters        .... 1
    Parameter  0 _eta       =  1.000000e-03 : Regularization parameter
 Gradients option       PostSCFGGA      .... off
 RI-approximation to the Coulomb term is turned on
   Number of AuxJ basis functions       .... 377


General Settings:
 Integral files         IntName         .... sp
 Hartree-Fock type      HFTyp           .... RHF
 Total Charge           Charge          ....    0
 Multiplicity           Mult            ....    1
 Number of Electrons    NEL             ....   42
 Basis Dimension        Dim             ....  155
 Nuclear Repulsion      ENuc            ....    193.2909494732 Eh

Convergence Acceleration:
 AO-DIIS                CNVDIIS         .... on
   Start iteration      DIISMaxIt       ....    12
   Startup error        DIISStart       ....  0.200000
   # of expansion vecs  DIISMaxEq       ....     5
   Bias factor          DIISBfac        ....   1.050
   Max. coefficient     DIISMaxC        ....  10.000
 MO-DIIS                CNVKDIIS        .... off
 Trust-Rad. Augm. Hess. CNVTRAH         .... auto
   Auto Start mean grad. ratio tolernc. ....  1.125000
   Auto Start start iteration           ....     1
   Auto Start num. interpolation iter.  ....    10
   Max. Number of Micro iterations      ....    24
   Max. Number of Macro iterations      .... Maxiter - #DIIS iter
   Number of Davidson start vectors     ....     2
   Converg. threshold    (grad. norm)   ....   3.330e-04
   Grad. Scal. Fac. for Micro threshold ....   0.100
   Minimum threshold for Micro iter.    ....   1.000e-02
   NR start threshold (gradient norm)   ....   1.000e-04
   Initial trust radius                 ....   0.400
   Minimum AH scaling param. (alpha)    ....   1.000
   Maximum AH scaling param. (alpha)    .... 1000.000
   Quad. conv. algorithm                .... NR
   White noise on init. David. guess    .... on
   Maximum white noise                  ....   0.010
   Pseudo random numbers                .... off
   Inactive MOs                         .... canonical
   Orbital update algorithm             .... Taylor
   Preconditioner                       .... Diag
   Full preconditioner red. dimension   ....   250
   COSX micro iterations for RIJONX calc.... off
 SOSCF                  CNVSOSCF        .... on
   Start iteration      SOSCFMaxIt      ....   150
   Startup grad/error   SOSCFStart      ....  0.003300
   Hessian update       SOSCFHessUp     .... L-BFGS
 Level Shifting         CNVShift        .... on
   Level shift para.    LevelShift      ....    0.2500
   Turn off err/grad.   ShiftErr        ....    0.0010
 Zerner damping         CNVZerner       .... off
 Static damping         CNVDamp         .... on
   Fraction old density DampFac         ....    0.7000
   Max. Damping (<1)    DampMax         ....    0.9800
   Min. Damping (>=0)   DampMin         ....    0.0000
   Turn off err/grad.   DampErr         ....    0.1000

SCF Procedure:
 Maximum # iterations   MaxIter         ....   125
 SCF integral mode      SCFMode         .... Direct
   Integral package                     .... SHARK and LIBINT hybrid scheme
 Reset frequency        DirectResetFreq ....    20
 Integral Threshold     Thresh          ....  1.000e-10 Eh
 Primitive CutOff       TCut            ....  1.000e-11 Eh

Convergence Tolerance:
 Convergence Check Mode ConvCheckMode   .... Total+1el-Energy
 Convergence forced     ConvForced      .... 0
 Energy Change          TolE            ....  1.000e-06 Eh
 1-El. energy change                    ....  1.000e-03 Eh
 Orbital Gradient       TolG            ....  3.330e-04
 Orbital Rotation angle TolX            ....  3.330e-04
 DIIS Error             TolErr          ....  1.000e-06

---------------------
INITIAL GUESS: MOREAD
---------------------
Guess MOs are being read from file: sp.ges
Input Geometry matches current geometry (good)
Atom 0: N(Shells)= 9 and 6 - projection required
Input basis set needs projection
NBasis(read)= 94
NBasis(calc)= 155
Basis set overlap was calculated
Using GuessMode=FMatrix for the initial guess
C*T matrix was formed
Effective Fockian was calculated
Effective Fockian was diagonalized
Initial density was built
                      ------------------
                      INITIAL GUESS DONE (   0.0 sec)
                      ------------------
             **** ENERGY FILE WAS UPDATED (sp.en.tmp) ****
Finished Guess after   0.1 sec
Maximum memory used throughout the entire GUESS-calculation: 11.2 MB

-------------------------------------------------------------------------------------------
                                      ORCA LEAN-SCF
                              memory conserving SCF solver
-------------------------------------------------------------------------------------------

----------------------------------------D-I-I-S--------------------------------------------
Iteration    Energy (Eh)           Delta-E    RMSDP     MaxDP     DIISErr   Damp  Time(sec)
-------------------------------------------------------------------------------------------
               ***  Starting incremental Fock matrix formation  ***
    1    -197.5870735791943105     0.00e+00  3.47e-03  8.86e-02  2.83e-01  0.700   1.0
    2    -197.6186908783912770    -3.16e-02  2.88e-03  7.30e-02  1.99e-01  0.700   0.9
                               ***Turning on AO-DIIS***
    3    -197.6410913282331023    -2.24e-02  2.16e-03  5.38e-02  1.39e-01  0.700   0.9
    4    -197.6568247904708926    -1.57e-02  1.56e-03  3.83e-02  9.74e-02  0.700   0.9
    5    -197.6678638612274028    -1.10e-02  3.68e-03  9.01e-02  6.82e-02  0.000   0.9
                              *** Initializing SOSCF ***
---------------------------------------S-O-S-C-F--------------------------------------
Iteration    Energy (Eh)           Delta-E    RMSDP     MaxDP     MaxGrad    Time(sec)
--------------------------------------------------------------------------------------
    6    -197.6937160565217084    -2.59e-02  5.46e-05  1.08e-03  2.33e-04     0.9
               *** Restarting incremental Fock matrix formation ***
    7    -197.6937166451748169    -5.89e-07  2.19e-05  3.31e-04  2.87e-05     1.1
                  *** Gradient check signals convergence ***

               *****************************************************
               *                     SUCCESS                       *
               *           SCF CONVERGED AFTER   7 CYCLES          *
               *****************************************************

             **** ENERGY FILE WAS UPDATED (sp.en.tmp) ****

----------------
TOTAL SCF ENERGY
----------------

Total Energy       :       -197.69371664517482 Eh           -5379.51952 eV

Components:
Nuclear Repulsion  :        193.29094947317040 Eh            5259.71413 eV
Electronic Energy  :       -390.98466611834522 Eh          -10639.23365 eV
One Electron Energy:       -647.02316123016874 Eh          -17606.39531 eV
Two Electron Energy:        256.03849511182352 Eh            6967.16166 eV

Virial components:
Potential Energy   :       -394.43350653866634 Eh          -10733.08137 eV
Kinetic Energy     :        196.73978989349152 Eh            5353.56185 eV
Virial Ratio       :          2.00484867220911

DFT components:
N(Alpha)           :       20.999969672895 electrons
N(Beta)            :       20.999969672895 electrons
N(Total)           :       41.999939345791 electrons
E(X)               :      -30.293143388956 Eh       
E(C)               :       -1.279275891264 Eh       
E(XC)              :      -31.572419280220 Eh       

---------------
SCF CONVERGENCE
---------------

  Last Energy change         ...    5.8865e-07  Tolerance :   1.0000e-06
  Last MAX-Density change    ...    3.3132e-04  Tolerance :   1.0000e-05
  Last RMS-Density change    ...    2.1903e-05  Tolerance :   1.0000e-06
  Last DIIS Error            ...    2.3273e-04  Tolerance :   1.0000e-06
  Last Orbital Gradient      ...    2.8743e-05  Tolerance :   3.3300e-04
  Last Orbital Rotation      ...    6.5062e-05  Tolerance :   3.3300e-04


----------------
ORBITAL ENERGIES
----------------

  NO   OCC          E(Eh)            E(eV) 
   0   2.0000     -10.029240      -272.9095 
   1   2.0000     -10.020153      -272.6622 
   2   2.0000     -10.013434      -272.4794 
   3   2.0000     -10.012092      -272.4429 
   4   2.0000     -10.011725      -272.4329 
   5   2.0000      -0.775633       -21.1061 
   6   2.0000      -0.698269       -19.0009 
   7   2.0000      -0.646980       -17.6052 
   8   2.0000      -0.588431       -16.0120 
   9   2.0000      -0.520799       -14.1717 
  10   2.0000      -0.433210       -11.7882 
  11   2.0000      -0.411838       -11.2067 
  12   2.0000      -0.398328       -10.8390 
  13   2.0000      -0.377547       -10.2736 
  14   2.0000      -0.352286        -9.5862 
  15   2.0000      -0.347818        -9.4646 
  16   2.0000      -0.326039        -8.8720 
  17   2.0000      -0.315644        -8.5891 
  18   2.0000      -0.289559        -7.8793 
  19   2.0000      -0.286072        -7.7844 
  20   2.0000      -0.281132        -7.6500 
  21   0.0000       0.088499         2.4082 
  22   0.0000       0.113396         3.0857 
  23   0.0000       0.131234         3.5711 
  24   0.0000       0.135144         3.6775 
  25   0.0000       0.137865         3.7515 
  26   0.0000       0.145977         3.9722 
  27   0.0000       0.154391         4.2012 
  28   0.0000       0.159756         4.3472 
  29   0.0000       0.171028         4.6539 
  30   0.0000       0.174975         4.7613 
  31   0.0000       0.191252         5.2042 
*Only the first 10 virtual orbitals were printed.

                    ********************************
                    * MULLIKEN POPULATION ANALYSIS *
                    ********************************

-----------------------
MULLIKEN ATOMIC CHARGES
-----------------------
   0 C :   -0.499184
   1 C :   -0.222805
   2 C :   -0.027179
   3 C :   -0.471286
   4 C :   -0.498577
   5 H :    0.145878
   6 H :    0.147590
   7 H :    0.144486
   8 H :    0.136970
   9 H :    0.135722
  10 H :    0.137196
  11 H :    0.144934
  12 H :    0.143263
  13 H :    0.144199
  14 H :    0.148027
  15 H :    0.142418
  16 H :    0.148348
Sum of atomic charges:   -0.0000000

--------------------------------
MULLIKEN REDUCED ORBITAL CHARGES
--------------------------------
  0 C s       :     3.343578  s :     3.343578
      pz      :     1.068449  p :     3.128431
      px      :     0.997356
      py      :     1.062625
      dz2     :     0.007819  d :     0.027175
      dxz     :     0.004251
      dyz     :     0.002239
      dx2y2   :     0.007111
      dxy     :     0.005756

  1 C s       :     3.191092  s :     3.191092
      pz      :     1.038211  p :     2.994753
      px      :     0.913886
      py      :     1.042655
      dz2     :     0.010509  d :     0.036960
      dxz     :     0.006270
      dyz     :     0.002386
      dx2y2   :     0.010671
      dxy     :     0.007124

  2 C s       :     3.098244  s :     3.098244
      pz      :     1.058585  p :     2.882624
      px      :     0.917911
      py      :     0.906128
      dz2     :     0.011763  d :     0.046312
      dxz     :     0.006333
      dyz     :     0.005774
      dx2y2   :     0.010944
      dxy     :     0.011498

  3 C s       :     3.323483  s :     3.323483
      pz      :     1.069964  p :     3.120702
      px      :     0.994086
      py      :     1.056652
      dz2     :     0.007231  d :     0.027101
      dxz     :     0.004423
      dyz     :     0.002609
      dx2y2   :     0.007298
      dxy     :     0.005539

  4 C s       :     3.330712  s :     3.330712
      pz      :     1.062014  p :     3.140778
      px      :     1.103993
      py      :     0.974772
      dz2     :     0.007880  d :     0.027086
      dxz     :     0.002484
      dyz     :     0.003925
      dx2y2   :     0.004939
      dxy     :     0.007858

  5 H s       :     0.835804  s :     0.835804
      pz      :     0.004742  p :     0.018318
      px      :     0.008104
      py      :     0.005472

  6 H s       :     0.833976  s :     0.833976
      pz      :     0.004330  p :     0.018434
      px      :     0.003759
      py      :     0.010346

  7 H s       :     0.837281  s :     0.837281
      pz      :     0.010881  p :     0.018233
      px      :     0.003654
      py      :     0.003698

  8 H s       :     0.845161  s :     0.845161
      pz      :     0.003869  p :     0.017869
      px      :     0.003407
      py      :     0.010592

  9 H s       :     0.846437  s :     0.846437
      pz      :     0.010903  p :     0.017841
      px      :     0.003429
      py      :     0.003509

 10 H s       :     0.845333  s :     0.845333
      pz      :     0.010828  p :     0.017471
      px      :     0.003356
      py      :     0.003286

 11 H s       :     0.836774  s :     0.836774
      pz      :     0.005004  p :     0.018291
      px      :     0.008590
      py      :     0.004698

 12 H s       :     0.838492  s :     0.838492
      pz      :     0.010765  p :     0.018245
      px      :     0.003820
      py      :     0.003660

 13 H s       :     0.837511  s :     0.837511
      pz      :     0.004449  p :     0.018290
      px      :     0.003639
      py      :     0.010202

 14 H s       :     0.833775  s :     0.833775
      pz      :     0.010867  p :     0.018198
      px      :     0.003770
      py      :     0.003561

 15 H s       :     0.839267  s :     0.839267
      pz      :     0.004799  p :     0.018315
      px      :     0.008737
      py      :     0.004780

 16 H s       :     0.833154  s :     0.833154
      pz      :     0.004216  p :     0.018498
      px      :     0.008104
      py      :     0.006178


------------------------
MULLIKEN OVERLAP CHARGES
------------------------
B(  0-C ,  1-C ) :   0.4155 B(  0-C ,  2-C ) :  -0.1730 B(  0-C ,  5-H ) :   0.8019 
B(  0-C ,  6-H ) :   0.8636 B(  0-C ,  7-H ) :   0.8645 B(  0-C ,  8-H ) :  -0.0538 
B(  1-C ,  2-C ) :   0.5015 B(  1-C ,  3-C ) :  -0.2093 B(  1-C ,  4-C ) :  -0.2386 
B(  1-C ,  5-H ) :  -0.0732 B(  1-C ,  6-H ) :  -0.0976 B(  1-C ,  7-H ) :  -0.1090 
B(  1-C ,  8-H ) :   0.8266 B(  1-C ,  9-H ) :   0.8304 B(  1-C , 10-H ) :  -0.1048 
B(  2-C ,  3-C ) :   0.5403 B(  2-C ,  4-C ) :   0.4393 B(  2-C ,  8-H ) :  -0.1046 
B(  2-C ,  9-H ) :  -0.0885 B(  2-C , 10-H ) :   0.8634 B(  2-C , 11-H ) :  -0.0854 
B(  2-C , 12-H ) :  -0.0972 B(  2-C , 13-H ) :  -0.0850 B(  2-C , 14-H ) :  -0.1051 
B(  2-C , 15-H ) :  -0.0754 B(  2-C , 16-H ) :  -0.0696 B(  3-C ,  4-C ) :  -0.2096 
B(  3-C , 10-H ) :  -0.0753 B(  3-C , 11-H ) :   0.8197 B(  3-C , 12-H ) :   0.8542 
B(  3-C , 13-H ) :   0.8184 B(  4-C , 10-H ) :  -0.0634 B(  4-C , 14-H ) :   0.8625 
B(  4-C , 15-H ) :   0.7916 B(  4-C , 16-H ) :   0.8118 B(  6-H ,  7-H ) :  -0.0526 



                     *******************************
                     * LOEWDIN POPULATION ANALYSIS *
                     *******************************

----------------------
LOEWDIN ATOMIC CHARGES
----------------------
   0 C :   -0.424735
   1 C :   -0.313158
   2 C :   -0.251539
   3 C :   -0.418737
   4 C :   -0.418295
   5 H :    0.150633
   6 H :    0.148981
   7 H :    0.150290
   8 H :    0.153602
   9 H :    0.153811
  10 H :    0.153368
  11 H :    0.151732
  12 H :    0.153299
  13 H :    0.151981
  14 H :    0.153230
  15 H :    0.153145
  16 H :    0.152390

-------------------------------
LOEWDIN REDUCED ORBITAL CHARGES
-------------------------------
  0 C s       :     2.971847  s :     2.971847
      pz      :     1.149628  p :     3.389331
      px      :     1.093813
      py      :     1.145890
      dz2     :     0.019321  d :     0.063556
      dxz     :     0.009192
      dyz     :     0.005395
      dx2y2   :     0.016397
      dxy     :     0.013251

  1 C s       :     2.938137  s :     2.938137
      pz      :     1.125947  p :     3.294866
      px      :     1.052068
      py      :     1.116850
      dz2     :     0.024110  d :     0.080155
      dxz     :     0.012799
      dyz     :     0.005024
      dx2y2   :     0.023401
      dxy     :     0.014821

  2 C s       :     2.911173  s :     2.911173
      pz      :     1.117882  p :     3.244987
      px      :     1.062066
      py      :     1.065039
      dz2     :     0.026342  d :     0.095379
      dxz     :     0.012478
      dyz     :     0.010996
      dx2y2   :     0.021925
      dxy     :     0.023637

  3 C s       :     2.972279  s :     2.972279
      pz      :     1.151941  p :     3.382717
      px      :     1.099920
      py      :     1.130855
      dz2     :     0.017989  d :     0.063741
      dxz     :     0.009950
      dyz     :     0.006122
      dx2y2   :     0.016638
      dxy     :     0.013043

  4 C s       :     2.969300  s :     2.969300
      pz      :     1.147914  p :     3.385298
      px      :     1.151747
      py      :     1.085637
      dz2     :     0.019433  d :     0.063696
      dxz     :     0.006224
      dyz     :     0.008338
      dx2y2   :     0.011721
      dxy     :     0.017980

  5 H s       :     0.805897  s :     0.805897
      pz      :     0.010911  p :     0.043470
      px      :     0.019599
      py      :     0.012961

  6 H s       :     0.807168  s :     0.807168
      pz      :     0.009841  p :     0.043851
      px      :     0.008381
      py      :     0.025629

  7 H s       :     0.806471  s :     0.806471
      pz      :     0.027042  p :     0.043238
      px      :     0.008065
      py      :     0.008132

  8 H s       :     0.803354  s :     0.803354
      pz      :     0.009023  p :     0.043044
      px      :     0.008008
      py      :     0.026012

  9 H s       :     0.803019  s :     0.803019
      pz      :     0.026942  p :     0.043170
      px      :     0.008117
      py      :     0.008111

 10 H s       :     0.803755  s :     0.803755
      pz      :     0.026415  p :     0.042877
      px      :     0.008310
      py      :     0.008152

 11 H s       :     0.804743  s :     0.804743
      pz      :     0.011616  p :     0.043525
      px      :     0.020947
      py      :     0.010963

 12 H s       :     0.803182  s :     0.803182
      pz      :     0.026853  p :     0.043519
      px      :     0.008585
      py      :     0.008080

 13 H s       :     0.804601  s :     0.804601
      pz      :     0.010051  p :     0.043418
      px      :     0.008218
      py      :     0.025149

 14 H s       :     0.803298  s :     0.803298
      pz      :     0.027144  p :     0.043473
      px      :     0.008275
      py      :     0.008054

 15 H s       :     0.803305  s :     0.803305
      pz      :     0.011107  p :     0.043551
      px      :     0.021329
      py      :     0.011114

 16 H s       :     0.803472  s :     0.803472
      pz      :     0.009510  p :     0.044137
      px      :     0.019811
      py      :     0.014816


---------------------------------
LOEWDIN BOND ORDERS (THRESH 0.050000)
---------------------------------
B(  0-C ,  1-C ) :   1.1408 B(  0-C ,  2-C ) :   0.0672 B(  0-C ,  5-H ) :   0.9295 
B(  0-C ,  6-H ) :   0.9282 B(  0-C ,  7-H ) :   0.9292 B(  1-C ,  2-C ) :   1.0773 
B(  1-C ,  3-C ) :   0.0768 B(  1-C ,  4-C ) :   0.0633 B(  1-C ,  8-H ) :   0.8899 
B(  1-C ,  9-H ) :   0.8915 B(  2-C ,  3-C ) :   1.1128 B(  2-C ,  4-C ) :   1.1106 
B(  2-C , 10-H ) :   0.8635 B(  3-C ,  4-C ) :   0.0721 B(  3-C , 11-H ) :   0.9249 
B(  3-C , 12-H ) :   0.9231 B(  3-C , 13-H ) :   0.9259 B(  4-C , 14-H ) :   0.9240 
B(  4-C , 15-H ) :   0.9243 B(  4-C , 16-H ) :   0.9231 

------------------------------------------
LOEWDIN REDUCED ORBITAL POPULATIONS PER MO
-------------------------------------------
THRESHOLD FOR PRINTING IS 0.1%%
                      0         1         2         3         4         5   
                 -10.02924 -10.02015 -10.01343 -10.01209 -10.01173  -0.77563
                   2.00000   2.00000   2.00000   2.00000   2.00000   2.00000
                  --------  --------  --------  --------  --------  --------
 0 C  s               0.0       0.0      99.7       0.0       0.0       6.3
 0 C  px              0.0       0.1       0.0       0.0       0.0       1.9
 0 C  py              0.0       0.0       0.0       0.0       0.0       0.2
 1 C  s               0.0      99.7       0.0       0.0       0.0      16.9
 1 C  pz              0.0       0.0       0.0       0.0       0.0       0.6
 1 C  px              0.1       0.0       0.1       0.0       0.0       0.8
 1 C  py              0.0       0.0       0.0       0.0       0.0       0.9
 2 C  s              99.6       0.0       0.0       0.0       0.0      25.5
 2 C  pz              0.0       0.0       0.0       0.0       0.0       0.9
 3 C  s               0.0       0.0       0.0       0.0      99.7       9.9
 3 C  px              0.1       0.0       0.0       0.0       0.0       2.3
 3 C  py              0.0       0.0       0.0       0.0       0.0       0.9
 4 C  s               0.0       0.0       0.0      99.7       0.0      10.2
 4 C  pz              0.0       0.0       0.0       0.0       0.0       0.2
 4 C  py              0.1       0.0       0.0       0.0       0.0       3.0
 5 H  s               0.0       0.0       0.0       0.0       0.0       0.8
 6 H  s               0.0       0.0       0.0       0.0       0.0       0.8
 7 H  s               0.0       0.0       0.0       0.0       0.0       0.8
 8 H  s               0.0       0.0       0.0       0.0       0.0       2.1
 8 H  py              0.0       0.0       0.0       0.0       0.0       0.2
 9 H  s               0.0       0.0       0.0       0.0       0.0       2.1
 9 H  pz              0.0       0.0       0.0       0.0       0.0       0.2
10 H  s               0.0       0.0       0.0       0.0       0.0       3.1
10 H  pz              0.0       0.0       0.0       0.0       0.0       0.3
11 H  s               0.0       0.0       0.0       0.0       0.0       1.2
12 H  s               0.0       0.0       0.0       0.0       0.0       1.3
12 H  pz              0.0       0.0       0.0       0.0       0.0       0.1
13 H  s               0.0       0.0       0.0       0.0       0.0       1.2
14 H  s               0.0       0.0       0.0       0.0       0.0       1.3
14 H  pz              0.0       0.0       0.0       0.0       0.0       0.1
15 H  s               0.0       0.0       0.0       0.0       0.0       1.3
16 H  s               0.0       0.0       0.0       0.0       0.0       1.3

                      6         7         8         9        10        11   
                  -0.69827  -0.64698  -0.58843  -0.52080  -0.43321  -0.41184
                   2.00000   2.00000   2.00000   2.00000   2.00000   2.00000
                  --------  --------  --------  --------  --------  --------
 0 C  s              24.8       0.0      15.4       0.9       0.1       0.1
 0 C  pz              0.1       0.0       0.4       2.2       2.1       2.2
 0 C  px              0.4       0.0       4.9       0.9       0.2       5.3
 0 C  py              0.3       0.1       1.2       1.3       7.7       6.8
 1 C  s              11.7       0.4      10.2       5.2       0.4       0.0
 1 C  pz              0.0       0.0       0.2       7.4       6.8       3.3
 1 C  px              7.3       0.2       6.1       0.8       2.5       1.3
 1 C  py              0.1       0.9       1.0       2.9      12.6       4.5
 1 C  dxy             0.1       0.0       0.1       0.0       0.0       0.0
 2 C  s               3.2       0.0       2.8      11.8       0.8       0.4
 2 C  pz              0.0       0.0       0.1       9.9      14.3       0.1
 2 C  px              7.3       1.6       6.1       0.1       0.0      12.3
 2 C  py              0.7      14.2       1.2       0.1       0.8       0.4
 2 C  dx2y2           0.0       0.2       0.0       0.0       0.0       0.0
 2 C  dxy             0.1       0.1       0.1       0.0       0.0       0.0
 3 C  s               8.5      19.5       7.0       1.9       0.1       0.4
 3 C  pz              0.0       0.0       0.0       2.7       6.2       0.2
 3 C  px              0.1       0.1       2.9       2.9       0.7       0.5
 3 C  py              0.4       0.9       0.1       1.7       2.1      14.5
 4 C  s               6.0      25.3       2.0       3.0       0.7       0.1
 4 C  pz              0.0       0.0       0.0       3.6       4.1       0.1
 4 C  px              0.4       0.1       0.4       0.3       1.1      16.7
 4 C  py              0.2       0.9       0.9       4.9       9.1       3.9
 4 C  dx2y2           0.0       0.0       0.0       0.1       0.1       0.0
 5 H  s               4.7       0.0       5.7       0.2       0.0       5.3
 5 H  px              0.3       0.0       0.2       0.0       0.0       0.1
 5 H  py              0.1       0.0       0.1       0.0       0.0       0.0
 6 H  s               4.3       0.0       5.7       0.6       3.6       1.2
 6 H  py              0.3       0.0       0.4       0.0       0.1       0.0
 7 H  s               4.4       0.0       5.2       1.5       0.4       0.3
 7 H  pz              0.4       0.0       0.4       0.1       0.0       0.0
 8 H  s               2.1       0.3       3.5       3.2       7.4       0.8
 8 H  py              0.2       0.0       0.3       0.1       0.2       0.0
 9 H  s               2.0       0.1       3.3       5.7       1.7       1.0
 9 H  pz              0.2       0.0       0.3       0.3       0.1       0.0
10 H  s               0.5       0.0       0.7      10.5       2.6       0.0
10 H  pz              0.0       0.0       0.1       0.7       0.1       0.0
11 H  s               1.7       4.3       3.2       0.8       0.7       0.1
11 H  px              0.1       0.2       0.1       0.0       0.0       0.0
12 H  s               1.5       4.4       2.2       2.6       1.5       0.6
12 H  pz              0.1       0.4       0.2       0.1       0.0       0.0
13 H  s               1.4       5.2       1.9       1.2       1.9       5.7
13 H  py              0.1       0.4       0.1       0.0       0.1       0.1
14 H  s               1.0       5.8       0.7       3.5       0.3       0.0
14 H  pz              0.1       0.5       0.1       0.2       0.0       0.0
15 H  s               1.3       5.8       1.1       1.6       4.3       2.4
15 H  px              0.1       0.4       0.1       0.1       0.2       0.0
15 H  py              0.0       0.1       0.0       0.0       0.0       0.1
16 H  s               0.8       6.6       0.7       1.3       1.6       7.6
16 H  px              0.0       0.3       0.0       0.1       0.1       0.1
16 H  py              0.0       0.2       0.0       0.0       0.0       0.1

                     12        13        14        15        16        17   
                  -0.39833  -0.37755  -0.35229  -0.34782  -0.32604  -0.31564
                   2.00000   2.00000   2.00000   2.00000   2.00000   2.00000
                  --------  --------  --------  --------  --------  --------
 0 C  s               0.1       0.1       0.0       0.0       0.4       0.0
 0 C  pz             13.7      10.9       0.5       1.4       8.3      12.9
 0 C  px              3.5      11.8       4.2       2.1       5.8       0.2
 0 C  py              1.1       2.0       5.0      16.7       4.1       3.5
 0 C  dz2             0.1       0.0       0.0       0.0       0.1       0.4
 0 C  dx2y2           0.0       0.1       0.0       0.1       0.1       0.1
 0 C  dxy             0.0       0.1       0.1       0.1       0.0       0.0
 1 C  s               0.5       0.5       0.2       0.2       0.1       0.0
 1 C  pz              6.4       5.3       0.1       0.3       3.5       9.4
 1 C  px              4.7       2.2       0.0       1.2       6.5       0.2
 1 C  py              4.1       1.0       1.0       0.0       8.1       3.0
 1 C  dz2             0.1       0.0       0.0       0.0       0.1       0.2
 1 C  dxz             0.0       0.1       0.0       0.0       0.0       0.1
 1 C  dx2y2           0.0       0.0       0.0       0.0       0.2       0.0
 2 C  s               0.1       0.2       0.1       0.2       0.0       0.0
 2 C  pz              5.1       0.5       0.0       0.0       0.7       2.1
 2 C  px              0.0       0.9       0.3       0.3       1.0       0.0
 2 C  py              4.9       4.7       3.2       1.4       0.3       4.1
 2 C  dyz             0.0       0.0       0.1       0.2       0.0       0.0
 2 C  dx2y2           0.0       0.1       0.1       0.0       0.0       0.1
 3 C  s               0.1       0.0       0.0       0.0       0.0       0.0
 3 C  pz              5.5       4.3      22.3       3.6       3.0       4.4
 3 C  px             10.1      13.5       0.1       1.8       1.5       0.2
 3 C  py              0.5       7.9       0.4       0.0      10.1       9.0
 3 C  dz2             0.0       0.1       0.2       0.0       0.0       0.1
 3 C  dx2y2           0.0       0.0       0.0       0.0       0.2       0.2
 4 C  s               0.1       0.1       0.0       0.1       0.0       0.2
 4 C  pz              9.2       0.0      18.1      11.9       0.6       3.8
 4 C  px              0.9       0.5       6.2      15.3      10.0       0.5
 4 C  py              0.0       3.0       0.0       3.2       0.8       3.3
 4 C  dz2             0.1       0.0       0.2       0.1       0.0       0.0
 4 C  dxz             0.0       0.0       0.0       0.1       0.0       0.0
 4 C  dxy             0.0       0.0       0.0       0.1       0.2       0.1
 5 H  s               0.3       5.0       4.7       6.9       0.2       0.0
 5 H  pz              0.1       0.0       0.0       0.0       0.1       0.1
 5 H  px              0.0       0.0       0.0       0.1       0.1       0.0
 5 H  py              0.0       0.2       0.0       0.0       0.0       0.0
 6 H  s               1.0       3.4       1.6       6.1       0.9       5.9
 6 H  pz              0.0       0.0       0.0       0.1       0.1       0.0
 7 H  s               6.7       3.6       0.2       0.6       4.5       9.0
 7 H  pz              0.2       0.1       0.0       0.0       0.0       0.1
 7 H  px              0.0       0.1       0.0       0.0       0.1       0.0
 7 H  py              0.0       0.0       0.0       0.1       0.0       0.0
 8 H  s               1.4       0.0       0.1       0.1       3.2       3.5
 9 H  s               3.6       1.1       0.0       0.5       2.2       6.6
 9 H  pz              0.1       0.0       0.0       0.0       0.0       0.1
10 H  s               1.3       0.3       0.0       0.2       0.6       1.2
11 H  s               6.9       4.8       3.1       1.5       6.1       0.3
11 H  pz              0.0       0.2       0.0       0.0       0.0       0.1
11 H  px              0.1       0.0       0.1       0.0       0.1       0.0
12 H  s               0.9       3.1      11.1       1.2       1.5       3.0
12 H  pz              0.0       0.1       0.2       0.0       0.0       0.0
13 H  s               0.0       5.6       0.5       0.3       3.9       7.6
13 H  pz              0.0       0.0       0.1       0.0       0.1       0.0
13 H  py              0.0       0.1       0.0       0.0       0.0       0.1
14 H  s               4.6       0.0       9.5       5.4       0.8       1.7
14 H  pz              0.1       0.0       0.2       0.1       0.0       0.0
14 H  px              0.0       0.0       0.0       0.2       0.1       0.0
15 H  s               0.0       0.0       0.1      14.5       2.3       0.6
15 H  pz              0.1       0.0       0.1       0.0       0.1       0.0
15 H  px              0.0       0.0       0.0       0.2       0.0       0.0
16 H  s               0.6       1.2       4.7       0.5       6.2       0.8
16 H  pz              0.0       0.0       0.1       0.1       0.0       0.1
16 H  py              0.0       0.0       0.1       0.1       0.0       0.0

                     18        19        20        21        22        23   
                  -0.28956  -0.28607  -0.28113   0.08850   0.11340   0.13123
                   2.00000   2.00000   2.00000   0.00000   0.00000   0.00000
                  --------  --------  --------  --------  --------  --------
 0 C  s               0.3       0.2       0.0       8.7      24.0       0.5
 0 C  pz              1.4       0.3       1.1       0.1       0.1       5.5
 0 C  px              4.4       2.1       7.0       1.8       5.1       0.6
 0 C  py              0.2       6.5       0.7       0.8       0.6       4.3
 0 C  dz2             0.1       0.1       0.1       0.0       0.0       0.1
 0 C  dxz             0.0       0.0       0.1       0.1       0.0       0.0
 0 C  dyz             0.0       0.0       0.0       0.1       0.0       0.3
 0 C  dx2y2           0.0       0.2       0.2       0.0       0.0       0.0
 0 C  dxy             0.0       0.0       0.2       0.5       0.0       0.0
 1 C  s               0.2       0.1       0.7       9.6       0.1       5.4
 1 C  pz              7.3       1.1       4.4       0.9       0.6       3.4
 1 C  px              2.2       0.7      15.6       0.3      13.8       0.1
 1 C  py              0.0      10.9       4.5       1.9       0.1       0.7
 1 C  dz2             0.6       0.1       0.0       0.0       0.1       0.7
 1 C  dxz             0.0       0.0       0.2       0.1       0.5       0.0
 1 C  dyz             0.0       0.0       0.0       0.1       0.0       0.2
 1 C  dx2y2           0.0       0.6       0.1       0.2       0.1       0.1
 1 C  dxy             0.0       0.0       0.2       0.0       0.9       0.0
 2 C  s               0.4       0.0       0.2       7.1       2.1       1.1
 2 C  pz             16.9       0.1       5.2       3.1       0.2       3.6
 2 C  px              5.0       1.7      16.3       0.2       3.7       0.3
 2 C  py              0.0      14.9       2.4       0.0       0.1       5.1
 2 C  dz2             1.1       0.0       0.1       0.0       0.0       0.9
 2 C  dxz             0.0       0.0       0.2       0.0       0.2       0.0
 2 C  dyz             0.0       0.1       0.0       0.0       0.0       0.4
 2 C  dx2y2           0.0       0.4       0.1       0.0       0.2       0.2
 2 C  dxy             0.1       0.3       0.3       0.0       0.1       0.0
 3 C  s               0.7       0.6       0.1       6.9      12.8       0.5
 3 C  pz              4.5       0.0       0.8       0.0       0.2       1.0
 3 C  px              6.0       5.3       7.0       2.0       0.9       1.4
 3 C  py              0.7       7.1       0.1       1.7       1.4       0.0
 3 C  dz2             0.3       0.0       0.0       0.0       0.1       0.3
 3 C  dxz             0.0       0.0       0.2       0.1       0.1       0.1
 3 C  dyz             0.0       0.0       0.0       0.1       0.1       0.0
 3 C  dx2y2           0.0       0.2       0.2       0.1       0.0       0.1
 3 C  dxy             0.1       0.0       0.1       0.4       0.1       0.1
 4 C  s               0.4       0.6       0.0      13.0       0.3      12.7
 4 C  pz              4.6       0.1       1.0       0.4       0.9       5.5
 4 C  px              1.8       0.5       2.9       0.1       3.4       2.0
 4 C  py              1.1      18.0       1.7       2.7       2.2      15.5
 4 C  dz2             0.3       0.0       0.1       0.0       0.2       0.0
 4 C  dxz             0.0       0.0       0.0       0.0       0.0       0.2
 4 C  dyz             0.0       0.1       0.1       0.3       0.0       0.0
 4 C  dx2y2           0.0       0.0       0.0       0.5       0.0       0.4
 4 C  dxy             0.1       0.1       0.2       0.0       0.0       0.1
 5 H  s               0.3       0.0       6.3       1.8       1.5       0.3
 5 H  pz              0.0       0.0       0.0       0.1       0.3       0.0
 5 H  px              0.0       0.0       0.0       0.2       0.6       0.1
 5 H  py              0.0       0.1       0.0       0.5       0.4       0.0
 6 H  s               0.1       4.7       0.3       2.2       2.4       0.1
 6 H  pz              0.0       0.0       0.0       0.2       0.1       0.3
 6 H  px              0.1       0.0       0.1       0.3       0.0       0.0
 6 H  py              0.0       0.0       0.0       0.6       1.8       0.0
 7 H  s               1.4       0.6       0.9       0.9       2.4       0.3
 7 H  pz              0.0       0.0       0.0       0.4       1.6       0.0
 7 H  px              0.0       0.0       0.1       0.1       0.0       0.0
 7 H  py              0.0       0.1       0.0       0.1       0.0       0.2
 8 H  s               0.7      10.5       1.2       2.9       0.0       0.5
 8 H  pz              0.1       0.0       0.1       0.3       0.0       0.6
 8 H  px              0.0       0.0       0.2       0.0       0.7       0.0
 8 H  py              0.0       0.0       0.0       1.0       0.0       0.2
 9 H  s               7.7       1.3       1.3       1.8       0.2       4.9
 9 H  pz              0.0       0.0       0.0       0.9       0.0       1.9
 9 H  px              0.0       0.0       0.2       0.1       0.6       0.0
 9 H  py              0.0       0.1       0.1       0.2       0.0       0.2
10 H  s              16.7       0.1       2.2       1.1       0.0       3.0
10 H  pz              0.1       0.0       0.0       0.9       0.2       0.5
10 H  px              0.0       0.0       0.2       0.1       0.3       0.0
10 H  py              0.0       0.2       0.0       0.0       0.0       0.5
11 H  s               0.1       0.1       5.3       1.6       3.1       0.2
11 H  pz              0.0       0.0       0.0       0.2       0.7       0.0
11 H  px              0.0       0.0       0.0       0.2       0.5       0.1
11 H  py              0.0       0.1       0.0       0.6       0.3       0.0
12 H  s               4.5       0.0       0.7       1.1       2.4       1.1
12 H  pz              0.0       0.0       0.0       0.6       1.4       0.2
12 H  py              0.0       0.1       0.0       0.1       0.0       0.0
13 H  s               0.4       3.2       0.2       2.6       0.5       1.0
13 H  pz              0.0       0.0       0.0       0.2       0.0       0.0
13 H  px              0.0       0.1       0.1       0.5       0.1       0.1
13 H  py              0.0       0.0       0.0       0.5       0.4       0.2
14 H  s               4.5       0.0       1.0       1.5       0.5       0.6
14 H  pz              0.0       0.0       0.0       0.7       0.1       0.2
14 H  px              0.0       0.0       0.0       0.0       0.0       0.3
14 H  py              0.0       0.2       0.0       0.2       0.0       0.0
15 H  s               0.1       0.1       4.6       3.3       0.2       1.0
15 H  pz              0.1       0.0       0.0       0.3       0.1       0.0
15 H  px              0.0       0.0       0.0       1.1       0.0       0.4
15 H  py              0.0       0.2       0.0       0.0       0.1       0.3
16 H  s               1.7       4.3       0.2       2.5       0.6       4.2
16 H  pz              0.0       0.0       0.0       0.1       0.0       0.3
16 H  px              0.0       0.1       0.0       1.2       0.2       0.9
16 H  py              0.0       0.1       0.0       0.0       0.1       1.3

                     24        25        26        27        28        29   
                   0.13514   0.13787   0.14598   0.15439   0.15976   0.17103
                   0.00000   0.00000   0.00000   0.00000   0.00000   0.00000
                  --------  --------  --------  --------  --------  --------
 0 C  s               0.3       1.1       0.1       0.1       0.6       3.2
 0 C  pz              2.3       3.3       2.1       0.2       2.9       0.9
 0 C  px              4.9       0.5       5.5       1.1      12.1      12.0
 0 C  py              4.1       0.8       1.1       7.1       7.1       1.7
 0 C  dz2             0.3       0.2       0.3       0.0       0.2       0.2
 0 C  dxz             0.1       0.2       0.2       0.3       0.0       0.3
 0 C  dyz             0.3       0.1       0.0       0.3       0.5       0.2
 0 C  dx2y2           0.0       0.1       0.3       0.0       1.8       0.2
 0 C  dxy             0.6       0.1       0.2       0.0       0.0       0.3
 1 C  s               2.8       0.6       6.4       1.6       2.9       1.4
 1 C  pz              3.2      10.2       3.0       2.3       0.8       5.3
 1 C  px              0.2       0.3       2.3       0.3       0.6       3.1
 1 C  py              4.7       1.2      11.9       7.3       7.5       0.4
 1 C  dz2             0.4       0.0       0.0       0.7       0.0       0.3
 1 C  dxz             0.0       0.0       0.2       0.1       0.0       0.5
 1 C  dyz             0.2       0.4       0.5       0.4       0.0       0.1
 1 C  dx2y2           0.0       0.2       0.3       0.9       0.8       0.0
 2 C  s               2.7       1.0      12.0       0.5       0.2       1.1
 2 C  pz              3.6       6.1       1.2       0.7       0.7       0.3
 2 C  px              7.5       1.5       1.7       3.9       0.5       0.9
 2 C  py              0.4       9.0       0.4       4.0       1.7       1.0
 2 C  dz2             0.2       0.9       0.0       0.5       0.2       0.1
 2 C  dxz             0.5       0.0       0.3       0.5       0.0       0.1
 2 C  dyz             0.0       0.6       0.0       0.0       0.0       0.0
 2 C  dx2y2           0.0       0.3       0.0       0.4       0.9       0.4
 2 C  dxy             0.8       0.4       0.0       0.1       0.0       0.6
 3 C  s               5.2       4.5       4.2       0.1       3.5       1.7
 3 C  pz              2.3       5.6       2.9       5.9       0.5       0.2
 3 C  px              7.9       7.6       9.3       1.3       0.3      12.7
 3 C  py              0.9       1.0       8.6       5.9       8.8       3.3
 3 C  dz2             0.0       0.0       0.7       0.1       0.1       0.1
 3 C  dxz             0.6       0.0       0.0       0.0       0.1       0.0
 3 C  dyz             0.0       0.1       0.0       0.1       0.2       0.4
 3 C  dx2y2           0.1       0.0       0.2       0.0       1.0       0.9
 3 C  dxy             0.5       0.2       0.4       0.1       0.0       0.0
 4 C  s               3.4       5.5       0.7       0.9       0.8       0.1
 4 C  pz              8.0       3.3       2.7       2.4       0.5       1.9
 4 C  px              0.9       0.8       1.2       3.7       4.0       9.0
 4 C  py              2.6       5.0       2.6      11.0       3.2       0.0
 4 C  dz2             0.0       0.5       0.7       0.1       0.0       0.2
 4 C  dxz             0.1       0.0       0.1       0.9       0.5       0.1
 4 C  dyz             0.1       0.5       0.1       0.3       0.1       0.0
 4 C  dx2y2           0.0       0.0       0.4       0.5       0.0       0.0
 4 C  dxy             0.3       0.3       0.0       0.9       0.3       0.7
 5 H  s               2.0       1.8       0.3       1.3       3.2       0.9
 5 H  pz              0.5       0.0       0.4       0.1       0.0       0.1
 5 H  px              0.0       0.1       0.1       0.0       1.6       0.2
 5 H  py              0.0       0.0       0.2       0.0       0.0       0.0
 6 H  s               4.0       0.8       0.1       0.1       4.4       1.1
 6 H  pz              0.1       0.2       0.0       0.1       0.6       0.0
 6 H  px              0.1       0.0       0.1       0.0       0.1       0.1
 6 H  py              1.0       0.1       0.0       0.1       0.4       0.1
 7 H  s               0.9       1.9       0.6       0.2       0.5       3.0
 7 H  pz              0.3       0.8       0.0       0.0       0.0       0.9
 7 H  px              0.3       0.1       0.3       0.2       0.1       0.3
 7 H  py              0.3       0.1       0.0       0.2       0.6       0.2
 8 H  s               0.4       0.2       0.6       9.2       1.2       0.1
 8 H  pz              0.2       0.1       0.2       0.2       0.0       0.4
 8 H  py              0.9       0.1       0.7       2.1       0.3       0.1
 9 H  s               1.5       0.5       0.1       1.2       0.4       1.6
 9 H  pz              0.1       0.6       0.4       0.5       0.3       0.1
 9 H  px              0.0       0.0       0.1       0.0       0.0       0.4
 9 H  py              0.2       0.1       0.4       0.6       0.0       0.0
10 H  s               2.3       4.2       0.2       0.5       0.5       0.5
10 H  pz              1.0       1.7       0.8       0.1       0.1       0.2
10 H  px              0.8       0.0       0.1       0.4       0.0       0.0
10 H  py              0.1       1.0       0.0       0.1       0.0       0.0
11 H  s               1.4       0.3       0.8       0.0       1.4       5.0
11 H  pz              0.0       0.0       0.0       0.1       0.0       0.8
11 H  px              0.0       0.5       0.8       0.1       0.4       1.4
11 H  py              0.0       0.0       0.0       0.0       0.1       0.1
12 H  s               2.2       0.0       1.0       0.4       1.3       1.4
12 H  pz              1.0       0.0       0.0       0.1       0.5       0.5
12 H  px              0.6       0.2       0.1       0.0       0.0       0.0
12 H  py              0.0       0.0       0.0       0.1       0.3       0.4
13 H  s               0.4       0.6       0.9       0.3       6.6       3.7
13 H  pz              0.1       0.2       0.0       0.0       0.6       0.1
13 H  px              0.2       0.0       0.1       0.0       0.1       0.0
13 H  py              0.3       0.4       0.7       0.2       1.7       0.6
14 H  s               1.2       4.7       2.4       0.6       0.2       0.7
14 H  pz              0.7       2.1       0.5       0.0       0.1       0.0
14 H  px              0.0       0.0       0.1       0.8       0.4       0.2
14 H  py              0.0       0.3       0.2       0.5       0.1       0.0
15 H  s               0.1       0.2       0.5       3.0       3.5       2.3
15 H  pz              0.1       0.1       0.8       0.1       0.6       0.4
15 H  px              0.0       0.1       0.0       0.1       0.3       0.3
15 H  py              0.0       0.2       0.1       0.8       0.1       0.3
16 H  s               1.1       1.0       0.5       6.0       1.0       4.1
16 H  pz              0.0       0.1       0.1       1.0       0.0       0.0
16 H  px              0.2       0.0       0.0       0.6       0.1       0.5
16 H  py              0.5       0.0       0.1       0.0       0.0       0.6

                     30        31        32        33        34        35   
                   0.17498   0.19125   0.20291   0.20936   0.21649   0.22215
                   0.00000   0.00000   0.00000   0.00000   0.00000   0.00000
                  --------  --------  --------  --------  --------  --------
 0 C  s               2.2       0.4       0.3       0.0       0.1       0.5
 0 C  pz              1.6      11.0       8.2      27.0       4.8       6.1
 0 C  px              6.8       0.2       2.3       1.4       0.8       5.4
 0 C  py              0.3       1.0      20.1       2.4       4.8       2.8
 0 C  dz2             0.6       2.5       0.2       0.0       0.1       0.8
 0 C  dxz             0.2       0.0       0.0       0.8       0.0       0.1
 0 C  dyz             0.0       0.0       0.0       0.1       0.0       0.1
 0 C  dx2y2           0.0       0.2       0.1       0.2       0.2       0.1
 0 C  dxy             0.2       0.0       0.5       0.0       0.7       0.8
 1 C  s               0.5       0.2       1.1       0.1       0.2       2.8
 1 C  pz              2.3       0.7       1.1       4.1       3.1       2.7
 1 C  px              2.7       2.2       3.3       0.5       0.7       3.3
 1 C  py              1.7       2.8       0.2       3.8       3.2       1.7
 1 C  dz2             0.0       0.1       0.2       0.6       0.0       0.7
 1 C  dxz             0.6       0.1       0.0       0.1       0.0       0.0
 1 C  dyz             0.1       0.3       0.0       0.0       0.1       0.0
 1 C  dx2y2           0.0       0.0       0.2       0.0       0.7       0.2
 1 C  dxy             0.2       0.6       0.2       0.0       0.1       0.3
 2 C  s               0.7       0.3       0.8       2.4       0.3       0.4
 2 C  pz              0.4       3.1       0.5       4.2       3.5       3.5
 2 C  px              4.7       2.9       0.4       0.6       2.6       0.9
 2 C  py              4.1       0.1       0.7       0.3       3.5       0.8
 2 C  dz2             0.0       0.1       0.0       0.0       0.0       0.1
 2 C  dxz             0.3       0.0       0.2       0.1       0.0       0.7
 2 C  dyz             0.4       0.3       0.2       0.0       0.1       0.0
 2 C  dxy             0.4       0.3       0.1       0.1       0.0       0.0
 3 C  s               0.1       0.2       0.1       0.1       0.3       0.3
 3 C  pz              0.3       6.0       9.9      17.7       6.8       3.9
 3 C  px              0.5       1.4       4.4       1.3      10.3       1.1
 3 C  py             10.9       1.5       1.5       0.2       0.1       1.2
 3 C  dz2             0.0       0.4       1.5       0.2       1.8       0.6
 3 C  dxz             0.2       0.0       0.7       0.0       0.3       0.2
 3 C  dyz             0.8       0.0       0.1       0.3       0.0       0.2
 3 C  dx2y2           0.3       0.0       0.1       0.0       0.0       0.0
 3 C  dxy             0.2       0.1       0.8       0.3       0.1       0.0
 4 C  s               1.6       0.8       0.6       0.0       0.9       0.6
 4 C  pz              5.1       7.7       0.5       0.3       2.4       9.4
 4 C  px             21.8       0.4       0.0       0.5       1.2       0.4
 4 C  py              1.2       0.9       0.1       2.9       6.6       0.3
 4 C  dz2             0.6       1.2       0.0       0.0       0.2       1.1
 4 C  dxz             0.0       0.1       0.0       0.0       0.2       0.2
 4 C  dyz             0.0       0.1       0.1       0.0       0.1       0.2
 4 C  dx2y2           0.0       0.3       0.0       0.2       0.7       0.4
 4 C  dxy             0.1       0.1       0.0       0.0       0.0       0.0
 5 H  s               4.4       0.4       1.4       4.2       4.6       4.4
 5 H  pz              0.1       0.7       0.0       0.9       0.0       0.8
 5 H  px              0.7       0.1       0.1       1.1       1.5       0.2
 5 H  py              0.9       0.4       0.8       0.0       0.4       0.1
 6 H  s               1.5       4.4       1.2       2.1       0.7       1.0
 6 H  pz              0.0       0.6       0.4       0.0       0.1       0.2
 6 H  px              0.1       0.0       0.4       0.0       0.5       0.5
 6 H  py              0.7       1.5       0.1       0.2       0.1       0.0
 7 H  s               1.0      14.4       1.2       0.8       1.8       4.4
 7 H  pz              0.0       3.3       0.0       0.7       0.6       0.5
 7 H  px              0.1       0.0       0.0       0.5       0.1       0.2
 7 H  py              0.0       0.0       0.0       0.2       0.0       0.1
 8 H  s               0.3       0.3       0.5       3.0       2.8       0.5
 8 H  pz              0.0       0.1       0.0       0.0       0.0       0.6
 8 H  px              0.0       0.5       0.4       0.0       0.0       0.5
[...]
 2 C  s               0.2       0.0       0.1       0.1       0.1       1.9
 2 C  pz              0.1       0.0       0.9       0.4       0.5       7.0
 2 C  px              0.5       0.0       2.9       1.6       0.3       0.1
 2 C  py              1.1       0.1       0.6       2.5       1.4       0.3
 2 C  dz2             0.0       0.0       0.6       1.6       1.1      17.0
 2 C  dxz             0.2       0.0       2.6       0.5       0.0       1.1
 2 C  dyz             0.5       0.3       0.0       1.5       0.4       0.1
 2 C  dx2y2           0.2       0.0       0.2       2.6       1.4       0.1
 2 C  dxy             0.6       0.1       4.6       0.1       0.2       0.0
 3 C  s               0.3       0.0       0.9       0.0       0.6       0.3
 3 C  pz              0.1       3.7       0.4       0.7       0.4       0.6
 3 C  px              0.1       1.4       2.1       0.1       1.6       0.6
 3 C  py              2.3       0.9       1.2       0.4       0.0       0.5
 3 C  dz2             0.0       5.3       0.1       1.8       2.0       2.5
 3 C  dxz             0.2       4.1       1.0       0.0       0.1       0.0
 3 C  dyz             1.4       0.3       0.2       0.5       0.1       0.1
 3 C  dx2y2           4.1       1.8       0.3       1.5       0.1       0.3
 3 C  dxy             0.0       1.4       2.8       0.0       0.9       0.3
 4 C  s               0.3       0.1       0.1       0.8       0.3       0.1
 4 C  pz              1.5       3.4       0.0       1.1       0.3       0.6
 4 C  px              2.5       2.4       5.8       0.4       0.1       0.2
 4 C  py              0.2       0.1       1.5       2.0       0.9       0.1
 4 C  dz2             4.5       5.3       0.1       3.3       0.5       2.4
 4 C  dxz             0.7       2.8       3.0       0.1       0.0       0.0
 4 C  dyz             0.0       0.5       0.4       0.6       0.5       0.0
 4 C  dx2y2           0.3       0.6       0.0       2.0       0.5       0.0
 4 C  dxy             2.5       3.1       9.7       0.2       0.4       0.1
 5 H  s               5.5       0.2       0.9       1.7       0.1       0.0
 5 H  pz              2.8       0.3       0.5       0.3       0.1       0.0
 5 H  px              7.5       0.2       1.2       3.3       0.0       0.0
 5 H  py              3.1       0.0       0.8       0.4       0.2       0.0
 6 H  s               2.2       0.8       0.3       1.0       2.1       0.1
 6 H  pz              1.2       0.1       0.0       0.6       0.4       0.0
 6 H  px              0.2       0.1       0.4       0.0       0.0       0.2
 6 H  py              4.2       1.9       0.4       2.2       5.3       0.2
 7 H  s               0.2       0.6       0.2       1.7       1.1       0.2
 7 H  pz              0.3       1.7       0.9       4.7       2.2       0.6
 7 H  px              0.2       0.0       0.1       0.0       0.4       0.0
 7 H  py              0.4       0.0       0.0       0.1       0.0       0.0
 8 H  s               0.1       0.1       0.2       0.4       6.4       0.4
 8 H  pz              0.1       0.0       0.0       0.4       0.9       0.0
 8 H  px              0.0       0.2       0.3       0.1       0.0       0.1
 8 H  py              0.2       0.0       0.4       1.5      15.2       0.7
 9 H  s               0.1       0.0       0.1       2.3       1.5       3.6
 9 H  pz              0.1       0.0       0.2       6.6       2.9       9.6
 9 H  px              0.0       0.0       0.1       0.1       0.3       0.0
 9 H  py              0.2       0.3       0.0       0.2       0.2       0.0
10 H  s               0.1       0.0       0.5       0.6       0.4       6.6
10 H  pz              0.3       0.0       1.3       1.7       1.0      17.6
10 H  px              0.4       0.1       0.1       0.0       0.1       0.3
11 H  s               0.7       4.3       0.6       0.1       0.2       0.0
11 H  pz              0.3       1.5       0.3       0.1       0.2       0.0
11 H  px              1.2       6.8       0.9       0.1       0.2       0.2
11 H  py              0.1       1.6       0.7       0.0       0.2       0.0
12 H  s               0.0       3.0       0.2       0.8       0.5       0.7
12 H  pz              0.1       6.8       0.3       1.8       1.6       2.0
12 H  px              0.0       0.5       0.3       0.1       0.0       0.1
12 H  py              0.1       0.0       0.2       0.0       0.0       0.0
13 H  s               1.8       0.1       0.5       1.0       0.2       0.0
13 H  pz              0.9       0.4       0.1       0.1       0.0       0.0
13 H  px              0.1       0.1       0.2       0.0       0.1       0.1
13 H  py              3.8       0.2       1.2       2.2       0.3       0.0
14 H  s               1.5       2.7       0.0       1.1       0.3       0.7
14 H  pz              3.7       6.3       0.0       3.3       0.7       2.0
14 H  px              0.0       0.5       0.3       0.0       0.1       0.0
14 H  py              0.0       0.0       0.0       0.0       0.1       0.1
15 H  s               0.5       4.1       2.5       0.3       0.2       0.0
15 H  pz              0.7       1.3       1.3       0.3       0.1       0.0
15 H  px              0.5       6.6       2.7       0.7       0.4       0.0
15 H  py              0.1       1.4       1.9       0.0       0.0       0.0
16 H  s               2.2       0.3       5.3       0.1       0.2       0.2
16 H  pz              0.4       0.6       1.2       0.0       0.0       0.1
16 H  px              3.2       0.2       7.5       0.0       0.7       0.1
16 H  py              2.0       0.3       4.6       0.2       0.0       0.5

                    150       151       152       153       154   
                  21.92720  21.93835  21.99901  22.02300  22.07492
                   0.00000   0.00000   0.00000   0.00000   0.00000
                  --------  --------  --------  --------  --------
 0 C  s               1.3      93.6       2.8       0.0       2.0
 1 C  s              11.0       0.0       7.7      79.6       1.4
 2 C  s               1.2       2.3       0.0       2.8      93.5
 3 C  s              41.3       3.5      53.8       0.0       1.0
 4 C  s              44.8       0.2      35.5      17.3       1.9


                      *****************************
                      * MAYER POPULATION ANALYSIS *
                      *****************************

  NA   - Mulliken gross atomic population
  ZA   - Total nuclear charge
  QA   - Mulliken gross atomic charge
  VA   - Mayer's total valence
  BVA  - Mayer's bonded valence
  FA   - Mayer's free valence

  ATOM       NA         ZA         QA         VA         BVA        FA
  0 C      6.4992     6.0000    -0.4992     3.8360     3.8360    -0.0000
  1 C      6.2228     6.0000    -0.2228     3.5631     3.5631    -0.0000
  2 C      6.0272     6.0000    -0.0272     3.4980     3.4980    -0.0000
  3 C      6.4713     6.0000    -0.4713     3.7524     3.7524    -0.0000
  4 C      6.4986     6.0000    -0.4986     3.7759     3.7759     0.0000
  5 H      0.8541     1.0000     0.1459     0.9623     0.9623    -0.0000
  6 H      0.8524     1.0000     0.1476     0.9630     0.9630     0.0000
  7 H      0.8555     1.0000     0.1445     0.9635     0.9635    -0.0000
  8 H      0.8630     1.0000     0.1370     0.9639     0.9639     0.0000
  9 H      0.8643     1.0000     0.1357     0.9682     0.9682    -0.0000
 10 H      0.8628     1.0000     0.1372     0.9609     0.9609     0.0000
 11 H      0.8551     1.0000     0.1449     0.9647     0.9647     0.0000
 12 H      0.8567     1.0000     0.1433     0.9674     0.9674    -0.0000
 13 H      0.8558     1.0000     0.1442     0.9657     0.9657    -0.0000
 14 H      0.8520     1.0000     0.1480     0.9664     0.9664    -0.0000
 15 H      0.8576     1.0000     0.1424     0.9655     0.9655    -0.0000
 16 H      0.8517     1.0000     0.1483     0.9637     0.9637     0.0000

  Mayer bond orders larger than 0.100000
B(  0-C ,  1-C ) :   0.8980 B(  0-C ,  5-H ) :   0.9728 B(  0-C ,  6-H ) :   0.9843 
B(  0-C ,  7-H ) :   0.9857 B(  1-C ,  2-C ) :   0.9092 B(  1-C ,  8-H ) :   0.9702 
B(  1-C ,  9-H ) :   0.9725 B(  2-C ,  3-C ) :   0.9139 B(  2-C ,  4-C ) :   0.9016 
B(  2-C , 10-H ) :   0.9603 B(  3-C , 11-H ) :   0.9772 B(  3-C , 12-H ) :   0.9838 
B(  3-C , 13-H ) :   0.9781 B(  4-C , 14-H ) :   0.9862 B(  4-C , 15-H ) :   0.9709 
B(  4-C , 16-H ) :   0.9759 

-------
TIMINGS
-------

Total SCF time: 0 days 0 hours 0 min 11 sec 

Total time                  ....      11.977 sec
Sum of individual times     ....      11.951 sec  ( 99.8%)

SCF preparation             ....       1.395 sec  ( 11.6%)
Fock matrix formation       ....       6.596 sec  ( 55.1%)
  Startup                   ....       0.007 sec  (  0.1% of F)
  Split-RI-J                ....       1.073 sec  ( 16.3% of F)
  XC integration            ....       5.440 sec  ( 82.5% of F)
    XC Preparation          ....       0.000 sec  (  0.0% of XC)
    Basis function eval.    ....       1.060 sec  ( 19.5% of XC)
    Density eval.           ....       1.655 sec  ( 30.4% of XC)
    XC-Functional eval.     ....       0.796 sec  ( 14.6% of XC)
    XC-Potential eval.      ....       1.721 sec  ( 31.6% of XC)
Diagonalization             ....       0.000 sec  (  0.0%)
Density matrix formation    ....       0.028 sec  (  0.2%)
Total Energy calculation    ....       0.001 sec  (  0.0%)
Population analysis         ....       3.837 sec  ( 32.0%)
Orbital Transformation      ....       0.015 sec  (  0.1%)
Orbital Orthonormalization  ....       0.000 sec  (  0.0%)
DIIS solution               ....       0.066 sec  (  0.5%)
  MO trafo                  ....       0.000 sec  (  0.0 % of DIIS)
  Orb grad                  ....       0.000 sec  (  0.0 % of DIIS)
  Energy W gradient         ....       0.000 sec  (  0.0 % of DIIS)
  DIIS error                ....       0.003 sec  (  4.6 % of DIIS)
  DIIS work                 ....       0.054 sec  ( 82.7 % of DIIS)
  Form Q                    ....       0.000 sec  (  0.0 % of DIIS)
  Form QpQm                 ....       0.000 sec  (  0.0 % of DIIS)
  Exp/Cayley                ....       0.000 sec  (  0.0 % of DIIS)
  Orb update                ....       0.000 sec  (  0.0 % of DIIS)
  Wake-sleep                ....       0.001 sec  (  1.3 % of DIIS)
SOSCF solution              ....       0.013 sec  (  0.1%)
  MO trafo                  ....       0.010 sec  ( 75.5 % of SOSCF)
  Orb grad                  ....       0.000 sec  (  0.6 % of SOSCF)
  Rot update                ....       0.000 sec  (  0.1 % of SOSCF)
  Step                      ....       0.003 sec  ( 23.4 % of SOSCF)
Finished LeanSCF after  15.6 sec

Maximum memory used throughout the entire LEANSCF-calculation: 17.5 MB


-------------------------------------------------------------------------------
                          DFT DISPERSION CORRECTION                            
                                                                               
                                DFTD4 V3.4.0                                   
-------------------------------------------------------------------------------
The R2SCAN3C composite method is recognized
Using three-body term ABC
Active option DFTDOPT                   ...         5   

-------------------------   ----------------
Dispersion correction           -0.003877146
-------------------------   ----------------

------------------   -----------------
gCP correction             0.008137736
------------------   -----------------

-------------------------   --------------------
FINAL SINGLE POINT ENERGY      -197.689456055015
-------------------------   --------------------


------------------------------------------------------------------------------
                              ORCA PROPERTY CALCULATIONS
------------------------------------------------------------------------------

GBWName                                 ... sp.gbw
Number of atoms                         ...     17
Number of basis functions               ...    155
Max core memory                         ...   1024 MB

Electric properties:
Dipole moment                           ... YES
Quadrupole moment                       ...  NO
Static polarizability (Dipole/Dipole)   ...  NO
Static polarizability (Dipole/Quad.)    ...  NO
Static polarizability (Quad./Quad.)     ...  NO
Static polarizability (Velocity)        ...  NO

Atomic electric properties:
Dipole moment                           ...  NO
Quadrupole moment                       ...  NO
Static polarizability                   ...  NO

Choice of electric origin               ... Center of mass
Position of electric origin             ...    -0.000000    -0.000001     0.000001

General magnetic properties:
Magnetizability                         ...  NO

EPR properties:
g-Tensor (aka g-matrix)                 ...  NO
Zero-Field splitting spin-orbit         ...  NO
Zero-field splitting spin-spin          ...  NO
Hyperfine couplings                     ...  NO (   0 nuclei)
Quadrupole couplings                    ...  NO (   0 nuclei)
Contact density                         ...  NO (   0 nuclei)

NMR properties:
Chemical shifts                         ...  NO (   0 nuclei)
Spin-rotation constants                 ...  NO (   0 nuclei)
Spin-spin couplings                     ...  NO (   0 nuclei,    0 pairs)

Choice of magnetic origin               ... GIAO
Position of magnetic origin             ...     0.000000     0.000000     0.000000

Properties with geometric perturbations:
SCF Hessian                             ...  NO
IR spectrum                             ...  NO
VCD spectrum                            ...  NO
X-ray spectroscopy properties:
SCF XES/XAS/RIXS spectra                ...  NO


-------------
DIPOLE MOMENT
-------------

Method             : SCF
Type of density    : Electron Density
Multiplicity       :   1
Irrep              :   0
Energy             :  -197.6937166451748169 Eh
Relativity type    : 
Basis              : AO
                                X                 Y                 Z
Electronic contribution:      0.097181527       0.450478300      -0.288874325
Nuclear contribution   :     -0.108515182      -0.431243245       0.264597097
                        -----------------------------------------
Total Dipole Moment    :     -0.011333654       0.019235055      -0.024277228
                        -----------------------------------------
Magnitude (a.u.)       :      0.032982160
Magnitude (Debye)      :      0.083833988



--------------------
Rotational spectrum 
--------------------
 
Rotational constants in cm-1:             0.245553             0.112944             0.086652 
Rotational constants in MHz :          7361.494082          3385.988747          2597.771997 

Dipole components along the rotational axes: 
x,y,z [a.u.] :     0.011334     0.019235    -0.024277 
x,y,z [Debye]:     0.028808     0.048892    -0.061708 

 

Dipole moment calculation done in   1.0 sec 

Maximum memory used throughout the entire PROP-calculation: 9.5 MB

--------------------------------
SUGGESTED CITATIONS FOR THIS RUN
--------------------------------

Below you find a list of papers that are relevant to this ORCA run
We neither can nor want to force you to cite these papers, but we appreciate if you do
You receive ORCA, which is the product of decades of hard work by many enthusiastic individuals, for free
The only thing we kindly ask in return is that you cite our papers,
We deeply appreciate it, if you show your appreciation for ORCA by not just citing the generic ORCA reference.

Please note that relegating all ORCA citations to the supporting information does *not* help us.
SI sections are not indexed - citations you put there will not count into any citation statistics
But we need these citations in order to attract the funding resources that allow us to do what we are doing

Therefore, if you are a happy ORCA user, please consider citing a few of the papers listed below in the main body of your paper

In addition to the list printed below, the program has created the file sp.bibtex that contains the list in bibtex format
You can import this file easily into all common literature databanks and citation aid programs


List of essential papers. We consider these as the minimum necessary citations

  1. Neese,F.
     Software update: the ORCA program system, version 5.0
     WIRES Comput. Molec. Sci., 2022 12(1)e1606
     doi.org/10.1002/wcms.1606
  2. Grimme,S.; Hansen,A.; Ehlert,S.; Mewes,J.
     r2SCAN-3c: A 'Swiss army knife' composite electronic-structure method
     J. Chem. Phys., 2021 154 064103
     doi.org/10.1063/5.0040021

List of papers to cite with high priority. The work reported in these papers was absolutely
necessary for this run to complete.
Our perspective: the developers of density functionals and basis sets usually get cited in chemistry papers
Good! But without the algorithms to do something with them, the functionals or basis sets would not do anything.
Hence, in our opinion, the algorithm design and method developments papers are equally worthy of getting cited

  1. Neese,F.
     An improvement of the resolution of the identity approximation for the formation of the Coulomb matrix
     J. Comp. Chem., 2003 24(14)1740-1747
     doi.org/10.1002/jcc.10318
  2. Neese,F.
     The SHARK Integral Generation and Digestion System
     J. Comp. Chem., 2022  1-16
     doi.org/10.1002/jcc.26942
  3. Lehtola,S.; Steigemann,C.; Oliveira,M.; Marques,M.
     Recent developments in Libxc - A comprehensive library of functionals for density functional theory
     Software X, 2018 7 
     doi.org/10.1016/j.softx.2017.11.002
  4. Caldeweyher,E.; Bannwarth,C.; Grimme,S.
     Extension of the D3 dispersion coefficient model
     J. Chem. Phys., 2017 147 034112
     doi.org/10.1063/1.4993215
  5. Caldeweyher,E.; Ehlert,S.; Hansen,A.; Neugebauer,H.; Spicher,S.; Bannwarth,C.; Grimme,S.
     A generally applicable atomic-charge dependent London dispersion correction
     J. Chem. Phys., 2019 150 154122
     doi.org/10.1063/1.5090222
  6. Caldeweyher,E.; Mewes,J.; Ehlert,S.; Grimme,S.
     Extension and evaluation of the D4 London-dispersion model for periodic systems
     Phys. Chem. Chem. Phys., 2020 22(16)8499-8512
     doi.org/10.1039/D0CP00502A
  7. Wittmann,L.; Gordiy,I.; Friede,M.; Helmich-Paris,B.; Grimme,S.; Hansen,A.; Bursch,M.
     Extension of the D3 and D4 London Dispersion Corrections to the full Actinides Series
     Phys. Chem. Chem. Phys., 2024 26(32)21379-21394
     doi.org/https://doi.org/10.1039/D4CP01514B 

List of suggested additional citations. These are papers that are important in the 'surrounding' of 
of this run, or papers that preceded the highly important papers. If you like your results we are grateful for a citation.

  1. Neese,F.
     The ORCA program system
     WIRES Comput. Molec. Sci., 2012 2(1)73-78
     doi.org/10.1002/wcms.81
  2. Neese,F.
     Software update: the ORCA program system, version 4.0
     WIRES Comput. Molec. Sci., 2018 8(1)1-6
     doi.org/10.1002/wcms.1327
  3. Neese,F.; Wennmohs,F.; Becker,U.; Riplinger,C.
     The ORCA quantum chemistry program package
     J. Chem. Phys., 2020 152 Art. No. L224108
     doi.org/10.1063/5.0004608

List of optional additional citations

  1. Neese,F.
     Approximate second-order SCF convergence for spin unrestricted wavefunctions
     Chem. Phys. Lett., 2000 325(1-3)93-98
     doi.org/10.1016/s0009-2614(00)00662-x

Timings for individual modules:

Sum of individual times          ...       17.272 sec (=   0.288 min)
Startup calculation              ...        0.580 sec (=   0.010 min)   3.4 %
SCF iterations                   ...       15.685 sec (=   0.261 min)  90.8 %
Property calculations            ...        1.007 sec (=   0.017 min)   5.8 %
                             ****ORCA TERMINATED NORMALLY****
TOTAL RUN TIME: 0 days 0 hours 0 minutes 20 seconds 604 msec
