      -----------------------------------------------------------      
     |                   =====================                   |     
     |                           x T B                           |     
     |                   =====================                   |     
     |                         S. Grimme                         |     
     |          Mulliken Center for Theoretical Chemistry        |     
     |                    University of Bonn                     |     
      -----------------------------------------------------------      

   * xtb version 6.7.1 (edcfbbe) compiled by 'albert@albert-system' on 2024-07-22

   xtb is free software: you can redistribute it and/or modify it under
   the terms of the GNU Lesser General Public License as published by
   the Free Software Foundation, either version 3 of the License, or
   (at your option) any later version.
   
   xtb is distributed in the hope that it will be useful,
   but WITHOUT ANY WARRANTY; without even the implied warranty of
   MERCHANTABILITY or FITNESS FOR A PARTICULAR PURPOSE.  See the
   GNU Lesser General Public License for more details.
   
   Cite this work as:
   * C. Bannwarth, E. Caldeweyher, S. Ehlert, A. Hansen, P. Pracht,
     J. Seibert, S. Spicher, S. Grimme, WIREs Comput. Mol. Sci., 2020, 11,
     e01493. DOI: 10.1002/wcms.1493
   
   for GFN2-xTB:
   * C. Bannwarth, S. Ehlert and S. Grimme., J. Chem. Theory Comput., 2019,
     15, 1652-1671. DOI: 10.1021/acs.jctc.8b01176
   for GFN1-xTB:
   * S. Grimme, C. Bannwarth, P. Shushkov, J. Chem. Theory Comput., 2017,
     13, 1989-2009. DOI: 10.1021/acs.jctc.7b00118
   for GFN0-xTB:
   * P. Pracht, E. Caldeweyher, S. Ehlert, S. Grimme, ChemRxiv, 2019, preprint.
     DOI: 10.26434/chemrxiv.8326202.v1
   for GFN-FF:
   * S. Spicher and S. Grimme, Angew. Chem. Int. Ed., 2020, 59, 15665-15673.
     DOI: 10.1002/anie.202004239
   
   for ALPB and GBSA implicit solvation:
   * S. Ehlert, M. Stahn, S. Spicher, S. Grimme, J. Chem. Theory Comput.,
     2021, 17, 4250-4261. DOI: 10.1021/acs.jctc.1c00471
   
   for ddCOSMO and CPCM-X implicit solvation:
   * M. Stahn, S. Ehlert, S. Grimme, J. Phys. Chem. A,
     2023, XX, XXXX-XXXX. DOI: 10.1021/acs.jpca.3c04382
   
   for DFT-D4:
   * E. Caldeweyher, C. Bannwarth and S. Grimme, J. Chem. Phys., 2017,
     147, 034112. DOI: 10.1063/1.4993215
   * E. Caldeweyher, S. Ehlert, A. Hansen, H. Neugebauer, S. Spicher,
     C. Bannwarth and S. Grimme, J. Chem. Phys., 2019, 150, 154122.
     DOI: 10.1063/1.5090222
   * E. Caldeweyher, J.-M. Mewes, S. Ehlert and S. Grimme, Phys. Chem. Chem. Phys.
     2020, 22, 8499-8512. DOI: 10.1039/D0CP00502A
   
   for sTDA-xTB:
   * S. Grimme and C. Bannwarth, J. Chem. Phys., 2016, 145, 054103.
     DOI: 10.1063/1.4959605
   
   in the mass-spec context:
   * V. Asgeirsson, C. Bauer and S. Grimme, Chem. Sci., 2017, 8, 4879.
     DOI: 10.1039/c7sc00601b
   * J. Koopman and S. Grimme, ACS Omega 2019, 4, 12, 15120-15133.
     DOI: 10.1021/acsomega.9b02011
   
   for metadynamics refer to:
   * S. Grimme, J. Chem. Theory Comput., 2019, 155, 2847-2862
     DOI: 10.1021/acs.jctc.9b00143
   
   for SPH calculations refer to:
   * S. Spicher and S. Grimme, J. Chem. Theory Comput., 2021, 17, 1701-1714
     DOI: 10.1021/acs.jctc.0c01306
   
   for ONIOM refer to:
   * C. Plett, A. Katbashev, S. Ehlert, S. Grimme, M. Bursch,
     Phys. Chem. Chem. Phys., 2023, 25, 17860-17868. DOI: 10.1039/D3CP02178E
   
   for DIPRO refer to:
   * J. Kohn, N. Gildemeister, S. Grimme, D. Fazzi, A. Hansen,
     J. Chem. Phys., 2023, just accepted.
   
   for PTB refer to:
   * S. Grimme, M. Mueller, A. Hansen, J. Chem. Phys., 2023, 158, 124111.
     DOI: 10.1063/5.0137838
   
   with help from (in alphabetical order)
   P. Atkinson, C. Bannwarth, F. Bohle, G. Brandenburg, E. Caldeweyher
   M. Checinski, S. Dohm, S. Ehlert, S. Ehrlich, I. Gerasimov, C. Hölzer
   A. Katbashev, J. Kohn, J. Koopman, C. Lavigne, S. Lehtola, F. März, M. Müller,
   F. Musil, H. Neugebauer, J. Pisarek, C. Plett, P. Pracht, F. Pultar,
   J. Seibert, P. Shushkov, S. Spicher, M. Stahn, M. Steiner, T. Strunk,
   J. Stückrath, T. Rose, and J. Unsleber
   
 * started run on 2025/04/15 at 19:39:27.354     
   ID    Z sym.   atoms
    1    6 C      1-12
    2   17 Cl     13-18
    3    1 H      19-22

           -------------------------------------------------
          |                Calculation Setup                |
           -------------------------------------------------

          program call               : /software/projects/pawsey0265/mwang1/xtb/bin/xtb xtb_rrho.coord --gfn2 --ohess vtight --chrg 0 --enso --norestart -I rrho-xcontrol-inp --parallel 1
          hostname                   : nid002793
          coordinate file            : xtb_rrho.coord
          omp threads                :                     1


           -------------------------------------------------
          |                 G F N 2 - x T B                 |
           -------------------------------------------------

        Reference                      10.1021/acs.jctc.8b01176
      * Hamiltonian:
        H0-scaling (s, p, d)           1.850000    2.230000    2.230000
        zeta-weighting                 0.500000
      * Dispersion:
        s8                             2.700000
        a1                             0.520000
        a2                             5.000000
        s9                             5.000000
      * Repulsion:
        kExp                           1.500000    1.000000
        rExp                           1.000000
      * Coulomb:
        alpha                          2.000000
        third order                    shell-resolved
        anisotropic                    true
        a3                             3.000000
        a5                             4.000000
        cn-shift                       1.200000
        cn-exp                         4.000000
        max-rad                        5.000000


          ...................................................
          :                      SETUP                      :
          :.................................................:
          :  # basis functions                 112          :
          :  # atomic orbitals                 106          :
          :  # shells                           46          :
          :  # electrons                        94          :
          :  max. iterations                   250          :
          :  Hamiltonian                  GFN2-xTB          :
          :  restarted?                      false          :
          :  GBSA solvation                  false          :
          :  PC potential                    false          :
          :  electronic temp.          300.0000000     K    :
          :  accuracy                    1.0000000          :
          :  -> integral cutoff          0.2500000E+02      :
          :  -> integral neglect         0.1000000E-07      :
          :  -> SCF convergence          0.1000000E-05 Eh   :
          :  -> wf. convergence          0.1000000E-03 e    :
          :  Broyden damping             0.4000000          :
          :  net charge                          0          :
          :  unpaired electrons                  0          :
          ...................................................

 iter      E             dE          RMSdq      gap      omega  full diag
   1    -55.5156140 -0.555156E+02  0.505E+00    3.57       0.0  T
   2    -55.5598039 -0.441898E-01  0.292E+00    3.17       1.0  T
   3    -55.5471616  0.126422E-01  0.126E+00    3.21       1.0  T
   4    -55.5639009 -0.167392E-01  0.430E-01    3.25       1.0  T
   5    -55.5681782 -0.427729E-02  0.111E-01    3.18       1.0  T
   6    -55.5682762 -0.979811E-04  0.716E-02    3.20       1.0  T
   7    -55.5683004 -0.242401E-04  0.454E-02    3.20       1.0  T
   8    -55.5683112 -0.107623E-04  0.324E-02    3.20       1.0  T
   9    -55.5683171 -0.590860E-05  0.166E-02    3.20       1.3  T
  10    -55.5683201 -0.302866E-05  0.728E-03    3.20       2.9  T
  11    -55.5683204 -0.268967E-06  0.352E-03    3.20       6.1  T
  12    -55.5683205 -0.894673E-07  0.255E-03    3.20       8.4  T
  13    -55.5683205 -0.451765E-07  0.169E-03    3.20      12.6  T
  14    -55.5683205 -0.237022E-07  0.108E-03    3.20      19.7  T
  15    -55.5683205 -0.124521E-07  0.508E-04    3.20      42.0  T
  16    -55.5683205 -0.250225E-08  0.283E-04    3.20      75.4  T

   *** convergence criteria satisfied after 16 iterations ***

         #    Occupation            Energy/Eh            Energy/eV
      -------------------------------------------------------------
         1        2.0000           -1.0785586             -29.3491
       ...           ...                  ...                  ...
        41        2.0000           -0.4385860             -11.9345
        42        2.0000           -0.4340573             -11.8113
        43        2.0000           -0.4333065             -11.7909
        44        2.0000           -0.4294440             -11.6858
        45        2.0000           -0.4212411             -11.4626
        46        2.0000           -0.4175171             -11.3612
        47        2.0000           -0.4095031             -11.1431 (HOMO)
        48                         -0.2919753              -7.9451 (LUMO)
        49                         -0.2813730              -7.6565
        50                         -0.2657096              -7.2303
        51                         -0.2572270              -6.9995
        52                         -0.1947536              -5.2995
       ...                                ...                  ...
       106                          0.5998129              16.3217
      -------------------------------------------------------------
                  HL-Gap            0.1175278 Eh            3.1981 eV
             Fermi-level           -0.3507392 Eh           -9.5441 eV

 SCC (total)                   0 d,  0 h,  0 min,  0.070 sec
 SCC setup                      ...        0 min,  0.000 sec (  0.407%)
 Dispersion                     ...        0 min,  0.000 sec (  0.250%)
 classical contributions        ...        0 min,  0.000 sec (  0.057%)
 integral evaluation            ...        0 min,  0.031 sec ( 44.149%)
 iterations                     ...        0 min,  0.026 sec ( 36.588%)
 molecular gradient             ...        0 min,  0.013 sec ( 18.151%)
 printout                       ...        0 min,  0.000 sec (  0.367%)

         :::::::::::::::::::::::::::::::::::::::::::::::::::::
         ::                     SUMMARY                     ::
         :::::::::::::::::::::::::::::::::::::::::::::::::::::
         :: total energy             -55.056280356099 Eh    ::
         :: gradient norm              0.020942162269 Eh/a0 ::
         :: HOMO-LUMO gap              3.198094180441 eV    ::
         ::.................................................::
         :: SCC energy               -55.568335290274 Eh    ::
         :: -> isotropic ES            0.020845822593 Eh    ::
         :: -> anisotropic ES         -0.004609530378 Eh    ::
         :: -> anisotropic XC          0.014077690590 Eh    ::
         :: -> dispersion             -0.034902639531 Eh    ::
         :: repulsion energy           0.512054934175 Eh    ::
         :: add. restraining           0.000000000000 Eh    ::
         :: total charge              -0.000000000000 e     ::
         :::::::::::::::::::::::::::::::::::::::::::::::::::::

      ----------------------------------------------------------- 
     |                   =====================                   |
     |                        A N C O P T                        |
     |                   =====================                   |
     |               Approximate Normal Coordinate               |
     |                Rational Function Optimizer                |
      ----------------------------------------------------------- 
      ----------------------------------------------------------- 
     |                   =====================                   |
     |                        A N C O P T                        |
     |                   =====================                   |
     |               Approximate Normal Coordinate               |
     |                Rational Function Optimizer                |
      ----------------------------------------------------------- 

          ...................................................
          :                      SETUP                      :
          :.................................................:
          :   optimization level         verytight          :
          :   max. optcycles                   440          :
          :   ANC micro-cycles                  20          :
          :   degrees of freedom                60          :
          :.................................................:
          :   RF solver                   davidson          :
          :   write xtbopt.log                true          :
          :   linear?                        false          :
          :   energy convergence         0.1000000E-06 Eh   :
          :   grad. convergence          0.2000000E-03 Eh/α :
          :   maxmium RF displ.          1.0000000          :
          :   Hlow (freq-cutoff)         0.1000000E-01      :
          :   Hmax (freq-cutoff)         5.0000000          :
          :   S6 in model hess.         20.0000000          :
          ...................................................

generating ANC from exact Hessian ...
Using Lindh-Hessian (1995)
 Shifting diagonal of input Hessian by   8.469100644884282E-003
 Lowest  eigenvalues of input Hessian
    0.000000    0.000000    0.000000    0.000000    0.000000    0.000000
    0.010000    0.010086    0.010584    0.015884    0.017367    0.018706
    0.020816    0.024060    0.025874    0.027528    0.030822    0.032258
 Highest eigenvalues
    1.793016    1.837934    1.920684    1.934835    1.975297    2.033359
 

........................................................................
.............................. CYCLE    1 ..............................
........................................................................

 iter      E             dE          RMSdq      gap      omega  full diag
   1    -55.5683205 -0.555683E+02  0.188E-04    3.20       0.0  T
   2    -55.5683205 -0.152895E-09  0.158E-04    3.20     135.3  T
   3    -55.5683205 -0.975007E-10  0.136E-04    3.20     156.6  T
     SCC iter.                  ...        0 min,  0.005 sec
     gradient                   ...        0 min,  0.013 sec
 * total energy  :   -55.0562804 Eh     change       -0.8634018E-09 Eh
   gradient norm :     0.0209420 Eh/α   predicted     0.0000000E+00 (-100.00%)
   displ. norm   :     0.1414874 α      lambda       -0.1793376E-02
   maximum displ.:     0.0601383 α      in ANC's #32, #17, #3, ...

........................................................................
.............................. CYCLE    2 ..............................
........................................................................

 iter      E             dE          RMSdq      gap      omega  full diag
   1    -55.5862752 -0.555863E+02  0.106E-01    3.22       0.0  T
   2    -55.5862864 -0.111430E-04  0.723E-02    3.23       1.0  T
   3    -55.5862696  0.167659E-04  0.409E-02    3.22       1.0  T
   4    -55.5863004 -0.307395E-04  0.158E-02    3.23       1.3  T
   5    -55.5863013 -0.913283E-06  0.125E-02    3.22       1.7  T
   6    -55.5863024 -0.112987E-05  0.328E-03    3.22       6.5  T
   7    -55.5863025 -0.140560E-06  0.168E-03    3.22      12.7  T
   8    -55.5863026 -0.167350E-07  0.111E-03    3.22      19.2  T
   9    -55.5863026 -0.848470E-08  0.762E-04    3.22      28.0  T
  10    -55.5863026 -0.418460E-08  0.460E-04    3.22      46.4  T
     SCC iter.                  ...        0 min,  0.016 sec
     gradient                   ...        0 min,  0.013 sec
 * total energy  :   -55.0574703 Eh     change       -0.1189945E-02 Eh
   gradient norm :     0.0130712 Eh/α   predicted    -0.9146411E-03 ( -23.14%)
   displ. norm   :     0.1208021 α      lambda       -0.4742988E-03
   maximum displ.:     0.0743402 α      in ANC's #3, #4, #2, ...

........................................................................
.............................. CYCLE    3 ..............................
........................................................................

 iter      E             dE          RMSdq      gap      omega  full diag
   1    -55.5929932 -0.555930E+02  0.739E-02    3.22       0.0  T
   2    -55.5930000 -0.672488E-05  0.500E-02    3.22       1.0  T
   3    -55.5929925  0.746000E-05  0.296E-02    3.22       1.0  T
   4    -55.5930077 -0.151398E-04  0.122E-02    3.22       1.8  T
   5    -55.5930082 -0.587844E-06  0.945E-03    3.22       2.3  T
   6    -55.5930088 -0.538647E-06  0.446E-03    3.22       4.8  T
   7    -55.5930090 -0.194423E-06  0.156E-03    3.22      13.7  T
   8    -55.5930090 -0.169051E-07  0.102E-03    3.22      20.9  T
   9    -55.5930090 -0.839427E-08  0.682E-04    3.22      31.3  T
  10    -55.5930090 -0.291267E-08  0.473E-04    3.22      45.1  T
     SCC iter.                  ...        0 min,  0.015 sec
     gradient                   ...        0 min,  0.013 sec
 * total energy  :   -55.0577628 Eh     change       -0.2925423E-03 Eh
   gradient norm :     0.0068717 Eh/α   predicted    -0.2406474E-03 ( -17.74%)
   displ. norm   :     0.0895303 α      lambda       -0.1084821E-03
   maximum displ.:     0.0693448 α      in ANC's #3, #2, #1, ...

........................................................................
.............................. CYCLE    4 ..............................
........................................................................

 iter      E             dE          RMSdq      gap      omega  full diag
   1    -55.5925871 -0.555926E+02  0.444E-02    3.21       0.0  T
   2    -55.5925891 -0.200936E-05  0.281E-02    3.21       1.0  T
   3    -55.5925861  0.300590E-05  0.142E-02    3.21       1.5  T
   4    -55.5925903 -0.419973E-05  0.534E-03    3.21       4.0  T
   5    -55.5925905 -0.228850E-06  0.394E-03    3.21       5.4  T
   6    -55.5925906 -0.614210E-07  0.249E-03    3.21       8.6  T
   7    -55.5925906 -0.601176E-07  0.913E-04    3.21      23.4  T
   8    -55.5925906 -0.607593E-08  0.496E-04    3.21      43.0  T
     SCC iter.                  ...        0 min,  0.012 sec
     gradient                   ...        0 min,  0.013 sec
 * total energy  :   -55.0578385 Eh     change       -0.7566203E-04 Eh
   gradient norm :     0.0022709 Eh/α   predicted    -0.5467687E-04 ( -27.74%)
   displ. norm   :     0.0809226 α      lambda       -0.4821323E-04
   maximum displ.:     0.0620971 α      in ANC's #3, #2, #1, ...

........................................................................
.............................. CYCLE    5 ..............................
........................................................................

 iter      E             dE          RMSdq      gap      omega  full diag
   1    -55.5909477 -0.555909E+02  0.377E-02    3.20       0.0  T
   2    -55.5909483 -0.622694E-06  0.227E-02    3.20       1.0  T
   3    -55.5909472  0.111179E-05  0.721E-03    3.20       3.0  T
   4    -55.5909485 -0.129361E-05  0.227E-03    3.20       9.4  T
   5    -55.5909486 -0.742211E-07  0.145E-03    3.20      14.7  T
   6    -55.5909486 -0.782005E-08  0.104E-03    3.20      20.5  T
   7    -55.5909486 -0.943837E-08  0.554E-04    3.20      38.5  T
   8    -55.5909486 -0.278437E-08  0.291E-04    3.20      73.2  T
     SCC iter.                  ...        0 min,  0.012 sec
     gradient                   ...        0 min,  0.013 sec
 * total energy  :   -55.0578731 Eh     change       -0.3455300E-04 Eh
   gradient norm :     0.0017012 Eh/α   predicted    -0.2430776E-04 ( -29.65%)
   displ. norm   :     0.0986485 α      lambda       -0.2348542E-04
   maximum displ.:     0.0707870 α      in ANC's #3, #2, #1, ...

........................................................................
.............................. CYCLE    6 ..............................
........................................................................

 iter      E             dE          RMSdq      gap      omega  full diag
   1    -55.5895680 -0.555896E+02  0.447E-02    3.19       0.0  T
   2    -55.5895682 -0.156482E-06  0.263E-02    3.20       1.0  T
   3    -55.5895679  0.312548E-06  0.401E-03    3.19       5.3  T
   4    -55.5895682 -0.381176E-06  0.104E-03    3.20      20.5  T
   5    -55.5895683 -0.809518E-08  0.738E-04    3.20      28.9  T
   6    -55.5895683 -0.257455E-08  0.499E-04    3.20      42.7  T
     SCC iter.                  ...        0 min,  0.009 sec
     gradient                   ...        0 min,  0.013 sec
 * total energy  :   -55.0578986 Eh     change       -0.2557166E-04 Eh
   gradient norm :     0.0027101 Eh/α   predicted    -0.1180296E-04 ( -53.84%)
   displ. norm   :     0.0550561 α      lambda       -0.1692248E-04
   maximum displ.:     0.0369661 α      in ANC's #3, #2, #1, ...

........................................................................
.............................. CYCLE    7 ..............................
........................................................................

 iter      E             dE          RMSdq      gap      omega  full diag
   1    -55.5897962 -0.555898E+02  0.246E-02    3.19       0.0  T
   2    -55.5897963 -0.528282E-07  0.145E-02    3.19       1.5  T
   3    -55.5897962  0.778195E-07  0.201E-03    3.19      10.6  T
   4    -55.5897963 -0.994478E-07  0.873E-04    3.19      24.4  T
   5    -55.5897963 -0.613714E-08  0.653E-04    3.19      32.7  T
     SCC iter.                  ...        0 min,  0.008 sec
     gradient                   ...        0 min,  0.013 sec
 * total energy  :   -55.0579130 Eh     change       -0.1436858E-04 Eh
   gradient norm :     0.0019318 Eh/α   predicted    -0.8487583E-05 ( -40.93%)
   displ. norm   :     0.1277850 α      lambda       -0.1979744E-04
   maximum displ.:     0.0840458 α      in ANC's #3, #2, #1, ...

........................................................................
.............................. CYCLE    8 ..............................
........................................................................

 iter      E             dE          RMSdq      gap      omega  full diag
   1    -55.5906230 -0.555906E+02  0.574E-02    3.19       0.0  T
   2    -55.5906233 -0.336127E-06  0.338E-02    3.19       1.0  T
   3    -55.5906229  0.362553E-06  0.450E-03    3.19       4.7  T
   4    -55.5906234 -0.461645E-06  0.179E-03    3.19      11.9  T
   5    -55.5906234 -0.294070E-07  0.130E-03    3.19      16.5  T
   6    -55.5906234 -0.574228E-08  0.866E-04    3.19      24.6  T
   7    -55.5906234 -0.797665E-08  0.412E-04    3.19      51.8  T
     SCC iter.                  ...        0 min,  0.011 sec
     gradient                   ...        0 min,  0.013 sec
 * total energy  :   -55.0579286 Eh     change       -0.1564152E-04 Eh
   gradient norm :     0.0007641 Eh/α   predicted    -0.9972316E-05 ( -36.24%)
   displ. norm   :     0.0198434 α      lambda       -0.1377747E-05
   maximum displ.:     0.0160843 α      in ANC's #2, #3, #6, ...

........................................................................
.............................. CYCLE    9 ..............................
........................................................................

 iter      E             dE          RMSdq      gap      omega  full diag
   1    -55.5907315 -0.555907E+02  0.101E-02    3.19       0.0  T
   2    -55.5907315 -0.193614E-07  0.605E-03    3.19       3.5  T
   3    -55.5907314  0.157160E-06  0.250E-03    3.19       8.5  T
   4    -55.5907316 -0.183463E-06  0.559E-04    3.19      38.1  T
   5    -55.5907316 -0.125318E-08  0.440E-04    3.19      48.5  T
     SCC iter.                  ...        0 min,  0.008 sec
     gradient                   ...        0 min,  0.013 sec
 * total energy  :   -55.0579301 Eh     change       -0.1466780E-05 Eh
   gradient norm :     0.0003100 Eh/α   predicted    -0.6915970E-06 ( -52.85%)
   displ. norm   :     0.0198434 α      lambda        0.0000000E+00
   maximum displ.:     0.0160843 α      in ANC's #2, #3, #6, ...

........................................................................
.............................. CYCLE   10 ..............................
........................................................................

 iter      E             dE          RMSdq      gap      omega  full diag
   1    -55.5908335 -0.555908E+02  0.101E-02    3.18       0.0  T
   2    -55.5908335 -0.211294E-07  0.608E-03    3.18       3.5  T
   3    -55.5908334  0.135548E-06  0.243E-03    3.18       8.8  T
   4    -55.5908335 -0.162425E-06  0.709E-04    3.18      30.1  T
   5    -55.5908335 -0.195682E-08  0.557E-04    3.18      38.3  T
     SCC iter.                  ...        0 min,  0.008 sec
     gradient                   ...        0 min,  0.013 sec
 * total energy  :   -55.0579304 Eh     change       -0.2680846E-06 Eh
   gradient norm :     0.0003176 Eh/α   predicted    -0.4550237E-08 ( -98.30%)
   displ. norm   :     0.0081105 α      lambda       -0.5264516E-06
   maximum displ.:     0.0058932 α      in ANC's #1, #3, #2, ...

........................................................................
.............................. CYCLE   11 ..............................
........................................................................

 iter      E             dE          RMSdq      gap      omega  full diag
   1    -55.5907162 -0.555907E+02  0.376E-03    3.18       0.0  T
   2    -55.5907162 -0.309482E-08  0.225E-03    3.18       9.5  T
   3    -55.5907162  0.194575E-07  0.886E-04    3.18      24.1  T
   4    -55.5907162 -0.229254E-07  0.193E-04    3.18     110.2  T
     SCC iter.                  ...        0 min,  0.006 sec
     gradient                   ...        0 min,  0.013 sec
 * total energy  :   -55.0579310 Eh     change       -0.6423299E-06 Eh
   gradient norm :     0.0001928 Eh/α   predicted    -0.2639761E-06 ( -58.90%)
   displ. norm   :     0.0173251 α      lambda       -0.7671895E-06
   maximum displ.:     0.0125015 α      in ANC's #1, #3, #2, ...

........................................................................
.............................. CYCLE   12 ..............................
........................................................................

 iter      E             dE          RMSdq      gap      omega  full diag
   1    -55.5905685 -0.555906E+02  0.755E-03    3.18       0.0  T
   2    -55.5905685 -0.566667E-08  0.445E-03    3.18       4.8  T
   3    -55.5905685  0.216494E-07  0.103E-03    3.18      20.6  T
   4    -55.5905685 -0.276103E-07  0.404E-04    3.18      52.8  T
   5    -55.5905685 -0.440785E-09  0.316E-04    3.18      67.4  T
     SCC iter.                  ...        0 min,  0.008 sec
     gradient                   ...        0 min,  0.013 sec
 * total energy  :   -55.0579319 Eh     change       -0.8671599E-06 Eh
   gradient norm :     0.0002028 Eh/α   predicted    -0.3850566E-06 ( -55.60%)
   displ. norm   :     0.0192581 α      lambda       -0.5852481E-06
   maximum displ.:     0.0137698 α      in ANC's #1, #2, #3, ...

........................................................................
.............................. CYCLE   13 ..............................
........................................................................

 iter      E             dE          RMSdq      gap      omega  full diag
   1    -55.5905499 -0.555905E+02  0.838E-03    3.18       0.0  T
   2    -55.5905499 -0.293372E-08  0.492E-03    3.18       4.3  T
   3    -55.5905499  0.571655E-08  0.596E-04    3.18      35.8  T
   4    -55.5905499 -0.813630E-08  0.242E-04    3.18      88.1  T
     SCC iter.                  ...        0 min,  0.006 sec
     gradient                   ...        0 min,  0.013 sec
 * total energy  :   -55.0579326 Eh     change       -0.7050559E-06 Eh
   gradient norm :     0.0002428 Eh/α   predicted    -0.2940805E-06 ( -58.29%)
   displ. norm   :     0.0190120 α      lambda       -0.4943891E-06
   maximum displ.:     0.0131530 α      in ANC's #1, #2, #3, ...

........................................................................
.............................. CYCLE   14 ..............................
........................................................................

 iter      E             dE          RMSdq      gap      omega  full diag
   1    -55.5905926 -0.555906E+02  0.822E-03    3.18       0.0  T
   2    -55.5905926 -0.303665E-08  0.483E-03    3.18       4.4  T
   3    -55.5905926  0.800733E-08  0.672E-04    3.18      31.7  T
   4    -55.5905926 -0.106210E-07  0.239E-04    3.18      89.2  T
     SCC iter.                  ...        0 min,  0.006 sec
     gradient                   ...        0 min,  0.013 sec
 * total energy  :   -55.0579332 Eh     change       -0.5945236E-06 Eh
   gradient norm :     0.0001628 Eh/α   predicted    -0.2476444E-06 ( -58.35%)
   displ. norm   :     0.0165311 α      lambda       -0.3357783E-06
   maximum displ.:     0.0121887 α      in ANC's #2, #1, #3, ...

........................................................................
.............................. CYCLE   15 ..............................
........................................................................

 iter      E             dE          RMSdq      gap      omega  full diag
   1    -55.5906393 -0.555906E+02  0.754E-03    3.18       0.0  T
   2    -55.5906393 -0.291239E-08  0.444E-03    3.18       4.8  T
   3    -55.5906393  0.703109E-08  0.642E-04    3.18      33.2  T
   4    -55.5906393 -0.954321E-08  0.247E-04    3.18      86.4  T
     SCC iter.                  ...        0 min,  0.006 sec
     gradient                   ...        0 min,  0.013 sec
 * total energy  :   -55.0579336 Eh     change       -0.3889563E-06 Eh
   gradient norm :     0.0000600 Eh/α   predicted    -0.1688276E-06 ( -56.59%)
   displ. norm   :     0.0100037 α      lambda       -0.1469573E-06
   maximum displ.:     0.0082956 α      in ANC's #2, #1, #3, ...

........................................................................
.............................. CYCLE   16 ..............................
........................................................................

 iter      E             dE          RMSdq      gap      omega  full diag
   1    -55.5906568 -0.555907E+02  0.468E-03    3.18       0.0  T
   2    -55.5906568 -0.120559E-08  0.276E-03    3.18       7.7  T
   3    -55.5906568  0.248409E-08  0.419E-04    3.18      50.9  T
   4    -55.5906568 -0.385147E-08  0.214E-04    3.18      99.5  T
     SCC iter.                  ...        0 min,  0.006 sec
     gradient                   ...        0 min,  0.013 sec
 * total energy  :   -55.0579338 Eh     change       -0.1809034E-06 Eh
   gradient norm :     0.0000540 Eh/α   predicted    -0.7653618E-07 ( -57.69%)
   displ. norm   :     0.0100037 α      lambda        0.0000000E+00
   maximum displ.:     0.0082956 α      in ANC's #2, #1, #3, ...

........................................................................
.............................. CYCLE   17 ..............................
........................................................................

 iter      E             dE          RMSdq      gap      omega  full diag
   1    -55.5906731 -0.555907E+02  0.468E-03    3.18       0.0  T
   2    -55.5906731 -0.107524E-08  0.276E-03    3.18       7.7  T
   3    -55.5906731  0.215037E-08  0.385E-04    3.18      55.4  T
   4    -55.5906731 -0.331901E-08  0.198E-04    3.18     107.5  T
     SCC iter.                  ...        0 min,  0.006 sec
     gradient                   ...        0 min,  0.013 sec
 * total energy  :   -55.0579338 Eh     change       -0.7865984E-07 Eh
   gradient norm :     0.0001428 Eh/α   predicted    -0.1998922E-08 ( -97.46%)
   displ. norm   :     0.0038949 α      lambda       -0.7888905E-07
   maximum displ.:     0.0032436 α      in ANC's #2, #3, #19, ...

   *** GEOMETRY OPTIMIZATION CONVERGED AFTER 17 ITERATIONS ***

------------------------------------------------------------------------
 total energy gain   :        -0.0016535 Eh       -1.0376 kcal/mol
 total RMSD          :         0.1399663 a0        0.0741 Å
 total power (kW/mol):        -0.2553650 (step)   -9.2554 (real)
------------------------------------------------------------------------

 ANCopt (total)                0 d,  0 h,  0 min,  0.469 sec
 optimizer setup                ...        0 min,  0.000 sec (  0.083%)
 model hessian                  ...        0 min,  0.002 sec (  0.455%)
 ANC generation                 ...        0 min,  0.000 sec (  0.093%)
 coordinate transformation      ...        0 min,  0.000 sec (  0.027%)
 single point calculation       ...        0 min,  0.462 sec ( 98.540%)
 optimization log               ...        0 min,  0.002 sec (  0.472%)
 hessian update                 ...        0 min,  0.000 sec (  0.024%)
 rational function              ...        0 min,  0.001 sec (  0.158%)

================
 final structure:
================
$coord
        3.26032518425518       -1.94628102826580        2.17650633803786      C
        5.85796894405070       -2.14583674113003        2.34213510556365      C
        7.39910596851860       -0.59707880329083        0.89331728997101      C
        6.31185460735831        1.17847380774732       -0.71808873634550      C
        3.70774309962862        1.38612166768102       -0.86939379571537      C
        2.15996367945367       -0.18394304521416        0.56246123022114      C
       -0.60704682319294        0.08446417144400        0.37992421805941      C
       -1.69768259177755        2.45543308039692        0.69278622657031      C
       -4.28943283156715        2.77995572391216        0.55296973707845      C
       -5.86179259890301        0.71980613518282        0.07806440645734      C
       -4.79039001337315       -1.66247317908065       -0.26868479865945      C
       -2.17907032221603       -1.97654420044062       -0.11676702516543      C
       -0.92553084497353       -4.92373681731705       -0.66095610854410      Cl
       -6.70198729259795       -4.20300126361772       -0.89199404384874      Cl
       -9.07299641811853        1.09960472066288       -0.09221302489036      Cl
       -5.57447991506711        5.72886666549534        0.96964713348338      Cl
        8.18814737534732        3.12686301038012       -2.52626852457988      Cl
       10.63134227957177       -0.86825088195253        1.10133275526649      Cl
        2.08283210860185       -3.14143084283245        3.33229575647943      H
        6.71161271739466       -3.50574105231096        3.59692695260607      H
        2.88535331291803        2.75223395248734       -2.13872130363182      H
       -0.50683543175425        4.06197921253078        1.08273800910483      H
$end
 
 Bond Distances (Angstroems)
 ---------------------------
C1-C2=1.3814         C1-C6=1.3922         C1-H19=1.0781        C2-C1=1.3814         C2-C3=1.3873         C2-H20=1.0783        
C3-C2=1.3873         C3-C4=1.3932         C3-Cl18=1.7200       C4-C3=1.3932         C4-C5=1.3847         C4-Cl17=1.7218       
C5-C4=1.3847         C5-C6=1.3911         C5-H21=1.0785        C6-C1=1.3922         C6-C5=1.3911         C6-C7=1.4743         
C7-C6=1.4743         C7-C8=1.3909         C7-C12=1.3966        C8-C7=1.3909         C8-C9=1.3842         C8-H22=1.0782        
C9-C8=1.3842         C9-C10=1.3943        C9-Cl16=1.7164       C10-C9=1.3943        C10-C11=1.3944       C10-Cl15=1.7135      
C11-C10=1.3944       C11-C12=1.3941       C11-Cl14=1.7145      C12-C7=1.3966        C12-C11=1.3941       C12-Cl13=1.7191      
Cl13-C12=1.7191      Cl14-C11=1.7145      Cl15-C10=1.7135      Cl16-C9=1.7164       Cl17-C4=1.7218       Cl18-C3=1.7200       
H19-C1=1.0781        H20-C2=1.0783        H21-C5=1.0785        H22-C8=1.0782        
 C  H  Rav=1.0783 sigma=0.0002  Rmin=1.0781  Rmax=1.0785     4
 C  C  Rav=1.3968 sigma=0.0228  Rmin=1.3814  Rmax=1.4743    13
 Cl C  Rav=1.7175 sigma=0.0030  Rmin=1.7135  Rmax=1.7218     6
 
 selected bond angles (degree)
 --------------------
C6-C1-C2=120.42                H19-C1-C2=119.62               H19-C1-C6=119.95               C3-C2-C1=120.31                
H20-C2-C1=120.46               H20-C2-C3=119.23               C4-C3-C2=119.60                Cl18-C3-C2=120.00              
Cl18-C3-C4=120.41              C5-C4-C3=119.99                Cl17-C4-C3=120.39              Cl17-C4-C5=119.62              
C6-C5-C4=120.47                H21-C5-C4=119.39               H21-C5-C6=120.13               C5-C6-C1=119.21                
C7-C6-C1=121.34                C7-C6-C5=119.44                C8-C7-C6=119.42                C12-C7-C6=121.92               
C12-C7-C8=118.66               C9-C8-C7=121.11                H22-C8-C7=119.44               H22-C8-C9=119.44               
C10-C9-C8=120.26               Cl16-C9-C8=119.90              Cl16-C9-C10=119.84             C11-C10-C9=119.21              
Cl15-C10-C9=120.64             Cl15-C10-C11=120.16            
 
 selected dihedral angles (degree)
 ---------------------------------
C3-C2-C1-C6=359.76            C3-C2-C1-H19=180.90           H20-C2-C1-C6=179.78           H20-C2-C1-H19=  0.92          
C4-C3-C2-C1=  0.52            C4-C3-C2-H20=180.50           Cl18-C3-C2-C1=180.29          Cl18-C3-C2-H20=  0.27         
C5-C4-C3-C2=359.89            C5-C4-C3-Cl18=180.12          Cl17-C4-C3-C2=179.80          Cl17-C4-C3-Cl18=  0.03        
C6-C5-C4-C3=359.43            C6-C5-C4-Cl17=179.52          H21-C5-C4-C3=180.70           H21-C5-C4-Cl17=  0.79         
C5-C6-C1-C2=359.57            C5-C6-C1-H19=178.42           C7-C6-C1-C2=180.80            C7-C6-C1-H19=359.66           
C1-C6-C5-C4=  0.84            C1-C6-C5-H21=179.56           C7-C6-C5-C4=179.63            C7-C6-C5-H21=358.35           
C8-C7-C6-C1=127.15            C8-C7-C6-C5=308.39            C12-C7-C6-C1=306.72           C12-C7-C6-C5=127.96           
C9-C8-C7-C6=180.47            C9-C8-C7-C12=  0.88           H22-C8-C7-C6=359.40           H22-C8-C7-C12=179.81          
C10-C9-C8-C7=359.64           C10-C9-C8-H22=180.71          Cl16-C9-C8-C7=179.55          Cl16-C9-C8-H22=  0.62         
C11-C10-C9-C8=359.61          C11-C10-C9-Cl16=179.69        Cl15-C10-C9-C8=179.86         Cl15-C10-C9-Cl16=359.95       
           -------------------------------------------------
          |                Final Singlepoint                |
           -------------------------------------------------

          ...................................................
          :                      SETUP                      :
          :.................................................:
          :  # basis functions                 112          :
          :  # atomic orbitals                 106          :
          :  # shells                           46          :
          :  # electrons                        94          :
          :  max. iterations                   250          :
          :  Hamiltonian                  GFN2-xTB          :
          :  restarted?                      false          :
          :  GBSA solvation                  false          :
          :  PC potential                    false          :
          :  electronic temp.          300.0000000     K    :
          :  accuracy                    1.0000000          :
          :  -> integral cutoff          0.2500000E+02      :
          :  -> integral neglect         0.1000000E-07      :
          :  -> SCF convergence          0.1000000E-05 Eh   :
          :  -> wf. convergence          0.1000000E-03 e    :
          :  Broyden damping             0.4000000          :
          :  net charge                          0          :
          :  unpaired electrons                  0          :
          ...................................................

 iter      E             dE          RMSdq      gap      omega  full diag
   1    -55.5906731 -0.555907E+02  0.149E-04    3.18       0.0  T
   2    -55.5906731 -0.897771E-10  0.127E-04    3.18     168.4  T
   3    -55.5906731 -0.698250E-10  0.111E-04    3.18     192.2  T

   *** convergence criteria satisfied after 3 iterations ***

         #    Occupation            Energy/Eh            Energy/eV
      -------------------------------------------------------------
         1        2.0000           -1.0801841             -29.3933
       ...           ...                  ...                  ...
        41        2.0000           -0.4381105             -11.9216
        42        2.0000           -0.4345713             -11.8253
        43        2.0000           -0.4329880             -11.7822
        44        2.0000           -0.4297395             -11.6938
        45        2.0000           -0.4211657             -11.4605
        46        2.0000           -0.4172552             -11.3541
        47        2.0000           -0.4085511             -11.1172 (HOMO)
        48                         -0.2917632              -7.9393 (LUMO)
        49                         -0.2798693              -7.6156
        50                         -0.2641611              -7.1882
        51                         -0.2540215              -6.9123
        52                         -0.1894892              -5.1563
       ...                                ...                  ...
       106                          0.6183050              16.8249
      -------------------------------------------------------------
                  HL-Gap            0.1167878 Eh            3.1780 eV
             Fermi-level           -0.3501572 Eh           -9.5283 eV

 SCC (total)                   0 d,  0 h,  0 min,  0.024 sec
 SCC setup                      ...        0 min,  0.000 sec (  0.785%)
 Dispersion                     ...        0 min,  0.000 sec (  0.310%)
 classical contributions        ...        0 min,  0.000 sec (  0.098%)
 integral evaluation            ...        0 min,  0.006 sec ( 23.521%)
 iterations                     ...        0 min,  0.005 sec ( 20.750%)
 molecular gradient             ...        0 min,  0.013 sec ( 53.611%)
 printout                       ...        0 min,  0.000 sec (  0.845%)

         :::::::::::::::::::::::::::::::::::::::::::::::::::::
         ::                     SUMMARY                     ::
         :::::::::::::::::::::::::::::::::::::::::::::::::::::
         :: total energy             -55.057933833787 Eh    ::
         :: gradient norm              0.000141964325 Eh/a0 ::
         :: HOMO-LUMO gap              3.177958404347 eV    ::
         ::.................................................::
         :: SCC energy               -55.590700972461 Eh    ::
         :: -> isotropic ES            0.020088223815 Eh    ::
         :: -> anisotropic ES         -0.003553283740 Eh    ::
         :: -> anisotropic XC          0.013960547271 Eh    ::
         :: -> dispersion             -0.035226929162 Eh    ::
         :: repulsion energy           0.532767138675 Eh    ::
         :: add. restraining           0.000000000000 Eh    ::
         :: total charge              -0.000000000000 e     ::
         :::::::::::::::::::::::::::::::::::::::::::::::::::::

           ------------------------------------------------- 
          |                Numerical Hessian                |
           ------------------------------------------------- 
step length          :   0.00500
SCC accuracy         :   0.30000
Hessian scale factor :   1.00000
frozen atoms in %    :   0.00000    0
RMS gradient         :   0.00014
estimated CPU  time      0.07 min
estimated wall time      0.07 min

writing file <hessian>.

 projected vibrational frequencies (cm⁻¹)
eigval :       -0.00    -0.00    -0.00     0.00     0.00     0.00
eigval :       28.46    33.96    42.16    78.26    85.34   126.91
eigval :      151.82   170.39   174.47   178.70   183.71   198.81
eigval :      217.68   257.08   301.39   310.47   322.53   337.58
eigval :      387.03   411.48   426.66   477.43   491.32   517.01
eigval :      529.24   579.95   595.30   622.47   642.50   667.88
eigval :      677.40   732.24   795.19   833.45   860.53   877.47
eigval :      882.87   915.47   988.04  1024.32  1115.22  1144.23
eigval :     1161.36  1162.12  1223.21  1269.35  1289.38  1305.18
eigval :     1334.14  1371.12  1389.22  1450.59  1503.22  1535.97
eigval :     1546.61  1568.89  3104.69  3107.00  3112.75  3115.02
           -------------------------------------------------
          |                Property Printout                |
           -------------------------------------------------

    * Orbital Energies and Occupations

         #    Occupation            Energy/Eh            Energy/eV
      -------------------------------------------------------------
         1        2.0000           -1.0801836             -29.3933
       ...           ...                  ...                  ...
        35        2.0000           -0.4695013             -12.7758
        36        2.0000           -0.4624210             -12.5831
        37        2.0000           -0.4508627             -12.2686
        38        2.0000           -0.4457841             -12.1304
        39        2.0000           -0.4449166             -12.1068
        40        2.0000           -0.4439616             -12.0808
        41        2.0000           -0.4381111             -11.9216
        42        2.0000           -0.4345711             -11.8253
        43        2.0000           -0.4329878             -11.7822
        44        2.0000           -0.4297393             -11.6938
        45        2.0000           -0.4211662             -11.4605
        46        2.0000           -0.4172554             -11.3541
        47        2.0000           -0.4085510             -11.1172 (HOMO)
        48                         -0.2917633              -7.9393 (LUMO)
        49                         -0.2798697              -7.6156
        50                         -0.2641608              -7.1882
        51                         -0.2540214              -6.9123
        52                         -0.1894897              -5.1563
        53                         -0.1712355              -4.6596
        54                         -0.1660983              -4.5198
        55                         -0.1619197              -4.4061
        56                         -0.1558996              -4.2422
        57                         -0.1472170              -4.0060
        58                         -0.1448609              -3.9419
       ...                                ...                  ...
       106                          0.6183054              16.8249
      -------------------------------------------------------------
                  HL-Gap            0.1167877 Eh            3.1780 eV
             Fermi-level           -0.3501571 Eh           -9.5283 eV

     #   Z          covCN         q      C6AA      α(0)
     1   6 C        2.923    -0.030    28.747     8.793
     2   6 C        2.956    -0.037    28.907     8.819
     3   6 C        2.917     0.090    25.991     8.360
     4   6 C        2.917     0.091    25.970     8.357
     5   6 C        2.964    -0.043    29.077     8.845
     6   6 C        2.978     0.021    27.527     8.606
     7   6 C        3.007     0.008    27.826     8.653
     8   6 C        2.965    -0.051    29.268     8.874
     9   6 C        2.916     0.084    26.119     8.381
    10   6 C        2.957     0.074    26.342     8.418
    11   6 C        2.960     0.075    26.312     8.414
    12   6 C        2.922     0.077    26.276     8.406
    13  17 Cl       1.004    -0.111   102.639    15.500
    14  17 Cl       1.036    -0.092   102.031    15.454
    15  17 Cl       1.021    -0.092   102.028    15.453
    16  17 Cl       0.996    -0.110   102.588    15.496
    17  17 Cl       0.988    -0.135   103.380    15.555
    18  17 Cl       0.987    -0.132   103.298    15.549
    19   1 H        0.926     0.069     2.098     2.265
    20   1 H        0.926     0.077     2.010     2.217
    21   1 H        0.926     0.075     2.036     2.231
    22   1 H        0.926     0.091     1.867     2.137

 Mol. C6AA /au·bohr⁶  :      16685.351564
 Mol. C8AA /au·bohr⁸  :     561976.914837
 Mol. α(0) /au        :        204.781820


Wiberg/Mayer (AO) data.
largest (>0.10) Wiberg bond orders for each atom

 ---------------------------------------------------------------------------
     #   Z sym  total        # sym  WBO       # sym  WBO       # sym  WBO
 ---------------------------------------------------------------------------
     1   6 C    3.986 --     2 C    1.449     6 C    1.383    19 H    0.965
     2   6 C    3.985 --     1 C    1.449     3 C    1.395    20 H    0.964
                             5 C    0.102
     3   6 C    3.924 --     2 C    1.395     4 C    1.354    18 Cl   1.002
     4   6 C    3.928 --     5 C    1.409     3 C    1.354    17 Cl   0.998
     5   6 C    3.983 --     4 C    1.409     6 C    1.391    21 H    0.963
                             2 C    0.102
     6   6 C    3.989 --     5 C    1.391     1 C    1.383     7 C    1.035
     7   6 C    3.986 --     8 C    1.387    12 C    1.347     6 C    1.035
     8   6 C    3.980 --     9 C    1.401     7 C    1.387    22 H    0.959
     9   6 C    3.933 --     8 C    1.401    10 C    1.344    16 Cl   1.011
    10   6 C    3.932 --    11 C    1.351     9 C    1.344    15 Cl   1.022
    11   6 C    3.936 --    12 C    1.357    10 C    1.351    14 Cl   1.021
    12   6 C    3.929 --    11 C    1.357     7 C    1.347    13 Cl   1.009
    13  17 Cl   1.163 --    12 C    1.009
    14  17 Cl   1.182 --    11 C    1.021
    15  17 Cl   1.181 --    10 C    1.022
    16  17 Cl   1.159 --     9 C    1.011
    17  17 Cl   1.147 --     4 C    0.998
    18  17 Cl   1.151 --     3 C    1.002
    19   1 H    0.995 --     1 C    0.965
    20   1 H    0.993 --     2 C    0.964
    21   1 H    0.994 --     5 C    0.963
    22   1 H    0.991 --     8 C    0.959
 ---------------------------------------------------------------------------

Topologies differ in total number of bonds
Writing topology from bond orders to xtbtopo.mol

molecular dipole:
                 x           y           z       tot (Debye)
 q only:        0.053      -0.002       0.603
   full:        0.045      -0.024       0.379       0.971
molecular quadrupole (traceless):
                xx          xy          yy          xz          yz          zz
 q only:      -20.067      -3.357       5.683       3.818      -2.265      14.384
  q+dip:      -10.540      -1.963       3.092       3.204      -3.638       7.448
   full:      -11.753      -2.060       3.141       2.643      -2.180       8.612

           -------------------------------------------------
          |                Geometry Summary                 |
           -------------------------------------------------

      molecular mass/u    :      360.8782193
   center of mass at/Å    :        0.0001642      -0.0001926      -0.0000342
  moments of inertia/u·Å² :        0.1133950E+04   0.4348327E+04   0.5179670E+04
rotational constants/cm⁻¹ :        0.1486629E-01   0.3876809E-02   0.3254577E-02

 * 22 selected distances

     #   Z          #   Z                                           value/Å
     1   6 C        2   6 C                                       1.3814475
     2   6 C        3   6 C                                       1.3872952
     3   6 C        4   6 C                                       1.3931874
     4   6 C        5   6 C                                       1.3847273
     1   6 C        6   6 C                                       1.3922263
     5   6 C        6   6 C                                       1.3911358
     7   6 C        8   6 C                                       1.3909274
     8   6 C        9   6 C                                       1.3841838
     9   6 C       10   6 C                                       1.3942658
    10   6 C       11   6 C                                       1.3943990
     7   6 C       12   6 C                                       1.3966386
    11   6 C       12   6 C                                       1.3941295
    12   6 C       13  17 Cl                                      1.7190889
    11   6 C       14  17 Cl                                      1.7144854
    10   6 C       15  17 Cl                                      1.7135109
     9   6 C       16  17 Cl                                      1.7164476
     4   6 C       17  17 Cl                                      1.7217552 (max)
     3   6 C       18  17 Cl                                      1.7199609
     1   6 C       19   1 H                                       1.0781098 (min)
     2   6 C       20   1 H                                       1.0783472
     5   6 C       21   1 H                                       1.0785069
     8   6 C       22   1 H                                       1.0781680

 * 3 distinct bonds (by element types)

   Z      Z             #   av. dist./Å        max./Å        min./Å
   1 H    6 C           4     1.0782830     1.0785069     1.0781098
   6 C    6 C          12     1.3903803     1.3966386     1.3814475
   6 C   17 Cl          6     1.7175415     1.7217552     1.7135109

           -------------------------------------------------
          |               Frequency Printout                |
           -------------------------------------------------
 projected vibrational frequencies (cm⁻¹)
eigval :       -0.00    -0.00    -0.00     0.00     0.00     0.00
eigval :       28.46    33.96    42.16    78.26    85.34   126.91
eigval :      151.82   170.39   174.47   178.70   183.71   198.81
eigval :      217.68   257.08   301.39   310.47   322.53   337.58
eigval :      387.03   411.48   426.66   477.43   491.32   517.01
eigval :      529.24   579.95   595.30   622.47   642.50   667.88
eigval :      677.40   732.24   795.19   833.45   860.53   877.47
eigval :      882.87   915.47   988.04  1024.32  1115.22  1144.23
eigval :     1161.36  1162.12  1223.21  1269.35  1289.38  1305.18
eigval :     1334.14  1371.12  1389.22  1450.59  1503.22  1535.97
eigval :     1546.61  1568.89  3104.69  3107.00  3112.75  3115.02
 reduced masses (amu)
   1: 26.80   2: 30.17   3: 30.37   4: 26.35   5: 28.27   6: 28.42   7: 29.30   8: 29.97
   9: 31.12  10: 34.51  11: 27.72  12: 19.04  13: 31.83  14: 32.17  15: 27.12  16: 27.14
  17: 28.53  18: 23.08  19: 29.43  20: 14.06  21: 18.65  22: 29.58  23: 31.45  24: 18.92
  25: 17.42  26:  9.80  27: 15.86  28: 22.16  29: 12.41  30: 12.10  31: 18.87  32: 12.30
  33: 11.95  34: 17.95  35: 12.31  36: 12.50  37: 11.87  38: 14.81  39: 14.74  40:  4.26
  41:  3.67  42: 10.78  43:  5.61  44:  3.49  45: 12.23  46: 11.32  47:  5.75  48: 10.04
  49:  6.53  50:  3.69  51:  3.42  52: 10.39  53: 11.93  54: 11.69  55: 11.35  56: 10.36
  57: 10.35  58: 10.43  59: 11.90  60: 11.72  61: 11.75  62: 11.57  63:  1.80  64:  1.84
  65:  1.84  66:  1.89
 IR intensities (km·mol⁻¹)
   1:  0.03   2:  0.08   3:  0.02   4:  0.08   5:  0.02   6:  0.01   7:  0.34   8:  0.21
   9:  0.43  10:  0.02  11:  0.72  12:  0.04  13:  0.21  14:  0.10  15:  0.32  16:  0.33
  17:  0.36  18:  0.27  19:  0.58  20:  0.06  21:  0.41  22:  0.42  23:  0.16  24:  1.04
  25:  1.07  26:  2.27  27:  0.38  28:  0.07  29:  0.49  30:  0.45  31:  3.45  32:  0.28
  33:  0.44  34:  0.37  35:  0.14  36:  1.73  37:  1.42  38:  1.85  39:  1.78  40: 23.23
  41:  8.46  42:  3.52  43:  0.25  44:  1.87  45: 10.80  46: 13.88  47:  7.43  48: 40.58
  49: 16.96  50:  3.84  51:  1.76  52:  6.28  53:  2.73  54: 10.28  55: 62.22  56: 26.36
  57:107.99  58: 14.42  59: 29.06  60:  0.14  61: 14.60  62: 15.99  63:  7.57  64:  1.91
  65:  0.75  66:  2.56
 Raman intensities (Ä⁴*amu⁻¹)
   1:  0.00   2:  0.00   3:  0.00   4:  0.00   5:  0.00   6:  0.00   7:  0.00   8:  0.00
   9:  0.00  10:  0.00  11:  0.00  12:  0.00  13:  0.00  14:  0.00  15:  0.00  16:  0.00
  17:  0.00  18:  0.00  19:  0.00  20:  0.00  21:  0.00  22:  0.00  23:  0.00  24:  0.00
  25:  0.00  26:  0.00  27:  0.00  28:  0.00  29:  0.00  30:  0.00  31:  0.00  32:  0.00
  33:  0.00  34:  0.00  35:  0.00  36:  0.00  37:  0.00  38:  0.00  39:  0.00  40:  0.00
  41:  0.00  42:  0.00  43:  0.00  44:  0.00  45:  0.00  46:  0.00  47:  0.00  48:  0.00
  49:  0.00  50:  0.00  51:  0.00  52:  0.00  53:  0.00  54:  0.00  55:  0.00  56:  0.00
  57:  0.00  58:  0.00  59:  0.00  60:  0.00  61:  0.00  62:  0.00  63:  0.00  64:  0.00
  65:  0.00  66:  0.00
 output can be read by thermo (or use thermo option).
 writing <g98.out> molden fake output.
 recommended (thermochemical) frequency scaling factor: 1.0
           -------------------------------------------------
          |             Thermodynamic Functions             |
           -------------------------------------------------

Molecule has no symmetry elements
It seems to be the C1 point group
c1  symmetry found (for desy threshold:  0.10E+00) used in thermo

          ...................................................
          :                      SETUP                      :
          :.................................................:
          :  # frequencies                          60      :
          :  # imaginary freq.                       0      :
          :  linear?                             false      :
          :  only rotor calc.                    false      :
          :  symmetry                               c1      :
          :  rotational number                       1      :
          :  scaling factor                  1.0000000      :
          :  rotor cutoff                    0.0000000 cm⁻¹ :
          :  imag. cutoff                 -100.0000000 cm⁻¹ :
          :.................................................:

    mode    ω/cm⁻¹     T·S(HO)/kcal·mol⁻¹    T·S(FR)/kcal·mol⁻¹   T·S(vib)
   ------------------------------------------------------------------------
       1     28.46    -1.76914 (100.00%)    -1.22341 (  0.00%)    -1.76914
       2     33.96    -1.66479 (100.00%)    -1.17114 (  0.00%)    -1.66479
       3     42.16    -1.53700 (100.00%)    -1.10707 (  0.00%)    -1.53700
       4     78.26    -1.17292 (100.00%)    -0.92380 (  0.00%)    -1.17292
       5     85.34    -1.12231 (100.00%)    -0.89817 (  0.00%)    -1.12231
       6    126.91    -0.89216 (100.00%)    -0.78060 (  0.00%)    -0.89216
       7    151.82    -0.78990 (100.00%)    -0.72752 (  0.00%)    -0.78990
       8    170.39    -0.72486 (100.00%)    -0.69333 (  0.00%)    -0.72486
       9    174.47    -0.71162 (100.00%)    -0.68632 (  0.00%)    -0.71162
      10    178.70    -0.69827 (100.00%)    -0.67923 (  0.00%)    -0.69827
      11    183.71    -0.68288 (100.00%)    -0.67104 (  0.00%)    -0.68288
      12    198.81    -0.63927 (100.00%)    -0.64764 (  0.00%)    -0.63927
      13    217.68    -0.58984 (100.00%)    -0.62077 (  0.00%)    -0.58984
      14    257.08    -0.50134 (100.00%)    -0.57149 (  0.00%)    -0.50134
   ------------------------------------------------------------------------

   temp. (K)  partition function   enthalpy   heat capacity  entropy
                                   cal/mol     cal/K/mol   cal/K/mol   J/K/mol
 298.15  VIB  0.347E+07             9048.204     55.470     60.274
         ROT  0.122E+08              888.752      2.981     35.408
         INT  0.423E+14             9936.956     58.451     95.682
         TR   0.663E+28             1481.254      4.968     43.524
         TOT                       11418.2104    63.4193   139.2058   582.4372

       T/K    H(0)-H(T)+PV         H(T)/Eh          T*S/Eh         G(T)/Eh
   ------------------------------------------------------------------------
    298.15    0.181961E-01    0.136534E+00    0.661412E-01    0.703925E-01
   ------------------------------------------------------------------------

         :::::::::::::::::::::::::::::::::::::::::::::::::::::
         ::                  THERMODYNAMIC                  ::
         :::::::::::::::::::::::::::::::::::::::::::::::::::::
         :: total free energy         -54.987541311984 Eh   ::
         ::.................................................::
         :: total energy              -55.057933833970 Eh   ::
         :: zero point energy           0.118337633042 Eh   ::
         :: G(RRHO) w/o ZPVE           -0.047945111056 Eh   ::
         :: G(RRHO) contrib.            0.070392521986 Eh   ::
         :::::::::::::::::::::::::::::::::::::::::::::::::::::

optimized geometry written to: xtbopt.coord


           -------------------------------------------------
          | TOTAL ENERGY              -55.057933833970 Eh   |
          | TOTAL ENTHALPY            -54.921400124396 Eh   |
          | TOTAL FREE ENERGY         -54.987541311984 Eh   |
          | GRADIENT NORM               0.000140648516 Eh/α |
          | HOMO-LUMO GAP               3.177954848484 eV   |
           -------------------------------------------------

------------------------------------------------------------------------
 * finished run on 2025/04/15 at 19:39:31.945     
------------------------------------------------------------------------
 total:
 * wall-time:     0 d,  0 h,  0 min,  4.589 sec
 *  cpu-time:     0 d,  0 h,  0 min,  4.557 sec
 * ratio c/w:     0.993 speedup
 SCF:
 * wall-time:     0 d,  0 h,  0 min,  0.070 sec
 *  cpu-time:     0 d,  0 h,  0 min,  0.051 sec
 * ratio c/w:     0.729 speedup
 ANC optimizer:
 * wall-time:     0 d,  0 h,  0 min,  0.495 sec
 *  cpu-time:     0 d,  0 h,  0 min,  0.493 sec
 * ratio c/w:     0.996 speedup
 analytical hessian:
 * wall-time:     0 d,  0 h,  0 min,  3.995 sec
 *  cpu-time:     0 d,  0 h,  0 min,  3.994 sec
 * ratio c/w:     1.000 speedup

