 Entering Gaussian System
 *********************************************
 Gaussian 98:
 frequency output generated by the xtb code
 *********************************************
                         Standard orientation:
 --------------------------------------------------------------------
  Center     Atomic     Atomic              Coordinates (Angstroms)
  Number     Number      Type              X           Y           Z
 --------------------------------------------------------------------
    1          6             0        1.592250    1.523563    1.313657
    2          6             0        0.256983    0.779300    1.423363
    3          1             0       -0.205719    1.133373    2.349007
    4          6             0        0.256510   -0.778550    1.423838
    5          1             0       -0.206367   -1.131782    2.349715
    6          6             0        1.591325   -1.523683    1.314523
    7          8             0        2.307162   -1.255679    0.142818
    8         16             0        3.400517   -0.000914    0.215758
    9          8             0        3.902601   -0.000690    1.562354
   10          8             0        2.307938    1.254485    0.142109
   11          6             0       -0.711385   -1.114978    0.255037
   12          6             0       -0.075789   -0.670969   -1.048430
   13          6             0       -0.075356    0.670358   -1.048850
   14          6             0       -0.710675    1.115600    0.254331
   15          6             0       -1.771047    0.000697    0.412220
   16         17             0       -2.984859    0.000677   -0.871677
   17         17             0       -2.607960    0.001449    1.961011
   18         17             0       -1.309003    2.760061    0.274187
   19         17             0        0.490321    1.734755   -2.228535
   20         17             0        0.489201   -1.736477   -2.227443
   21         17             0       -1.310759   -2.759045    0.275951
   22          1             0        2.219176    1.274628    2.181069
   23          1             0        1.387808    2.598642    1.326704
   24          1             0        2.218415   -1.274653    2.181790
   25          1             0        1.386231   -2.598631    1.328159
 --------------------------------------------------------------------
     1 basis functions        1 primitive gaussians
     1 alpha electrons        1 beta electrons
 
 Harmonic frequencies (cm**-1), IR intensities (km*mol⁻¹),
 Raman scattering activities (A**4/amu), Raman depolarization ratios,
 reduced masses (AMU), force constants (mDyne/A) and normal coordinates:
                      1                      2                      3
                        a                      a                      a 
 Frequencies --    51.0722                74.1464                93.0144
 Red. masses --    24.2293                26.7245                33.6613
 Frc consts  --     0.0000                 0.0000                 0.0000
 IR Inten    --     0.0603                 1.2567                 0.0745
 Raman Activ --     0.0000                 0.0000                 0.0000
 Depolar     --     0.0000                 0.0000                 0.0000
 Atom AN      X      Y      Z        X      Y      Z        X      Y      Z
   1   6     0.06   0.01  -0.23     0.02   0.05  -0.08    -0.04   0.01  -0.09
   2   6     0.02   0.09  -0.05     0.04   0.00  -0.10    -0.03   0.00  -0.08
   3   1     0.03   0.05  -0.01     0.01  -0.00  -0.03    -0.00   0.00  -0.02
   4   6    -0.02   0.09   0.05     0.04  -0.00  -0.10    -0.03  -0.00  -0.08
   5   1    -0.03   0.05   0.01     0.01   0.00  -0.03    -0.00  -0.00  -0.02
   6   6    -0.06   0.01   0.23     0.02  -0.05  -0.08    -0.04  -0.01  -0.09
   7   8    -0.01  -0.28   0.23     0.17   0.01   0.02    -0.01   0.00  -0.08
   8  16    -0.00  -0.41   0.00     0.24   0.00   0.44    -0.02  -0.00  -0.05
   9   8    -0.00  -0.04   0.00    -0.19   0.00   0.45    -0.07   0.00  -0.02
  10   8     0.01  -0.28  -0.23     0.17  -0.01   0.02    -0.01  -0.00  -0.08
  11   6     0.05   0.05   0.00     0.01   0.00  -0.07    -0.07  -0.00  -0.06
  12   6     0.05   0.09   0.01    -0.05   0.00  -0.09    -0.03   0.00  -0.04
  13   6    -0.05   0.09  -0.01    -0.05  -0.00  -0.09    -0.03  -0.00  -0.04
  14   6    -0.05   0.05  -0.00     0.01  -0.00  -0.07    -0.07   0.00  -0.06
  15   6     0.00   0.01  -0.00     0.01  -0.00   0.00    -0.05   0.00   0.01
  16  17    -0.00  -0.08   0.00    -0.17   0.00   0.20    -0.36   0.00   0.32
  17  17     0.00   0.02  -0.00     0.25  -0.00   0.13     0.23  -0.00   0.22
  18  17    -0.21   0.05   0.06     0.01  -0.00  -0.11    -0.21  -0.03  -0.18
  19  17    -0.28   0.22  -0.05    -0.22  -0.00  -0.22     0.44  -0.01   0.16
  20  17     0.28   0.22   0.05    -0.22   0.00  -0.22     0.44   0.01   0.16
  21  17     0.21   0.05  -0.06     0.01   0.00  -0.11    -0.21   0.03  -0.18
  22   1     0.02   0.04  -0.06    -0.01   0.04   0.00    -0.01   0.01  -0.02
  23   1     0.03   0.01  -0.12    -0.01   0.01  -0.05    -0.01   0.00  -0.03
  24   1    -0.02   0.04   0.06    -0.01  -0.04   0.00    -0.01  -0.01  -0.02
  25   1    -0.03   0.01   0.12    -0.01  -0.01  -0.05    -0.01  -0.00  -0.03
                      4                      5                      6
                        a                      a                      a 
 Frequencies --    96.1711               114.1438               125.5313
 Red. masses --    34.1347                34.2307                29.2482
 Frc consts  --     0.0000                 0.0000                 0.0000
 IR Inten    --     0.1222                 0.0044                 2.3495
 Raman Activ --     0.0000                 0.0000                 0.0000
 Depolar     --     0.0000                 0.0000                 0.0000
 Atom AN      X      Y      Z        X      Y      Z        X      Y      Z
   1   6     0.01   0.05  -0.07     0.00   0.04  -0.07    -0.07  -0.04   0.19
   2   6    -0.00   0.07  -0.01     0.01   0.04  -0.00    -0.09  -0.00   0.10
   3   1     0.01   0.03  -0.00     0.01   0.02  -0.00    -0.05   0.00   0.02
   4   6     0.00   0.07   0.01    -0.01   0.04   0.00    -0.09   0.00   0.10
   5   1    -0.01   0.03   0.00    -0.01   0.02   0.00    -0.05  -0.00   0.02
   6   6    -0.01   0.05   0.07    -0.00   0.04   0.07    -0.07   0.04   0.19
   7   8    -0.02  -0.05   0.06     0.03  -0.04   0.08    -0.17  -0.02   0.15
   8  16    -0.00  -0.09   0.00    -0.00  -0.02   0.00    -0.27   0.00  -0.03
   9   8     0.00  -0.01   0.00     0.00   0.11  -0.00     0.01   0.00  -0.10
  10   8     0.02  -0.05  -0.06    -0.03  -0.04  -0.08    -0.17   0.02   0.15
  11   6     0.03   0.02   0.01     0.00  -0.00  -0.01     0.02  -0.00   0.00
  12   6    -0.02   0.03  -0.02    -0.00  -0.02  -0.01     0.04   0.00   0.02
  13   6     0.02   0.03   0.02     0.00  -0.02   0.01     0.04  -0.00   0.02
  14   6    -0.03   0.02  -0.01    -0.00  -0.00   0.01     0.02   0.00   0.00
  15   6     0.00  -0.02   0.00     0.00  -0.00  -0.00    -0.00   0.00   0.02
  16  17     0.00  -0.22   0.00     0.00   0.71  -0.00    -0.15   0.00   0.21
  17  17    -0.00   0.05  -0.00    -0.00  -0.59   0.00     0.12  -0.00   0.13
  18  17    -0.26  -0.04  -0.13    -0.10  -0.03  -0.17     0.37   0.13  -0.34
  19  17     0.51   0.10   0.29     0.06  -0.07   0.01    -0.05  -0.09  -0.10
  20  17    -0.51   0.10  -0.29    -0.06  -0.07  -0.01    -0.05   0.09  -0.10
  21  17     0.26  -0.04   0.13     0.10  -0.03   0.17     0.37  -0.13  -0.34
  22   1     0.00   0.03  -0.02     0.01   0.03  -0.02    -0.02  -0.04   0.04
  23   1     0.01   0.02  -0.05    -0.00   0.01  -0.04    -0.01  -0.01   0.08
  24   1    -0.00   0.03   0.02    -0.01   0.03   0.02    -0.02   0.04   0.04
  25   1    -0.01   0.02   0.05     0.00   0.01   0.04    -0.01   0.01   0.08
                      7                      8                      9
                        a                      a                      a 
 Frequencies --   129.5871               133.5642               135.0440
 Red. masses --    26.3907                32.7194                35.1196
 Frc consts  --     0.0000                 0.0000                 0.0000
 IR Inten    --     0.1496                 0.6307                 0.0986
 Raman Activ --     0.0000                 0.0000                 0.0000
 Depolar     --     0.0000                 0.0000                 0.0000
 Atom AN      X      Y      Z        X      Y      Z        X      Y      Z
   1   6    -0.04   0.03  -0.16     0.02  -0.00   0.08     0.02  -0.00  -0.02
   2   6     0.00  -0.02  -0.01    -0.01   0.04   0.01     0.01   0.00  -0.02
   3   1     0.01  -0.00   0.00    -0.01   0.01  -0.00     0.01   0.00  -0.00
   4   6    -0.00  -0.02   0.01     0.01   0.04  -0.01     0.01  -0.00  -0.02
   5   1    -0.01  -0.00  -0.00     0.01   0.01   0.00     0.01  -0.00  -0.00
   6   6     0.04   0.03   0.16    -0.02  -0.00  -0.08     0.02   0.00  -0.02
   7   8     0.16  -0.10   0.22    -0.08   0.03  -0.11     0.05   0.01  -0.01
   8  16     0.00   0.08  -0.00    -0.00  -0.07   0.00     0.08  -0.00  -0.01
   9   8     0.00   0.43  -0.00    -0.00  -0.25   0.00     0.06  -0.00  -0.01
  10   8    -0.16  -0.10  -0.22     0.08   0.03   0.11     0.05  -0.01  -0.01
  11   6     0.00  -0.01  -0.01     0.01   0.03   0.01     0.00   0.02  -0.01
  12   6    -0.00  -0.01  -0.01     0.01   0.01  -0.01     0.01  -0.00  -0.02
  13   6     0.00  -0.01   0.01    -0.01   0.01   0.01     0.01   0.00  -0.02
  14   6    -0.00  -0.01   0.01    -0.01   0.03  -0.01     0.00  -0.02  -0.01
  15   6     0.00  -0.01  -0.00    -0.00   0.01  -0.00    -0.00   0.00  -0.00
  16  17    -0.00  -0.24   0.00    -0.00  -0.27   0.00     0.01  -0.00  -0.02
  17  17    -0.00  -0.27   0.00    -0.00  -0.35   0.00     0.00  -0.00  -0.01
  18  17     0.40   0.13   0.13     0.20   0.14  -0.43     0.05  -0.01  -0.26
  19  17     0.11   0.00   0.08    -0.15   0.22   0.13    -0.18   0.52   0.34
  20  17    -0.11   0.00  -0.08     0.15   0.22  -0.13    -0.18  -0.52   0.34
  21  17    -0.40   0.13  -0.13    -0.20   0.14   0.43     0.05   0.01  -0.26
  22   1     0.01   0.05  -0.05    -0.01  -0.02   0.03     0.00   0.00  -0.00
  23   1    -0.03   0.00  -0.08     0.02   0.00   0.03     0.01  -0.00  -0.01
  24   1    -0.01   0.05   0.05     0.01  -0.02  -0.03     0.00  -0.00  -0.00
  25   1     0.03   0.00   0.08    -0.02   0.00  -0.03     0.01   0.00  -0.01
                     10                     11                     12
                        a                      a                      a 
 Frequencies --   140.5527               155.7349               164.6854
 Red. masses --    25.4858                29.8317                27.5226
 Frc consts  --     0.0000                 0.0000                 0.0000
 IR Inten    --     0.8920                 1.7319                 1.5868
 Raman Activ --     0.0000                 0.0000                 0.0000
 Depolar     --     0.0000                 0.0000                 0.0000
 Atom AN      X      Y      Z        X      Y      Z        X      Y      Z
   1   6     0.05  -0.08   0.18    -0.05  -0.08  -0.01     0.01  -0.08  -0.01
   2   6    -0.01   0.01   0.06    -0.01  -0.13   0.03    -0.05  -0.01  -0.08
   3   1    -0.01   0.00   0.01    -0.01  -0.05   0.01    -0.01  -0.00  -0.02
   4   6    -0.01  -0.01   0.06     0.01  -0.13  -0.03    -0.05   0.01  -0.08
   5   1    -0.01  -0.00   0.01     0.01  -0.05  -0.01    -0.01   0.00  -0.02
   6   6     0.05   0.08   0.18     0.05  -0.08   0.01     0.01   0.08  -0.01
   7   8     0.09   0.00   0.20     0.15  -0.09   0.06     0.17   0.04   0.07
   8  16     0.18  -0.00  -0.02     0.00   0.07  -0.00     0.35  -0.00   0.01
   9   8     0.46  -0.00  -0.14     0.00   0.24  -0.00     0.42  -0.00  -0.06
  10   8     0.09  -0.00   0.20    -0.15  -0.09  -0.06     0.17  -0.04   0.07
  11   6     0.03  -0.01   0.02    -0.02  -0.13  -0.02    -0.10  -0.00  -0.04
  12   6     0.05   0.00   0.03    -0.02  -0.11  -0.04    -0.13   0.00  -0.05
  13   6     0.05  -0.00   0.03     0.02  -0.11   0.04    -0.13  -0.00  -0.05
  14   6     0.03   0.01   0.02     0.02  -0.13   0.02    -0.10   0.00  -0.04
  15   6     0.05  -0.00   0.02    -0.00  -0.06   0.00    -0.14   0.00  -0.02
  16  17     0.11  -0.00   0.03     0.00   0.23  -0.00    -0.44   0.00   0.10
  17  17     0.10  -0.00   0.04     0.00   0.43  -0.00    -0.43   0.00  -0.13
  18  17    -0.38  -0.14  -0.22     0.08  -0.23  -0.22     0.17   0.14   0.07
  19  17    -0.10  -0.08  -0.10    -0.17   0.14   0.30     0.04  -0.04   0.02
  20  17    -0.10   0.08  -0.10     0.17   0.14  -0.30     0.04   0.04   0.02
  21  17    -0.38   0.14  -0.22    -0.08  -0.23   0.22     0.17  -0.14   0.07
  22   1     0.00  -0.06   0.05     0.00  -0.02  -0.01    -0.02  -0.04   0.01
  23   1     0.04  -0.02   0.08    -0.03  -0.03   0.00     0.02  -0.02   0.01
  24   1     0.00   0.06   0.05    -0.00  -0.02   0.01    -0.02   0.04   0.01
  25   1     0.04   0.02   0.08     0.03  -0.03  -0.00     0.02   0.02   0.01
                     13                     14                     15
                        a                      a                      a 
 Frequencies --   192.1163               223.4842               249.5461
 Red. masses --    28.0603                17.8486                29.4328
 Frc consts  --     0.0000                 0.0000                 0.0000
 IR Inten    --     6.2802                 1.4823                 3.3361
 Raman Activ --     0.0000                 0.0000                 0.0000
 Depolar     --     0.0000                 0.0000                 0.0000
 Atom AN      X      Y      Z        X      Y      Z        X      Y      Z
   1   6    -0.07  -0.06   0.13    -0.06  -0.16   0.22     0.09   0.04   0.05
   2   6    -0.09  -0.01  -0.05    -0.09  -0.03   0.10     0.12   0.00   0.06
   3   1    -0.06  -0.00  -0.03    -0.05  -0.05   0.03     0.02  -0.00   0.01
   4   6    -0.09   0.01  -0.05     0.09  -0.03  -0.10     0.12  -0.00   0.06
   5   1    -0.06   0.00  -0.03     0.05  -0.05  -0.03     0.02   0.00   0.01
   6   6    -0.07   0.06   0.13     0.06  -0.16  -0.22     0.09  -0.04   0.05
   7   8    -0.06  -0.03   0.15     0.36  -0.31  -0.11    -0.01  -0.05  -0.01
   8  16    -0.12   0.00   0.02     0.00   0.03  -0.00    -0.12   0.00  -0.03
   9   8     0.12  -0.00  -0.07     0.00   0.15  -0.00    -0.16   0.00   0.01
  10   8    -0.06   0.03   0.15    -0.36  -0.31   0.11    -0.01   0.05  -0.01
  11   6     0.02   0.01  -0.15     0.00   0.09  -0.03     0.16   0.03   0.01
  12   6     0.04  -0.01  -0.16    -0.03   0.12  -0.01     0.20  -0.00  -0.01
  13   6     0.04   0.01  -0.16     0.03   0.12   0.01     0.20   0.00  -0.01
  14   6     0.02  -0.01  -0.15    -0.00   0.09   0.02     0.16  -0.03   0.01
  15   6     0.02  -0.00  -0.18     0.00   0.07  -0.00     0.14  -0.00   0.00
  16  17    -0.25   0.00  -0.07    -0.00  -0.05   0.00    -0.17   0.00   0.49
  17  17     0.44  -0.00  -0.14    -0.00  -0.01  -0.00    -0.40   0.00  -0.32
  18  17    -0.00  -0.04   0.32    -0.13   0.16  -0.11    -0.03  -0.25   0.01
  19  17     0.04   0.27  -0.13     0.08   0.02  -0.19     0.04   0.13  -0.14
  20  17     0.04  -0.27  -0.13    -0.08   0.02   0.19     0.04  -0.13  -0.14
  21  17    -0.00   0.04   0.32     0.13   0.16   0.11    -0.03   0.25   0.01
  22   1    -0.04  -0.05   0.04    -0.00  -0.11   0.04     0.04   0.01   0.00
  23   1    -0.00  -0.01   0.07     0.04  -0.04   0.10     0.02   0.01   0.02
  24   1    -0.04   0.05   0.04     0.00  -0.11  -0.04     0.04  -0.01   0.00
  25   1    -0.00   0.01   0.07    -0.04  -0.04  -0.10     0.02  -0.01   0.02
                     16                     17                     18
                        a                      a                      a 
 Frequencies --   297.1211               304.4437               320.2826
 Red. masses --    15.7471                29.2400                10.8559
 Frc consts  --     0.0000                 0.0000                 0.0000
 IR Inten    --    12.7866                 2.0174                18.6912
 Raman Activ --     0.0000                 0.0000                 0.0000
 Depolar     --     0.0000                 0.0000                 0.0000
 Atom AN      X      Y      Z        X      Y      Z        X      Y      Z
   1   6    -0.24   0.27  -0.01    -0.03  -0.00   0.05    -0.19   0.39  -0.11
   2   6    -0.13   0.11   0.04    -0.02  -0.00  -0.11     0.02   0.01   0.01
   3   1    -0.06   0.01   0.01    -0.03  -0.01  -0.04    -0.01  -0.01   0.00
   4   6     0.13   0.11  -0.04    -0.02   0.00  -0.11     0.02  -0.01   0.01
   5   1     0.06   0.01  -0.01    -0.03   0.01  -0.04    -0.01   0.01   0.00
   6   6     0.24   0.27   0.01    -0.03   0.00   0.05    -0.19  -0.39  -0.11
   7   8     0.19  -0.16  -0.15     0.00  -0.06   0.07     0.01  -0.12   0.10
   8  16     0.00   0.02  -0.00    -0.09   0.00   0.02    -0.11   0.00   0.09
   9   8    -0.00  -0.35   0.00     0.03   0.00  -0.02     0.36  -0.00  -0.11
  10   8    -0.19  -0.16   0.15     0.00   0.06   0.07     0.01   0.12   0.10
  11   6     0.07   0.00   0.01    -0.03  -0.00  -0.09     0.00   0.04   0.01
  12   6     0.03  -0.09  -0.03    -0.18  -0.01  -0.22     0.05   0.00   0.02
  13   6    -0.03  -0.09   0.03    -0.18   0.01  -0.22     0.05  -0.00   0.02
  14   6    -0.07   0.00  -0.01    -0.03   0.00  -0.09     0.00  -0.04   0.01
  15   6    -0.00  -0.01   0.00    -0.01   0.00   0.15    -0.01   0.00  -0.00
  16  17     0.00   0.05  -0.00     0.45  -0.00   0.16    -0.02  -0.00  -0.03
  17  17     0.00   0.05   0.00    -0.34   0.00   0.43    -0.01   0.00   0.05
  18  17     0.01   0.12   0.08    -0.00   0.05   0.03     0.06  -0.14   0.00
  19  17    -0.08  -0.16   0.19     0.14   0.20  -0.20    -0.00  -0.00  -0.02
  20  17     0.08  -0.16  -0.19     0.14  -0.20  -0.20    -0.00   0.00  -0.02
  21  17    -0.01   0.12  -0.08    -0.01  -0.05   0.03     0.06   0.14   0.00
  22   1    -0.08   0.19   0.04    -0.02  -0.02   0.02    -0.06   0.29   0.02
  23   1    -0.11   0.07  -0.14    -0.00   0.00   0.03    -0.17   0.09  -0.19
  24   1     0.08   0.19  -0.04    -0.02   0.02   0.02    -0.06  -0.29   0.02
  25   1     0.11   0.07   0.14    -0.00  -0.00   0.03    -0.17  -0.09  -0.19
                     19                     20                     21
                        a                      a                      a 
 Frequencies --   324.2995               340.2876               359.8375
 Red. masses --    27.5361                31.7210                18.6456
 Frc consts  --     0.0000                 0.0000                 0.0000
 IR Inten    --     0.1641                 1.9808                16.1749
 Raman Activ --     0.0000                 0.0000                 0.0000
 Depolar     --     0.0000                 0.0000                 0.0000
 Atom AN      X      Y      Z        X      Y      Z        X      Y      Z
   1   6    -0.16   0.11  -0.07     0.02   0.13   0.02     0.16   0.08   0.13
   2   6    -0.04  -0.08  -0.00     0.05   0.03  -0.04     0.15   0.01  -0.09
   3   1    -0.02  -0.03  -0.00     0.01  -0.01  -0.00     0.04  -0.02  -0.02
   4   6     0.04  -0.08   0.00     0.05  -0.03  -0.04     0.15  -0.01  -0.09
   5   1     0.02  -0.03   0.00     0.01   0.01  -0.00     0.04   0.02  -0.02
   6   6     0.16   0.11   0.07     0.02  -0.13   0.02     0.16  -0.08   0.13
   7   8     0.05  -0.02  -0.03     0.08  -0.15   0.06     0.26  -0.38   0.13
   8  16    -0.00   0.03   0.00    -0.11   0.00  -0.02    -0.20   0.00  -0.13
   9   8     0.00  -0.19   0.00    -0.00  -0.00  -0.04    -0.22   0.00  -0.06
  10   8    -0.05  -0.02   0.03     0.08   0.15   0.06     0.26   0.38   0.13
  11   6    -0.01  -0.07   0.02     0.02  -0.11  -0.01    -0.01   0.02  -0.00
  12   6    -0.04   0.13   0.06    -0.02  -0.01   0.01    -0.18   0.01  -0.05
  13   6     0.04   0.13  -0.06    -0.02   0.01   0.01    -0.18  -0.01  -0.05
  14   6     0.01  -0.07  -0.02     0.02   0.11  -0.01    -0.01  -0.02  -0.00
  15   6    -0.00  -0.08   0.00     0.12  -0.00  -0.01    -0.05   0.00   0.02
  16  17     0.00   0.04  -0.00     0.14   0.00   0.28    -0.19  -0.00  -0.25
  17  17    -0.00   0.01   0.00     0.09  -0.00  -0.37     0.00   0.00   0.07
  18  17     0.15  -0.30  -0.06    -0.17   0.51   0.00     0.03  -0.11  -0.03
  19  17     0.16   0.29  -0.35    -0.02   0.01   0.03    -0.02  -0.08   0.09
  20  17    -0.16   0.29   0.35    -0.02  -0.01   0.03    -0.02   0.08   0.09
  21  17    -0.15  -0.30   0.06    -0.17  -0.51   0.00     0.03   0.11  -0.03
  22   1    -0.05   0.13   0.01     0.00   0.06   0.01     0.03  -0.04   0.03
  23   1    -0.11   0.02  -0.11    -0.02   0.03  -0.01     0.05   0.02   0.11
  24   1     0.05   0.13  -0.01     0.00  -0.06   0.01     0.03   0.04   0.03
  25   1     0.11   0.02   0.11    -0.02  -0.03  -0.01     0.05  -0.02   0.11
                     22                     23                     24
                        a                      a                      a 
 Frequencies --   395.4739               418.9922               442.6603
 Red. masses --    26.4545                16.3972                12.6841
 Frc consts  --     0.0000                 0.0000                 0.0000
 IR Inten    --     5.4982                 7.4622                 4.5675
 Raman Activ --     0.0000                 0.0000                 0.0000
 Depolar     --     0.0000                 0.0000                 0.0000
 Atom AN      X      Y      Z        X      Y      Z        X      Y      Z
   1   6     0.04   0.02  -0.01    -0.17  -0.18  -0.18    -0.01  -0.12  -0.04
   2   6     0.01   0.02   0.07    -0.01  -0.39   0.01    -0.09   0.11  -0.19
   3   1     0.02   0.00   0.03     0.04  -0.13   0.03    -0.05   0.08  -0.08
   4   6     0.01  -0.02   0.07     0.01  -0.39  -0.01     0.09   0.11   0.19
   5   1     0.02  -0.00   0.03    -0.04  -0.13  -0.03     0.05   0.08   0.08
   6   6     0.04  -0.02  -0.01     0.17  -0.18   0.18     0.01  -0.12   0.04
   7   8     0.08  -0.06  -0.01    -0.03   0.14   0.15     0.15   0.02   0.14
   8  16     0.03  -0.00  -0.06     0.00   0.12  -0.00     0.00   0.23  -0.00
   9   8    -0.07   0.00  -0.01    -0.00  -0.23   0.00    -0.00  -0.28   0.00
  10   8     0.08   0.06  -0.01     0.03   0.14  -0.15    -0.15   0.02  -0.14
  11   6     0.01  -0.03   0.05     0.07  -0.03  -0.09     0.13  -0.04   0.20
  12   6     0.38  -0.01   0.15     0.04   0.07  -0.04     0.31  -0.09   0.24
  13   6     0.38   0.01   0.15    -0.04   0.07   0.04    -0.31  -0.09  -0.24
  14   6     0.01   0.03   0.05    -0.07  -0.03   0.09    -0.13  -0.04  -0.20
  15   6    -0.07   0.00  -0.02    -0.00  -0.03   0.00    -0.00  -0.10   0.00
  16  17    -0.27  -0.00  -0.29    -0.00   0.02  -0.00     0.00   0.07  -0.00
  17  17    -0.17   0.00   0.42    -0.00   0.04   0.00    -0.00   0.01   0.00
  18  17    -0.10   0.24   0.02    -0.11   0.28  -0.08     0.04  -0.00   0.04
  19  17     0.03   0.15  -0.19     0.01  -0.04  -0.01     0.05   0.07   0.02
  20  17     0.03  -0.15  -0.19    -0.01  -0.04   0.01    -0.05   0.07  -0.02
  21  17    -0.10  -0.24   0.02     0.11   0.28   0.08    -0.04  -0.00  -0.04
  22   1     0.02   0.01  -0.01    -0.02   0.02  -0.05    -0.02  -0.18  -0.04
  23   1     0.00   0.01  -0.01    -0.15  -0.07  -0.06     0.10  -0.02   0.11
  24   1     0.02  -0.01  -0.01     0.03   0.02   0.05     0.02  -0.18   0.04
  25   1     0.00  -0.01  -0.01     0.15  -0.07   0.06    -0.10  -0.02  -0.11
                     25                     26                     27
                        a                      a                      a 
 Frequencies --   458.9527               470.0943               535.5450
 Red. masses --    15.5410                16.9950                20.8007
 Frc consts  --     0.0000                 0.0000                 0.0000
 IR Inten    --     5.7098                 2.0104                75.3587
 Raman Activ --     0.0000                 0.0000                 0.0000
 Depolar     --     0.0000                 0.0000                 0.0000
 Atom AN      X      Y      Z        X      Y      Z        X      Y      Z
   1   6    -0.13  -0.03   0.05     0.21   0.12   0.08     0.10  -0.05  -0.07
   2   6    -0.08  -0.10  -0.10     0.25   0.03   0.17     0.10   0.00  -0.28
   3   1    -0.05  -0.02  -0.04     0.06  -0.00   0.05     0.02  -0.03  -0.07
   4   6     0.08  -0.10   0.10     0.25  -0.03   0.17     0.10  -0.00  -0.28
   5   1     0.05  -0.02   0.04     0.06   0.00   0.05     0.02   0.03  -0.07
   6   6     0.13  -0.03  -0.05     0.21  -0.12   0.08     0.10   0.05  -0.07
   7   8    -0.25  -0.07  -0.27    -0.20   0.21  -0.04    -0.09  -0.02  -0.14
   8  16    -0.00  -0.28   0.00    -0.13   0.00   0.15    -0.43   0.00   0.37
   9   8     0.00   0.45  -0.00     0.15  -0.00   0.03     0.36  -0.00   0.04
  10   8     0.25  -0.07   0.27    -0.20  -0.21  -0.04    -0.09   0.02  -0.14
  11   6     0.13  -0.06   0.10     0.11  -0.01   0.12     0.05  -0.02  -0.15
  12   6     0.26  -0.03   0.16    -0.26  -0.01  -0.11     0.17   0.01  -0.00
  13   6    -0.26  -0.03  -0.16    -0.26   0.01  -0.11     0.17  -0.01  -0.00
  14   6    -0.13  -0.06  -0.10     0.11   0.01   0.12     0.05   0.02  -0.15
  15   6    -0.00  -0.10   0.00     0.06   0.00   0.11     0.05  -0.00  -0.08
  16  17    -0.00   0.06  -0.00    -0.23  -0.00  -0.23    -0.01   0.00  -0.00
  17  17     0.00   0.03  -0.00     0.00  -0.00  -0.00    -0.09   0.00   0.12
  18  17    -0.01   0.10  -0.00    -0.05   0.09  -0.04    -0.01   0.01   0.02
  19  17     0.04   0.04  -0.01     0.08   0.09  -0.09    -0.08  -0.11   0.14
  20  17    -0.04   0.04   0.01     0.08  -0.09  -0.09    -0.08   0.11   0.14
  21  17     0.01   0.10   0.00    -0.05  -0.09  -0.04    -0.01  -0.01   0.02
  22   1    -0.09   0.06   0.07     0.11   0.07  -0.00     0.03  -0.11  -0.04
  23   1    -0.07  -0.01  -0.06     0.06   0.03  -0.02     0.08  -0.01   0.08
  24   1     0.09   0.06  -0.07     0.11  -0.07  -0.00     0.03   0.11  -0.04
  25   1     0.07  -0.01   0.06     0.06  -0.03  -0.02     0.08   0.01   0.08
                     28                     29                     30
                        a                      a                      a 
 Frequencies --   558.8025               577.1309               587.9983
 Red. masses --    14.2972                19.4143                17.8494
 Frc consts  --     0.0000                 0.0000                 0.0000
 IR Inten    --    36.0394               157.0032                 2.5923
 Raman Activ --     0.0000                 0.0000                 0.0000
 Depolar     --     0.0000                 0.0000                 0.0000
 Atom AN      X      Y      Z        X      Y      Z        X      Y      Z
   1   6     0.08   0.08   0.05    -0.16   0.01   0.01    -0.02  -0.13  -0.14
   2   6     0.03   0.05   0.17    -0.18   0.06  -0.03    -0.09  -0.02   0.18
   3   1     0.05  -0.03   0.09    -0.08   0.00  -0.02     0.05   0.03   0.07
   4   6    -0.03   0.05  -0.17     0.18   0.06   0.03    -0.09   0.02   0.18
   5   1    -0.05  -0.03  -0.09     0.08   0.00   0.02     0.05  -0.03   0.07
   6   6    -0.08   0.08  -0.05     0.16   0.01  -0.01    -0.02   0.13  -0.14
   7   8     0.08   0.10   0.05     0.19   0.34   0.08     0.05  -0.30  -0.22
   8  16    -0.00  -0.16   0.00    -0.00  -0.58   0.00    -0.15   0.00   0.25
   9   8     0.00  -0.00   0.00     0.00   0.07  -0.00     0.24  -0.00   0.06
  10   8    -0.08   0.10  -0.05    -0.19   0.34  -0.08     0.06   0.30  -0.22
  11   6     0.16   0.02  -0.28     0.09  -0.05   0.06    -0.15   0.02   0.21
  12   6     0.39   0.30  -0.05    -0.20  -0.02  -0.07    -0.09  -0.02   0.12
  13   6    -0.39   0.30   0.05     0.20  -0.02   0.07    -0.09   0.02   0.12
  14   6    -0.16   0.02   0.28    -0.09  -0.05  -0.06    -0.15  -0.02   0.21
  15   6    -0.00  -0.15   0.00    -0.00  -0.12   0.00    -0.14   0.00   0.13
  16  17     0.00   0.00   0.00     0.00   0.03  -0.00     0.04  -0.00   0.03
  17  17     0.00   0.06  -0.00     0.00   0.01  -0.00     0.11  -0.00  -0.16
  18  17     0.08  -0.11  -0.06     0.01   0.03   0.02     0.03  -0.04  -0.02
  19  17     0.01  -0.13   0.03     0.00   0.02  -0.02     0.08   0.13  -0.16
  20  17    -0.01  -0.13  -0.03    -0.00   0.02   0.02     0.08  -0.13  -0.16
  21  17    -0.08  -0.11   0.06    -0.01   0.03  -0.02     0.03   0.04  -0.02
  22   1     0.05   0.01  -0.01    -0.05  -0.10  -0.02     0.02  -0.10  -0.07
  23   1     0.03   0.02   0.04    -0.00   0.01   0.13     0.01  -0.04   0.07
  24   1    -0.05   0.01   0.01     0.05  -0.10   0.02     0.02   0.10  -0.07
  25   1    -0.03   0.02  -0.04     0.00   0.01  -0.13     0.01   0.04   0.07
                     31                     32                     33
                        a                      a                      a 
 Frequencies --   607.8243               650.4177               669.4891
 Red. masses --    13.5554                18.9518                15.5889
 Frc consts  --     0.0000                 0.0000                 0.0000
 IR Inten    --    27.6030               238.5076                16.2270
 Raman Activ --     0.0000                 0.0000                 0.0000
 Depolar     --     0.0000                 0.0000                 0.0000
 Atom AN      X      Y      Z        X      Y      Z        X      Y      Z
   1   6     0.05   0.10   0.09     0.04  -0.12  -0.10    -0.21  -0.15  -0.10
   2   6     0.16  -0.16   0.05     0.03  -0.03  -0.06    -0.15   0.03  -0.09
   3   1     0.00  -0.06  -0.00     0.06  -0.00   0.01    -0.04   0.02  -0.03
   4   6    -0.16  -0.16  -0.05     0.03   0.03  -0.06     0.15   0.03   0.09
   5   1    -0.00  -0.06   0.00     0.06   0.00   0.01     0.04   0.02   0.03
   6   6    -0.05   0.10  -0.09     0.04   0.12  -0.10     0.21  -0.16   0.10
   7   8     0.21   0.15   0.03     0.33   0.34   0.18    -0.09   0.00  -0.02
   8  16    -0.00  -0.26   0.00    -0.49   0.00  -0.02     0.00   0.02  -0.00
   9   8     0.00  -0.01   0.00    -0.04  -0.00  -0.08     0.00   0.02  -0.00
  10   8    -0.21   0.15  -0.03     0.33  -0.34   0.18     0.09   0.00   0.02
  11   6    -0.27   0.11   0.08    -0.12   0.01   0.08    -0.02   0.29   0.06
  12   6     0.19  -0.14   0.24     0.00  -0.01   0.11     0.00   0.25  -0.03
  13   6    -0.19  -0.14  -0.24     0.00   0.01   0.11    -0.00   0.25   0.03
  14   6     0.27   0.11  -0.08    -0.12  -0.01   0.08     0.02   0.29  -0.06
  15   6     0.00   0.41  -0.00    -0.12   0.00   0.09     0.00   0.50  -0.00
  16  17    -0.00  -0.05   0.00     0.03  -0.00   0.02    -0.00  -0.03   0.00
  17  17    -0.00  -0.05   0.00     0.05  -0.00  -0.08    -0.00  -0.04   0.00
  18  17    -0.05  -0.02   0.00     0.02  -0.02  -0.01     0.05  -0.23  -0.01
  19  17    -0.00   0.03   0.03     0.02   0.05  -0.07    -0.05  -0.12   0.11
  20  17     0.00   0.03  -0.03     0.02  -0.05  -0.07     0.05  -0.12  -0.11
  21  17     0.05  -0.02  -0.00     0.02   0.02  -0.01    -0.05  -0.23   0.01
  22   1     0.07   0.12   0.01    -0.03   0.04   0.02    -0.10  -0.08  -0.01
  23   1    -0.09   0.01  -0.00     0.01  -0.03  -0.14    -0.02  -0.04  -0.01
  24   1    -0.07   0.12  -0.01    -0.03  -0.04   0.02     0.10  -0.08   0.01
  25   1     0.09   0.01   0.00     0.01   0.03  -0.14     0.02  -0.04   0.01
                     34                     35                     36
                        a                      a                      a 
 Frequencies --   710.5351               768.8470               801.0413
 Red. masses --    13.7796                12.7559                12.5567
 Frc consts  --     0.0000                 0.0000                 0.0000
 IR Inten    --    72.7287                 0.0541                 3.2269
 Raman Activ --     0.0000                 0.0000                 0.0000
 Depolar     --     0.0000                 0.0000                 0.0000
 Atom AN      X      Y      Z        X      Y      Z        X      Y      Z
   1   6    -0.10  -0.22  -0.11     0.20   0.16   0.04    -0.13  -0.08  -0.07
   2   6    -0.09  -0.07   0.28    -0.09   0.11   0.22    -0.20   0.16   0.36
   3   1    -0.04   0.07   0.03    -0.03   0.08   0.04    -0.01  -0.03   0.15
   4   6    -0.09   0.07   0.28    -0.09  -0.11   0.22     0.20   0.16  -0.36
   5   1    -0.04  -0.07   0.03    -0.03  -0.08   0.04     0.01  -0.03  -0.15
   6   6    -0.10   0.22  -0.11     0.20  -0.16   0.04     0.13  -0.08   0.07
   7   8     0.20  -0.05  -0.05     0.07   0.05  -0.06    -0.15   0.01   0.07
   8  16    -0.18   0.00   0.04    -0.07   0.00   0.02     0.00   0.02  -0.00
   9   8     0.03  -0.00  -0.01     0.02  -0.00   0.01     0.00   0.01  -0.00
  10   8     0.20   0.05  -0.05     0.07  -0.05  -0.06     0.15   0.01  -0.07
  11   6     0.30  -0.01  -0.05    -0.15   0.06  -0.09    -0.00   0.01  -0.20
  12   6    -0.06   0.00  -0.21     0.00   0.00  -0.06     0.10  -0.35   0.01
  13   6    -0.06  -0.00  -0.21     0.00  -0.00  -0.06    -0.10  -0.35  -0.01
  14   6     0.30   0.01  -0.05    -0.15  -0.06  -0.09     0.00   0.01   0.20
  15   6     0.31  -0.00  -0.18    -0.30  -0.00  -0.64     0.00   0.22   0.00
  16  17    -0.07   0.00  -0.05     0.14   0.00   0.15    -0.00  -0.02  -0.00
  17  17    -0.09   0.00   0.13    -0.01   0.00   0.09     0.00   0.00  -0.00
  18  17    -0.04   0.05   0.00     0.01  -0.00   0.01    -0.00  -0.01   0.01
  19  17    -0.03  -0.07   0.09    -0.01  -0.02   0.02     0.05   0.10  -0.10
  20  17    -0.03   0.07   0.09    -0.01   0.02   0.02    -0.05   0.10   0.10
  21  17    -0.04  -0.05   0.00     0.01   0.00   0.01     0.00  -0.01  -0.01
  22   1     0.00   0.05  -0.02     0.08   0.01  -0.01    -0.03  -0.07  -0.04
  23   1    -0.11  -0.07  -0.10     0.12   0.05   0.00     0.04  -0.01   0.00
  24   1     0.00  -0.05  -0.02     0.08  -0.01  -0.01     0.03  -0.07   0.04
  25   1    -0.11   0.07  -0.10     0.12  -0.05   0.00    -0.04  -0.01  -0.00
                     37                     38                     39
                        a                      a                      a 
 Frequencies --   836.3125               870.3155               917.8892
 Red. masses --    10.7375                12.6051                12.2408
 Frc consts  --     0.0000                 0.0000                 0.0000
 IR Inten    --     7.8890                 4.7093                 0.9042
 Raman Activ --     0.0000                 0.0000                 0.0000
 Depolar     --     0.0000                 0.0000                 0.0000
 Atom AN      X      Y      Z        X      Y      Z        X      Y      Z
   1   6     0.07   0.19  -0.03     0.07  -0.08   0.06    -0.13  -0.08  -0.03
   2   6    -0.29   0.30   0.08     0.08  -0.13   0.13    -0.08   0.12   0.12
   3   1    -0.13   0.13  -0.02    -0.01   0.03  -0.00    -0.11   0.06  -0.02
   4   6    -0.29  -0.30   0.08     0.08   0.13   0.13     0.08   0.12  -0.12
   5   1    -0.13  -0.13  -0.02    -0.01  -0.03  -0.00     0.11   0.06   0.02
   6   6     0.07  -0.19  -0.03     0.07   0.08   0.06     0.13  -0.08   0.03
   7   8     0.12   0.07  -0.06    -0.02  -0.04  -0.03    -0.07   0.01   0.05
   8  16    -0.07   0.00   0.00     0.00   0.00   0.01     0.00   0.01  -0.00
   9   8     0.01  -0.00   0.00     0.01   0.00   0.01    -0.00   0.00  -0.00
  10   8     0.12  -0.07  -0.06    -0.02   0.04  -0.03     0.07   0.01  -0.05
  11   6     0.01  -0.06  -0.11    -0.09   0.33  -0.17    -0.51  -0.09   0.01
  12   6     0.06   0.01  -0.08     0.18   0.04  -0.24     0.03   0.20   0.14
  13   6     0.06  -0.01  -0.08     0.18  -0.04  -0.24    -0.03   0.20  -0.14
  14   6     0.01   0.06  -0.11    -0.09  -0.33  -0.17     0.51  -0.09  -0.01
  15   6     0.17   0.00   0.47    -0.37   0.00   0.39    -0.00  -0.38   0.00
  16  17    -0.06  -0.00  -0.07     0.04  -0.00   0.01     0.00  -0.00   0.00
  17  17     0.01  -0.00  -0.05     0.05  -0.00  -0.10     0.00   0.00   0.00
  18  17     0.02  -0.02   0.02    -0.03   0.08   0.01    -0.02   0.06  -0.00
  19  17    -0.01  -0.02   0.03    -0.04  -0.07   0.07    -0.03  -0.05   0.06
  20  17    -0.01   0.02   0.03    -0.04   0.07   0.07     0.03  -0.06  -0.06
  21  17     0.02   0.02   0.02    -0.03  -0.08   0.01     0.02   0.06   0.00
  22   1    -0.01  -0.08  -0.03     0.07   0.10   0.01    -0.04  -0.03  -0.01
  23   1     0.19   0.08   0.04    -0.09  -0.04  -0.05    -0.01  -0.02  -0.02
  24   1    -0.01   0.08  -0.03     0.07  -0.10   0.01     0.04  -0.03   0.01
  25   1     0.19  -0.08   0.04    -0.09   0.04  -0.05     0.01  -0.02   0.02
                     40                     41                     42
                        a                      a                      a 
 Frequencies --   936.6636               958.2111               977.8329
 Red. masses --    10.8997                 9.1723                 8.5657
 Frc consts  --     0.0000                 0.0000                 0.0000
 IR Inten    --    12.5546                 8.9967                 5.6231
 Raman Activ --     0.0000                 0.0000                 0.0000
 Depolar     --     0.0000                 0.0000                 0.0000
 Atom AN      X      Y      Z        X      Y      Z        X      Y      Z
   1   6    -0.12  -0.01  -0.20    -0.21   0.13  -0.18    -0.04   0.37   0.03
   2   6     0.18   0.07  -0.27     0.06   0.06  -0.03    -0.13  -0.20  -0.06
   3   1     0.15   0.13  -0.06     0.08  -0.02   0.04    -0.14  -0.15  -0.03
   4   6    -0.18   0.07   0.27     0.06  -0.06  -0.03     0.13  -0.20   0.06
   5   1    -0.15   0.13   0.06     0.08   0.02   0.04     0.14  -0.15   0.03
   6   6     0.12  -0.01   0.20    -0.21  -0.13  -0.18     0.04   0.37  -0.03
   7   8     0.12   0.02  -0.21     0.02   0.06   0.11    -0.13  -0.12   0.12
   8  16    -0.00  -0.04   0.00     0.01  -0.00  -0.02     0.00   0.02  -0.00
   9   8     0.00   0.02  -0.00    -0.02   0.00  -0.02    -0.00   0.00  -0.00
  10   8    -0.12   0.02   0.21     0.02  -0.06   0.11     0.13  -0.12  -0.12
  11   6    -0.17  -0.12  -0.31     0.17   0.32   0.24    -0.07  -0.20  -0.05
  12   6     0.10  -0.09  -0.15     0.03   0.03  -0.15     0.01   0.08  -0.01
  13   6    -0.10  -0.09   0.15     0.03  -0.03  -0.15    -0.01   0.08   0.01
  14   6     0.17  -0.12   0.31     0.17  -0.32   0.24     0.07  -0.20   0.05
  15   6     0.00   0.11  -0.00    -0.11   0.00  -0.09     0.00   0.22  -0.00
  16  17    -0.00  -0.02   0.00     0.00   0.00   0.01    -0.00  -0.01   0.00
  17  17    -0.00   0.00   0.00     0.01  -0.00  -0.00     0.00  -0.01  -0.00
  18  17    -0.02   0.03  -0.01    -0.03   0.07  -0.01    -0.02   0.03  -0.01
  19  17     0.02   0.04  -0.05    -0.00  -0.02   0.02    -0.00  -0.01   0.00
  20  17    -0.02   0.04   0.05    -0.00   0.02   0.02     0.00  -0.01  -0.00
  21  17     0.02   0.03   0.01    -0.03  -0.07  -0.01     0.02   0.03   0.01
  22   1    -0.14  -0.13  -0.01    -0.15  -0.25  -0.05    -0.04  -0.19  -0.05
  23   1     0.03   0.01   0.07     0.16   0.07   0.16     0.20   0.13   0.19
  24   1     0.14  -0.13   0.01    -0.15   0.25  -0.05     0.04  -0.19   0.05
  25   1    -0.03   0.01  -0.07     0.16  -0.07   0.16    -0.20   0.13  -0.19
                     43                     44                     45
                        a                      a                      a 
 Frequencies --  1026.0442              1037.7315              1058.0626
 Red. masses --    11.1946                 8.8172                12.2472
 Frc consts  --     0.0000                 0.0000                 0.0000
 IR Inten    --    28.7728                 1.7435                 0.6110
 Raman Activ --     0.0000                 0.0000                 0.0000
 Depolar     --     0.0000                 0.0000                 0.0000
 Atom AN      X      Y      Z        X      Y      Z        X      Y      Z
   1   6    -0.03   0.00  -0.11    -0.07   0.14  -0.24     0.10  -0.07  -0.18
   2   6     0.13  -0.04   0.13     0.11  -0.09   0.12     0.01   0.07   0.17
   3   1     0.17  -0.02   0.11     0.22  -0.12   0.16     0.08   0.06   0.07
   4   6     0.13   0.04   0.13    -0.11  -0.09  -0.12    -0.01   0.07  -0.17
   5   1     0.17   0.02   0.11    -0.22  -0.12  -0.16    -0.08   0.06  -0.07
   6   6    -0.03  -0.00  -0.11     0.07   0.14   0.24    -0.10  -0.07   0.18
   7   8    -0.04  -0.01   0.11     0.02  -0.03  -0.17     0.08   0.05  -0.17
   8  16     0.02  -0.00   0.00    -0.00  -0.00   0.00     0.00   0.01   0.00
   9   8    -0.02  -0.00  -0.02     0.00   0.01  -0.00    -0.00   0.01  -0.00
  10   8    -0.04   0.01   0.11    -0.02  -0.03   0.17    -0.08   0.05   0.17
  11   6    -0.44   0.01  -0.06     0.03   0.28   0.08     0.11  -0.41   0.07
  12   6     0.09   0.01  -0.14    -0.10  -0.02   0.23    -0.13   0.19   0.25
  13   6     0.09  -0.01  -0.14     0.10  -0.02  -0.23     0.13   0.19  -0.25
  14   6    -0.44  -0.01  -0.06    -0.03   0.28  -0.08    -0.11  -0.41  -0.07
  15   6     0.56  -0.00  -0.04    -0.00  -0.29   0.00     0.00   0.34  -0.00
  16  17    -0.03   0.00  -0.02     0.00   0.01  -0.00    -0.00  -0.01   0.00
  17  17    -0.03   0.00   0.03    -0.00   0.01   0.00    -0.00  -0.01   0.00
  18  17     0.02  -0.01   0.00     0.01  -0.03   0.00    -0.01   0.04   0.00
  19  17    -0.02  -0.02   0.02    -0.02  -0.02   0.04    -0.02  -0.05   0.05
  20  17    -0.02   0.02   0.02     0.02  -0.02  -0.04     0.02  -0.05  -0.05
  21  17     0.02   0.01   0.00    -0.01  -0.03  -0.00     0.01   0.04  -0.00
  22   1    -0.02  -0.06  -0.03    -0.05  -0.17  -0.09     0.02   0.00  -0.03
  23   1     0.03   0.01   0.05     0.11   0.06   0.14     0.03  -0.01  -0.05
  24   1    -0.02   0.06  -0.03     0.05  -0.17   0.09    -0.02   0.00   0.03
  25   1     0.03  -0.01   0.05    -0.11   0.06  -0.14    -0.03  -0.01   0.05
                     46                     47                     48
                        a                      a                      a 
 Frequencies --  1059.2642              1072.3104              1094.8832
 Red. masses --    11.9275                10.5347                11.0618
 Frc consts  --     0.0000                 0.0000                 0.0000
 IR Inten    --    80.7866                55.4506                 7.7340
 Raman Activ --     0.0000                 0.0000                 0.0000
 Depolar     --     0.0000                 0.0000                 0.0000
 Atom AN      X      Y      Z        X      Y      Z        X      Y      Z
   1   6     0.09  -0.12  -0.29    -0.26   0.14   0.06    -0.01  -0.03   0.18
   2   6     0.06   0.16   0.07     0.16  -0.18   0.18    -0.11   0.10  -0.13
   3   1     0.18   0.13   0.07     0.04  -0.15   0.08     0.12  -0.15   0.11
   4   6     0.06  -0.16   0.07     0.16   0.18   0.18    -0.11  -0.10  -0.13
   5   1     0.18  -0.13   0.07     0.04   0.15   0.08     0.12   0.15   0.11
   6   6     0.09   0.12  -0.29    -0.26  -0.14   0.06    -0.01   0.03   0.18
   7   8    -0.17  -0.10   0.28     0.15   0.11  -0.12     0.04   0.01  -0.13
   8  16     0.07  -0.00   0.04    -0.04  -0.00  -0.05    -0.02   0.00  -0.01
   9   8    -0.05  -0.00  -0.09     0.03   0.00   0.06     0.02   0.00   0.04
  10   8    -0.17   0.10   0.28     0.15  -0.11  -0.12     0.04  -0.01  -0.13
  11   6     0.09  -0.29  -0.08     0.02  -0.31  -0.21    -0.06  -0.22   0.35
  12   6     0.04  -0.00  -0.09     0.01  -0.02  -0.01     0.16   0.03  -0.37
  13   6     0.04   0.00  -0.09     0.01   0.02  -0.01     0.16  -0.03  -0.37
  14   6     0.09   0.29  -0.08     0.02   0.31  -0.21    -0.06   0.22   0.35
  15   6    -0.34   0.00   0.06    -0.25   0.00   0.10    -0.09   0.00  -0.02
  16  17     0.02  -0.00   0.02     0.02  -0.00   0.01    -0.00   0.00   0.00
  17  17     0.01  -0.00  -0.02     0.01  -0.00  -0.02     0.02  -0.00  -0.01
  18  17     0.01  -0.04   0.01     0.01  -0.04   0.00     0.01  -0.03  -0.00
  19  17    -0.01  -0.01   0.02    -0.01  -0.00   0.01    -0.02  -0.05   0.05
  20  17    -0.01   0.01   0.02    -0.01   0.00   0.01    -0.02   0.05   0.05
  21  17     0.01   0.04   0.01     0.01   0.04   0.00     0.01   0.03  -0.00
  22   1    -0.03  -0.01  -0.02    -0.01  -0.13  -0.07     0.01   0.07   0.05
  23   1     0.04  -0.02  -0.06     0.01   0.04   0.19    -0.06  -0.02  -0.05
  24   1    -0.03   0.01  -0.02    -0.01   0.13  -0.07     0.01  -0.07   0.05
  25   1     0.04   0.02  -0.06     0.01  -0.04   0.19    -0.06   0.02  -0.05
                     49                     50                     51
                        a                      a                      a 
 Frequencies --  1112.6715              1148.3757              1166.4954
 Red. masses --    10.9882                11.1422                10.3634
 Frc consts  --     0.0000                 0.0000                 0.0000
 IR Inten    --    25.0530                13.2483                53.2422
 Raman Activ --     0.0000                 0.0000                 0.0000
 Depolar     --     0.0000                 0.0000                 0.0000
 Atom AN      X      Y      Z        X      Y      Z        X      Y      Z
   1   6     0.29  -0.01  -0.30    -0.18   0.03  -0.01     0.25   0.14  -0.19
   2   6    -0.23  -0.11   0.05     0.24   0.03   0.21    -0.27  -0.40  -0.01
   3   1    -0.20  -0.06  -0.05     0.08   0.08   0.03    -0.11  -0.23   0.02
   4   6     0.23  -0.11  -0.05    -0.24   0.03  -0.21    -0.27   0.40  -0.01
   5   1     0.20  -0.06   0.05    -0.08   0.08  -0.03    -0.11   0.23   0.02
   6   6    -0.29  -0.01   0.30     0.18   0.03   0.01     0.25  -0.14  -0.19
   7   8     0.11   0.07  -0.24    -0.05  -0.04   0.01    -0.04   0.01   0.14
   8  16     0.00   0.01  -0.00    -0.00  -0.01   0.00     0.03   0.00   0.09
   9   8     0.00   0.01   0.00    -0.00   0.00  -0.00    -0.06  -0.00  -0.13
  10   8    -0.11   0.07   0.24     0.05  -0.04  -0.01    -0.04  -0.01   0.14
  11   6    -0.11   0.06   0.12    -0.02  -0.11   0.40     0.05  -0.05   0.08
  12   6     0.13  -0.03  -0.24     0.16   0.03  -0.34     0.02   0.00  -0.06
  13   6    -0.13  -0.03   0.24    -0.16   0.03   0.34     0.02  -0.00  -0.06
  14   6     0.11   0.06  -0.12     0.02  -0.11  -0.40     0.05   0.05   0.08
  15   6    -0.00  -0.05   0.00     0.00   0.06  -0.00     0.02   0.00   0.04
  16  17    -0.00   0.00  -0.00     0.00   0.01  -0.00    -0.00  -0.00  -0.00
  17  17     0.00   0.00  -0.00    -0.00  -0.01   0.00     0.01  -0.00  -0.00
  18  17    -0.00  -0.00   0.00    -0.00   0.01   0.01    -0.00  -0.00  -0.00
  19  17     0.01   0.02  -0.03     0.01   0.01  -0.03    -0.00  -0.01   0.01
  20  17    -0.01   0.02   0.03    -0.01   0.01   0.03    -0.00   0.01   0.01
  21  17     0.00  -0.00  -0.00     0.00   0.01  -0.01    -0.00   0.00  -0.00
  22   1     0.07   0.01  -0.06     0.02  -0.06  -0.06     0.12  -0.02  -0.10
  23   1     0.12   0.01  -0.09    -0.06   0.00   0.14     0.03   0.03   0.08
  24   1    -0.07   0.01   0.06    -0.02  -0.06   0.06     0.12   0.02  -0.10
  25   1    -0.12   0.01   0.09     0.06   0.00  -0.14     0.03  -0.03   0.08
                     52                     53                     54
                        a                      a                      a 
 Frequencies --  1204.8987              1225.1837              1236.8429
 Red. masses --    19.8940                 2.6287                 2.7312
 Frc consts  --     0.0000                 0.0000                 0.0000
 IR Inten    --   325.4353                 2.2378                 2.6606
 Raman Activ --     0.0000                 0.0000                 0.0000
 Depolar     --     0.0000                 0.0000                 0.0000
 Atom AN      X      Y      Z        X      Y      Z        X      Y      Z
   1   6    -0.03  -0.01   0.07     0.03  -0.03   0.10     0.02  -0.06   0.04
   2   6     0.05   0.03   0.03    -0.03   0.03  -0.06    -0.05  -0.01   0.05
   3   1    -0.01  -0.03   0.01     0.22  -0.22   0.18     0.07  -0.35   0.18
   4   6     0.05  -0.03   0.03     0.03   0.03   0.06    -0.05   0.01   0.05
   5   1    -0.01   0.03   0.01    -0.22  -0.22  -0.18     0.07   0.35   0.18
   6   6    -0.03   0.01   0.07    -0.03  -0.03  -0.10     0.02   0.06   0.03
   7   8     0.05   0.03  -0.11     0.05   0.07   0.09    -0.05  -0.09  -0.03
   8  16     0.15   0.00   0.53    -0.00  -0.01   0.00    -0.03  -0.00  -0.07
   9   8    -0.26  -0.00  -0.72    -0.00  -0.00   0.00     0.05   0.00   0.12
  10   8     0.05  -0.03  -0.11    -0.05   0.07  -0.09    -0.05   0.09  -0.03
  11   6    -0.01  -0.00  -0.02    -0.07  -0.05   0.14     0.05   0.07  -0.14
  12   6    -0.00  -0.00   0.01     0.05   0.02  -0.09    -0.04  -0.01   0.06
  13   6    -0.00   0.00   0.01    -0.05   0.02   0.09    -0.04   0.01   0.06
  14   6    -0.01   0.00  -0.02     0.07  -0.05  -0.14     0.05  -0.07  -0.14
  15   6    -0.01   0.00   0.00     0.00   0.01   0.00     0.01   0.00   0.03
  16  17     0.00  -0.00  -0.00    -0.00   0.00  -0.00     0.00  -0.00  -0.00
  17  17     0.00  -0.00  -0.00     0.00  -0.00  -0.00    -0.00   0.00   0.00
  18  17    -0.00   0.00  -0.00    -0.00   0.01   0.00    -0.00   0.01   0.00
  19  17     0.00   0.00  -0.00     0.00   0.00  -0.01     0.00   0.01  -0.01
  20  17     0.00  -0.00  -0.00    -0.00   0.00   0.01     0.00  -0.01  -0.01
  21  17    -0.00  -0.00  -0.00     0.00   0.01  -0.00    -0.00  -0.01   0.00
  22   1    -0.13   0.00   0.10    -0.30  -0.02   0.24    -0.21  -0.01   0.16
  23   1     0.03   0.00  -0.01     0.26   0.04  -0.28     0.33   0.05  -0.31
  24   1    -0.13  -0.00   0.10     0.30  -0.02  -0.24    -0.21   0.01   0.16
  25   1     0.03  -0.00  -0.01    -0.26   0.04   0.28     0.33  -0.05  -0.31
                     55                     56                     57
                        a                      a                      a 
 Frequencies --  1256.0280              1265.5495              1280.6846
 Red. masses --     4.6211                 4.4136                 4.5093
 Frc consts  --     0.0000                 0.0000                 0.0000
 IR Inten    --    11.9323                 1.3094                 7.7862
 Raman Activ --     0.0000                 0.0000                 0.0000
 Depolar     --     0.0000                 0.0000                 0.0000
 Atom AN      X      Y      Z        X      Y      Z        X      Y      Z
   1   6     0.03   0.02   0.04     0.07  -0.00   0.01    -0.10  -0.13  -0.08
   2   6    -0.19   0.16  -0.07    -0.22   0.17  -0.21     0.14   0.29   0.04
   3   1     0.37  -0.15   0.26     0.24  -0.29   0.22    -0.32  -0.37  -0.00
   4   6    -0.19  -0.16  -0.07     0.22   0.17   0.21     0.14  -0.29   0.04
   5   1     0.37   0.15   0.26    -0.24  -0.29  -0.22    -0.32   0.37  -0.00
   6   6     0.03  -0.02   0.04    -0.07  -0.00  -0.01    -0.10   0.13  -0.08
   7   8     0.03   0.05  -0.00    -0.02  -0.05  -0.02     0.01  -0.02   0.09
   8  16     0.01   0.00   0.04     0.00   0.00   0.00     0.02   0.00   0.03
   9   8    -0.02  -0.00  -0.06    -0.00   0.00  -0.00    -0.02  -0.00  -0.05
  10   8     0.03  -0.05  -0.00     0.02  -0.05   0.02     0.01   0.02   0.09
  11   6     0.10   0.15  -0.18    -0.10  -0.08   0.05    -0.04   0.03   0.01
  12   6    -0.07  -0.00   0.11     0.04   0.02  -0.05     0.01   0.00  -0.01
  13   6    -0.07   0.00   0.11    -0.04   0.02   0.05     0.01  -0.00  -0.01
  14   6     0.10  -0.15  -0.18     0.10  -0.08  -0.05    -0.04  -0.03   0.01
  15   6     0.03  -0.00   0.02     0.00   0.03  -0.00    -0.02   0.00  -0.02
  16  17    -0.00  -0.00  -0.00    -0.00  -0.00  -0.00     0.00   0.00   0.00
  17  17    -0.01   0.00   0.01    -0.00  -0.00   0.00     0.01  -0.00  -0.00
  18  17    -0.00   0.01   0.01    -0.00   0.01   0.00     0.00  -0.00   0.00
  19  17     0.01   0.01  -0.01     0.00  -0.00  -0.00    -0.00  -0.00   0.00
  20  17     0.01  -0.01  -0.01    -0.00  -0.00   0.00    -0.00   0.00   0.00
  21  17    -0.00  -0.01   0.01     0.00   0.01  -0.00     0.00   0.00   0.00
  22   1     0.15   0.05  -0.08     0.19   0.06  -0.11     0.26   0.07  -0.19
  23   1    -0.22  -0.04   0.16    -0.27  -0.05   0.17     0.01  -0.02   0.01
  24   1     0.15  -0.05  -0.08    -0.19   0.06   0.11     0.26  -0.07  -0.19
  25   1    -0.22   0.04   0.16     0.27  -0.05  -0.17     0.01   0.02   0.01
                     58                     59                     60
                        a                      a                      a 
 Frequencies --  1301.7386              1330.4174              1342.8802
 Red. masses --     4.9685                 3.1315                 3.6637
 Frc consts  --     0.0000                 0.0000                 0.0000
 IR Inten    --     1.4780                 0.0664                13.9301
 Raman Activ --     0.0000                 0.0000                 0.0000
 Depolar     --     0.0000                 0.0000                 0.0000
 Atom AN      X      Y      Z        X      Y      Z        X      Y      Z
   1   6     0.12   0.10   0.05    -0.23  -0.05   0.13    -0.23  -0.02   0.14
   2   6    -0.31  -0.22   0.05    -0.06  -0.06  -0.08    -0.05  -0.13  -0.09
   3   1     0.32   0.44   0.03     0.15   0.09   0.02     0.16   0.17  -0.01
   4   6     0.31  -0.22  -0.05     0.06  -0.06   0.08    -0.05   0.13  -0.09
   5   1    -0.32   0.44  -0.03    -0.15   0.09  -0.02     0.16  -0.17  -0.01
   6   6    -0.12   0.10  -0.05     0.23  -0.05  -0.13    -0.23   0.02   0.14
   7   8    -0.00  -0.03   0.05    -0.00   0.05  -0.06     0.01  -0.04   0.04
   8  16    -0.00   0.00  -0.00    -0.00  -0.02   0.00     0.04   0.00   0.08
   9   8     0.00   0.00   0.00    -0.00  -0.00  -0.00    -0.03  -0.00  -0.09
  10   8     0.00  -0.03  -0.05     0.00   0.05   0.06     0.01   0.04   0.04
  11   6    -0.05   0.02   0.03    -0.02  -0.01  -0.00     0.02   0.00   0.01
  12   6     0.02   0.00  -0.01     0.00   0.00  -0.01    -0.00  -0.00   0.01
  13   6    -0.02   0.00   0.01    -0.00   0.00   0.01    -0.00   0.00   0.01
  14   6     0.05   0.02  -0.03     0.02  -0.01   0.00     0.02  -0.00   0.01
  15   6    -0.00  -0.01  -0.00    -0.00   0.00   0.00     0.01  -0.00   0.00
  16  17     0.00   0.00   0.00    -0.00  -0.00   0.00    -0.00   0.00  -0.00
  17  17    -0.00  -0.00   0.00     0.00  -0.00  -0.00    -0.00   0.00   0.00
  18  17    -0.00   0.00  -0.00    -0.00   0.00  -0.00    -0.00   0.00  -0.00
  19  17    -0.00  -0.00  -0.00     0.00   0.00  -0.00     0.00   0.00  -0.00
  20  17     0.00  -0.00   0.00    -0.00   0.00   0.00     0.00  -0.00  -0.00
  21  17     0.00   0.00   0.00     0.00   0.00   0.00    -0.00  -0.00  -0.00
  22   1    -0.08  -0.01   0.08     0.38   0.09  -0.25     0.35   0.07  -0.23
  23   1    -0.09   0.00   0.06     0.35   0.07  -0.18     0.34   0.07  -0.17
  24   1     0.08  -0.01  -0.08    -0.38   0.09   0.25     0.35  -0.07  -0.23
  25   1     0.09   0.00  -0.06    -0.35   0.07   0.18     0.34  -0.07  -0.17
                     61                     62                     63
                        a                      a                      a 
 Frequencies --  1444.4162              1460.2733              1599.9474
 Red. masses --     1.7408                 1.7727                12.0850
 Frc consts  --     0.0000                 0.0000                 0.0000
 IR Inten    --     9.8906                 5.7486                25.4177
 Raman Activ --     0.0000                 0.0000                 0.0000
 Depolar     --     0.0000                 0.0000                 0.0000
 Atom AN      X      Y      Z        X      Y      Z        X      Y      Z
   1   6     0.05   0.12   0.11    -0.05  -0.12  -0.11    -0.00   0.00  -0.00
   2   6     0.01   0.01   0.01    -0.02  -0.03  -0.01     0.00  -0.01   0.01
   3   1    -0.01   0.01  -0.00     0.01   0.01  -0.00    -0.00  -0.00   0.00
   4   6    -0.01   0.01  -0.01    -0.02   0.03  -0.01     0.00   0.01   0.01
   5   1     0.01   0.01   0.00     0.01  -0.01  -0.00    -0.00   0.00   0.00
   6   6    -0.05   0.12  -0.11    -0.05   0.12  -0.11    -0.00  -0.00  -0.00
   7   8     0.01   0.02  -0.03     0.01   0.02  -0.03     0.00  -0.00  -0.00
   8  16    -0.00  -0.01   0.00    -0.02  -0.00  -0.04    -0.00   0.00   0.00
   9   8     0.00   0.00  -0.00     0.01   0.00   0.04     0.00  -0.00  -0.00
  10   8    -0.01   0.02   0.03     0.01  -0.02  -0.03     0.00   0.00  -0.00
  11   6     0.00   0.00   0.00     0.00   0.00   0.01     0.00  -0.03  -0.01
  12   6     0.00   0.00  -0.00     0.00  -0.00  -0.00    -0.02   0.70   0.04
  13   6    -0.00   0.00   0.00     0.00   0.00  -0.00    -0.02  -0.70   0.04
  14   6    -0.00   0.00  -0.00     0.00  -0.00   0.01     0.00   0.03  -0.01
  15   6    -0.00  -0.00  -0.00     0.00   0.00   0.00     0.01  -0.00  -0.02
  16  17     0.00   0.00   0.00    -0.00  -0.00  -0.00     0.00   0.00   0.00
  17  17    -0.00   0.00   0.00    -0.00   0.00   0.00    -0.00   0.00   0.00
  18  17     0.00  -0.00   0.00    -0.00   0.00  -0.00    -0.00   0.01   0.01
  19  17    -0.00  -0.00   0.00     0.00  -0.00  -0.00     0.01   0.03  -0.02
  20  17     0.00  -0.00  -0.00     0.00   0.00  -0.00     0.01  -0.03  -0.02
  21  17    -0.00  -0.00  -0.00    -0.00  -0.00  -0.00    -0.00  -0.01   0.01
  22   1     0.05  -0.47  -0.17    -0.05   0.48   0.17    -0.00   0.00   0.00
  23   1    -0.25  -0.04  -0.39     0.25   0.04   0.38     0.00   0.00   0.00
  24   1    -0.05  -0.47   0.17    -0.05  -0.48   0.17    -0.00  -0.00   0.00
  25   1     0.25  -0.04   0.39     0.25  -0.04   0.38     0.00  -0.00   0.00
                     64                     65                     66
                        a                      a                      a 
 Frequencies --  2900.5220              2904.4609              2949.0673
 Red. masses --     1.7728                 1.7692                 1.7561
 Frc consts  --     0.0000                 0.0000                 0.0000
 IR Inten    --     0.0537                14.4239                 1.7263
 Raman Activ --     0.0000                 0.0000                 0.0000
 Depolar     --     0.0000                 0.0000                 0.0000
 Atom AN      X      Y      Z        X      Y      Z        X      Y      Z
   1   6     0.11  -0.06   0.14    -0.11   0.06  -0.14    -0.00   0.04  -0.01
   2   6     0.01  -0.00  -0.00    -0.01   0.00   0.00     0.08  -0.06  -0.15
   3   1    -0.01   0.01   0.02     0.01  -0.01  -0.02    -0.28   0.21   0.56
   4   6    -0.01  -0.00   0.00    -0.01  -0.00   0.00    -0.08  -0.06   0.15
   5   1     0.01   0.01  -0.02     0.01   0.01  -0.02     0.28   0.21  -0.56
   6   6    -0.11  -0.06  -0.14    -0.11  -0.06  -0.14     0.01   0.04   0.01
   7   8     0.00   0.00  -0.01     0.00   0.00  -0.01     0.00   0.00  -0.00
   8  16    -0.00  -0.00   0.00     0.00  -0.00  -0.00     0.00  -0.00  -0.00
   9   8    -0.00  -0.00   0.00    -0.00   0.00   0.00    -0.00  -0.00   0.00
  10   8    -0.00   0.00   0.01     0.00  -0.00  -0.01    -0.00   0.00   0.00
  11   6     0.00  -0.00   0.00     0.00  -0.00   0.00    -0.00  -0.00   0.01
  12   6     0.00  -0.00  -0.00     0.00  -0.00  -0.00     0.00   0.00  -0.00
  13   6    -0.00  -0.00   0.00     0.00   0.00  -0.00    -0.00   0.00   0.00
  14   6    -0.00  -0.00  -0.00     0.00   0.00   0.00     0.00  -0.00  -0.01
  15   6    -0.00   0.00  -0.00    -0.00   0.00  -0.00     0.00   0.00  -0.00
  16  17     0.00   0.00   0.00     0.00  -0.00   0.00    -0.00  -0.00  -0.00
  17  17    -0.00  -0.00   0.00     0.00  -0.00  -0.00    -0.00   0.00   0.00
  18  17    -0.00   0.00  -0.00     0.00  -0.00   0.00    -0.00   0.00   0.00
  19  17     0.00   0.00  -0.00    -0.00  -0.00   0.00    -0.00  -0.00   0.00
  20  17    -0.00   0.00   0.00    -0.00   0.00   0.00     0.00  -0.00  -0.00
  21  17     0.00   0.00   0.00     0.00   0.00   0.00     0.00   0.00  -0.00
  22   1    -0.38   0.16  -0.54     0.38  -0.16   0.54    -0.00   0.01  -0.00
  23   1     0.00   0.07   0.02    -0.00  -0.07  -0.02     0.03  -0.17  -0.00
  24   1     0.38   0.16   0.54     0.38   0.16   0.54     0.00   0.01   0.00
  25   1    -0.00   0.07  -0.02    -0.00   0.07  -0.02    -0.03  -0.17   0.00
                     67                     68                     69
                        a                      a                      a 
 Frequencies --  2956.1372              2958.9108              2961.8886
 Red. masses --     1.7061                 1.6791                 1.7537
 Frc consts  --     0.0000                 0.0000                 0.0000
 IR Inten    --     0.5784                21.1525                19.5941
 Raman Activ --     0.0000                 0.0000                 0.0000
 Depolar     --     0.0000                 0.0000                 0.0000
 Atom AN      X      Y      Z        X      Y      Z        X      Y      Z
   1   6    -0.02   0.14   0.00     0.02  -0.17  -0.01    -0.01   0.09   0.01
   2   6     0.04  -0.03  -0.09     0.02  -0.02  -0.04    -0.07   0.05   0.13
   3   1    -0.16   0.12   0.31    -0.07   0.05   0.15     0.24  -0.18  -0.49
   4   6     0.04   0.03  -0.09    -0.02  -0.02   0.04    -0.07  -0.05   0.13
   5   1    -0.16  -0.11   0.31     0.07   0.05  -0.15     0.24   0.18  -0.49
   6   6    -0.02  -0.15   0.00    -0.02  -0.17   0.01    -0.01  -0.09   0.01
   7   8    -0.00  -0.00   0.01    -0.01  -0.00   0.01    -0.00  -0.00   0.00
   8  16     0.00  -0.00   0.00    -0.00   0.00   0.00     0.00   0.00   0.00
   9   8     0.00   0.00  -0.00    -0.00   0.00  -0.00     0.00  -0.00  -0.00
  10   8    -0.00   0.00   0.01     0.01  -0.00  -0.01    -0.00   0.00   0.00
  11   6     0.00   0.00  -0.00    -0.00  -0.00   0.00    -0.00  -0.00   0.00
  12   6    -0.00  -0.00   0.00     0.00  -0.00  -0.00     0.00   0.00  -0.00
  13   6    -0.00   0.00   0.00    -0.00  -0.00   0.00     0.00  -0.00  -0.00
  14   6     0.00  -0.00  -0.00     0.00  -0.00  -0.00    -0.00   0.00   0.00
  15   6     0.00  -0.00  -0.00    -0.00  -0.00   0.00    -0.00   0.00   0.00
  16  17    -0.00   0.00  -0.00    -0.00   0.00   0.00     0.00   0.00   0.00
  17  17    -0.00   0.00   0.00     0.00   0.00  -0.00     0.00  -0.00  -0.00
  18  17    -0.00  -0.00   0.00    -0.00   0.00   0.00     0.00  -0.00  -0.00
  19  17     0.00  -0.00   0.00     0.00   0.00  -0.00     0.00   0.00  -0.00
  20  17     0.00   0.00   0.00    -0.00   0.00   0.00     0.00  -0.00  -0.00
  21  17    -0.00   0.00   0.00     0.00   0.00  -0.00     0.00   0.00  -0.00
  22   1    -0.03   0.03  -0.04     0.05  -0.04   0.06    -0.04   0.03  -0.05
  23   1     0.11  -0.56   0.00    -0.13   0.65  -0.00     0.07  -0.36   0.00
  24   1    -0.03  -0.03  -0.04    -0.05  -0.04  -0.06    -0.04  -0.03  -0.05
  25   1     0.11   0.56   0.00     0.13   0.64   0.00     0.07   0.36   0.00
