24
 energy: -463.638499336151 gnorm: 0.003952896743 xtb: 6.7.1 (edcfbbe)
C           -3.60707905699595        0.06505032492816       -0.37792173030820
O           -2.22880729725795        0.08177962285005       -0.81407662402989
C           -1.31712661981865       -0.01348206729766        0.18815977746477
O           -1.62286380626749       -0.11671651024127        1.35379217228496
C            0.09782991457920        0.03979830150733       -0.33404136526702
C            0.84633624944666       -1.24789876638206        0.05197778372300
C            2.30688569726681       -1.18755971112428       -0.39835135349480
C            3.01436834219533        0.04034402418417        0.17748263752552
C            2.27223874763442        1.32337815420291       -0.20017249482063
C            0.81237378479009        1.27147608514155        0.25146472326208
H           -4.20120657447978        0.05446754280514       -1.28976667226470
H           -3.82429210418614        0.95656081273771        0.21354945552388
H           -3.80644751634859       -0.82121698212416        0.22738539822006
H            0.06492067939598        0.12648883366599       -1.42622632326644
H            0.79328242464691       -1.36341176926994        1.14144638971811
H            0.34455682404053       -2.11608586459877       -0.39096410340704
H            2.82476211093429       -2.10441569828644       -0.09503283930272
H            2.34853469582467       -1.14753607485435       -1.49556490919435
H            3.05274861414153       -0.04534891598367        1.27181611736789
H            4.05081992802395        0.08248212077198       -0.17613092609764
H            2.76565600153114        2.19535397144064        0.24387326691473
H            2.31152606722879        1.45696219593229       -1.28997953227974
H            0.75941792845317        1.21042122794324        1.34533386999960
H            0.28505695702910        2.18439575858133       -0.04885253821661
24
 energy: -463.638515810737 gnorm: 0.001740080739 xtb: 6.7.1 (edcfbbe)
C           -3.60674566132253        0.06331115793607       -0.37822003561178
O           -2.22928348638920        0.08343446246023       -0.81337913733625
C           -1.31785202219315       -0.00908970967155        0.18819955699895
O           -1.62242052796786       -0.11561747027239        1.35442040912582
C            0.09761211998951        0.04077610474908       -0.33396890647288
C            0.84557450017846       -1.24718761747657        0.05236867060463
C            2.30622945594866       -1.18822907410804       -0.39798792255364
C            3.01458092557365        0.03978056263489        0.17702365832787
C            2.27283602236833        1.32330833884098       -0.20053443814231
C            0.81285794489006        1.27212306366629        0.25114618065566
H           -4.20090716981721        0.05680707111725       -1.29159859433388
H           -3.82588207647397        0.95262502698116        0.21845905664937
H           -3.80501188927409       -0.82714749536341        0.22285064349382
H            0.06510978387925        0.12718299352435       -1.42641400052309
H            0.79248799651050       -1.36227938335893        1.14211875787518
H            0.34306236423788       -2.11568152859322       -0.38948812832311
H            2.82381361604208       -2.10535897227828       -0.09464121580802
H            2.34802215809732       -1.14901403640376       -1.49548585950381
H            3.05360727661808       -0.04573299685149        1.27166308301183
H            4.05112514691769        0.08147087413984       -0.17645692829427
H            2.76642590426898        2.19533999201579        0.24335569489049
H            2.31269475547414        1.45752803787178       -1.29055936665863
H            0.75973426366371        1.21145621014702        1.34527385838683
H            0.28582051495649        2.18548224401319       -0.04894507520739
24
 energy: -463.638527269847 gnorm: 0.002483255674 xtb: 6.7.1 (edcfbbe)
C           -3.60570117867044        0.06027192156617       -0.37895803859252
O           -2.22966207560181        0.08522062940866       -0.81221104284666
C           -1.31896152351395       -0.00848767109277        0.18748400336123
O           -1.62145957219768       -0.11095288405050        1.35537059646116
C            0.09749523276274        0.04283710939158       -0.33386668606464
C            0.84387396488958       -1.24538266045847        0.05418126128822
C            2.30429208439771       -1.18881264059693       -0.39719356169685
C            3.01489295159477        0.03899914052596        0.17611792369541
C            2.27432615156489        1.32362327671912       -0.20126172231387
C            0.81402106458030        1.27391369001209        0.24999168191188
H           -4.20032004820339        0.06625698733189       -1.29410631275900
H           -3.82764277665589        0.94202050069574        0.23140639581829
H           -3.80430241838477       -0.83990700020718        0.20981651536745
H            0.06593031586464        0.12795838148365       -1.42683082717274
H            0.79085473050793       -1.35904271253570        1.14442770562407
H            0.33989370695142       -2.11442362207620       -0.38550799276217
H            2.82087112748240       -2.10654347516109       -0.09343529266304
H            2.34600335271216       -1.15148705131340       -1.49517180386089
H            3.05532021352592       -0.04612909730376        1.27119714704645
H            4.05140274582260        0.07921197891876       -0.17779235522364
H            2.76882075659418        2.19531139807257        0.24253585370277
H            2.31514503818869        1.45872226737320       -1.29161545152543
H            0.76070772939736        1.21406279485532        1.34451667727262
H            0.28769025186759        2.18804883883600       -0.04989515275441
24
 energy: -463.638536408307 gnorm: 0.002155246127 xtb: 6.7.1 (edcfbbe)
C           -3.60553351908772        0.05806815368878       -0.37938014069043
O           -2.22953111766638        0.08635185279236       -0.81190348677268
C           -1.31891528536369       -0.00568328756296        0.18746755679691
O           -1.62119516050764       -0.10933587669946        1.35522571798221
C            0.09766739641783        0.04430540193632       -0.33380081084805
C            0.84303041775871       -1.24425280943747        0.05496129764272
C            2.30332647961039       -1.18913918868414       -0.39673012170750
C            3.01490434762936        0.03842926284116        0.17580022581681
C            2.27510872739880        1.32342884788588       -0.20167340820527
C            0.81486211416553        1.27497037505450        0.24979793005995
H           -4.20015225322670        0.07038980302635       -1.29399040296747
H           -3.82816508388005        0.93491347088145        0.23705779979042
H           -3.80486189518208       -0.84591099750756        0.20292227059778
H            0.06638506986056        0.12893370612687       -1.42678362013593
H            0.79024533616349       -1.35692715358042        1.14527302561683
H            0.33828769998225       -2.11322789829607       -0.38392927379139
H            2.81932059433864       -2.10700176227270       -0.09242514900643
H            2.34467623461116       -1.15246475448018       -1.49468238077676
H            3.05578097775842       -0.04626300445570        1.27082508137951
H            4.05119680759569        0.07778342101051       -0.17883803151465
H            2.77029554768913        2.19469371801657        0.24217602834388
H            2.31591351132911        1.45837422761756       -1.29197601832949
H            0.76159086687962        1.21551058480568        1.34428926898993
H            0.28925394477586        2.18934541872563       -0.05048409607773
24
 energy: -463.638553786590 gnorm: 0.001497905441 xtb: 6.7.1 (edcfbbe)
C           -3.60554576214067        0.05197158317135       -0.38034890527668
O           -2.22933005626962        0.08827493907792       -0.81181661757646
C           -1.31884620673541        0.00011966019831        0.18765109189532
O           -1.62154258187724       -0.10477203532159        1.35490302352072
C            0.09779147674749        0.04870505031290       -0.33327158844551
C            0.84051461823569       -1.24080588288179        0.05739261510202
C            2.30049727963265       -1.18993323590206       -0.39525056538885
C            3.01497671939495        0.03688654853028        0.17489788036321
C            2.27758816069466        1.32302687997083       -0.20293524787842
C            0.81741149987591        1.27822808252894        0.24913101319941
H           -4.19948076490024        0.08371161676386       -1.29373354746511
H           -3.82771026987157        0.91433362169460        0.25441933798790
H           -3.80628375316489       -0.86379208336490        0.18199048063404
H            0.06714603883567        0.13201119083588       -1.42619368230210
H            0.78833466360790       -1.35064229508631        1.14780357519310
H            0.33348790632065       -2.10934493174685       -0.37942528256388
H            2.81462773890437       -2.10823138953348       -0.08936739197467
H            2.34088933309587       -1.15497916997127       -1.49302755213199
H            3.05707327263311       -0.04659427292020        1.26965641447763
H            4.05063607947464        0.07370132403357       -0.18180670136030
H            2.77502850962831        2.19310937958192        0.24063399296347
H            2.31795350004351        1.45703730223583       -1.29306000487639
H            0.76424318420722        1.22000919067092        1.34345745537112
H            0.29403100559890        2.19326440328501       -0.05250126128918
24
 energy: -463.638563961077 gnorm: 0.001467297115 xtb: 6.7.1 (edcfbbe)
C           -3.60557863157188        0.04214959238666       -0.38190233692079
O           -2.22886638134760        0.09043250556302       -0.81262373224900
C           -1.31878771675605        0.00786022115787        0.18808344225445
O           -1.62295961470628       -0.09626915494093        1.35486563045034
C            0.09784068594103        0.05586194902822       -0.33211823945711
C            0.83636533111676       -1.23531978911036        0.06169426286934
C            2.29584021291569       -1.19119520986306       -0.39270421754997
C            3.01525982893405        0.03446573098733        0.17348977135365
C            2.28148480325790        1.32233577941648       -0.20542403689165
C            0.82131895862588        1.28396998682541        0.24796327367558
H           -4.19883313388510        0.10931646194760       -1.29393433720786
H           -3.82531189724757        0.87957862409320        0.28635898218630
H           -3.80807552839970       -0.89522837087743        0.14468022865888
H            0.06781441956734        0.13687139657377       -1.42509994849001
H            0.78503580130230       -1.34085590811020        1.15243084738721
H            0.32549659303303       -2.10328426941573       -0.37153898576227
H            2.80677833917753       -2.11037207623301       -0.08434782987204
H            2.33504471399407       -1.15948495576780       -1.49041945445155
H            3.05945633128465       -0.04689717229363        1.26810226215637
H            4.05011131769375        0.06715832304636       -0.18590787997734
H            2.78261463210549        2.19101541555981        0.23661672412716
H            2.32117046447926        1.45453354973438       -1.29556552686962
H            0.76858534304011        1.22837496080679        1.34228338846674
H            0.30168647167144        2.20028428273870       -0.05578492075170
24
 energy: -463.638565913298 gnorm: 0.001131432175 xtb: 6.7.1 (edcfbbe)
C           -3.60594019661795        0.04321463102763       -0.38184586414008
O           -2.22886935591391        0.08804847701202       -0.81347455841052
C           -1.31876503916697        0.00553959790872        0.18861167672159
O           -1.62382557296439       -0.09586261117912        1.35539353609449
C            0.09760111129077        0.05502686535438       -0.33168181300051
C            0.83704412191436       -1.23598415251542        0.06140215969584
C            2.29656839665642       -1.19101300577762       -0.39284511724307
C            3.01530267560884        0.03489582911460        0.17376245266570
C            2.28112452182477        1.32252151673719       -0.20544700674884
C            0.82095603532888        1.28348978617222        0.24815710429099
H           -4.19971223465425        0.10985650963213       -1.29287494633402
H           -3.82314175827483        0.88137086980979        0.28440214967878
H           -3.80873619527334       -0.89194834270922        0.14555847001858
H            0.06694672381847        0.13637428785595       -1.42467780081325
H            0.78550958493188       -1.34245000906412        1.15212189575963
H            0.32644991187001       -2.10381782536657       -0.37247293865267
H            2.80777211793628       -2.11021827716565       -0.08494007645470
H            2.33605042694680       -1.15898466976556       -1.49066107752462
H            3.05915350243242       -0.04663944920929        1.26852422438568
H            4.05039704856531        0.06812989283049       -0.18482370434732
H            2.78195573129327        2.19185377564603        0.23565139359842
H            2.32042576045236        1.45422104787447       -1.29582986187398
H            0.76840113595361        1.22802581429893        1.34260735986398
H            0.30082295601461        2.19965044317263       -0.05542019434391
24
 energy: -463.638567464425 gnorm: 0.000662837091 xtb: 6.7.1 (edcfbbe)
C           -3.60572450591538        0.04453653104792       -0.38159392224188
O           -2.22884963682770        0.08581103417267       -0.81365515734870
C           -1.31890976846523        0.00430682843895        0.18847976755526
O           -1.62392482545189       -0.09380268560833        1.35582725382674
C            0.09748316796457        0.05352722351255       -0.33168598659254
C            0.83793309265976       -1.23711205191305        0.06085013192956
C            2.29755301764196       -1.19081166706382       -0.39302092686687
C            3.01533138901272        0.03547643947787        0.17412472641017
C            2.28029408732827        1.32255921874745       -0.20545751445455
C            0.82016233460668        1.28248954576746        0.24815244950302
H           -4.20006285413986        0.11081679861979       -1.29271885180073
H           -3.82144712822851        0.88456808333352        0.28337327740362
H           -3.81029616183066       -0.88946036544497        0.14734288372642
H            0.06651456711776        0.13502454297026       -1.42468097515720
H            0.78618992612206       -1.34454996262170        1.15161690182143
H            0.32802931100855       -2.10512546506500       -0.37361699057844
H            2.80942189966315       -2.10985072683773       -0.08555446353786
H            2.33735972318285       -1.15844780982112       -1.49094920376752
H            3.05860108603109       -0.04617525782572        1.26908262946687
H            4.05074395805874        0.06946592856458       -0.18352388957758
H            2.78044811877939        2.19258082082192        0.23512264145173
H            2.31962518439600        1.45404475776852       -1.29603634566824
H            0.76779552849006        1.22702263275876        1.34276243352634
H            0.29921996900280        2.19840544599072       -0.05504312810475
24
 energy: -463.638567464425 gnorm: 0.000662837091 xtb: 6.7.1 (edcfbbe)
C           -3.60572450591538        0.04453653104792       -0.38159392224188
O           -2.22884963682770        0.08581103417267       -0.81365515734870
C           -1.31890976846523        0.00430682843895        0.18847976755526
O           -1.62392482545189       -0.09380268560833        1.35582725382674
C            0.09748316796457        0.05352722351255       -0.33168598659254
C            0.83793309265976       -1.23711205191305        0.06085013192956
C            2.29755301764196       -1.19081166706382       -0.39302092686687
C            3.01533138901272        0.03547643947787        0.17412472641017
C            2.28029408732827        1.32255921874745       -0.20545751445455
C            0.82016233460668        1.28248954576746        0.24815244950302
H           -4.20006285413986        0.11081679861979       -1.29271885180073
H           -3.82144712822851        0.88456808333352        0.28337327740362
H           -3.81029616183066       -0.88946036544497        0.14734288372642
H            0.06651456711776        0.13502454297026       -1.42468097515720
H            0.78618992612206       -1.34454996262170        1.15161690182143
H            0.32802931100855       -2.10512546506500       -0.37361699057844
H            2.80942189966315       -2.10985072683773       -0.08555446353786
H            2.33735972318285       -1.15844780982112       -1.49094920376752
H            3.05860108603109       -0.04617525782572        1.26908262946687
H            4.05074395805874        0.06946592856458       -0.18352388957758
H            2.78044811877939        2.19258082082192        0.23512264145173
H            2.31962518439600        1.45404475776852       -1.29603634566824
H            0.76779552849006        1.22702263275876        1.34276243352634
H            0.29921996900280        2.19840544599072       -0.05504312810475
