26
 energy: -315.581542586246 gnorm: 0.022639829154 xtb: 6.7.1 (edcfbbe)
C           -1.97251030037407       -1.06100843027016       -0.81029163525906
C           -1.60042450850919       -0.21825829469672        0.40801266508080
C           -2.04167555300472        1.22920230094469        0.19880032948809
C           -0.14327945046349       -0.38316867556979        0.88469110849203
C            1.09024354798312        0.00843596720374        0.04170026901848
C            1.21537139413856       -0.80865730265834       -1.24578918085204
C            1.13173655180150        1.49929802976438       -0.29823426813216
C            2.31328869312508       -0.30819598543657        0.91777325310669
H           -1.59246947490567       -0.62248315587584       -1.72802620186573
H           -1.58213547840109       -2.07134929461787       -0.71819228421825
H           -3.05605780855422       -1.12116231749682       -0.89711469049754
H           -2.19123994347100       -0.60641994766872        1.24974553695380
H           -1.70113354205382        1.86134464352481        1.01501624294978
H           -1.66072295453591        1.63096926992273       -0.73502190012571
H           -3.12857800858636        1.27873760566664        0.16077879857125
H           -0.06719118532977        0.17305562917669        1.82416341600833
H           -0.02351048401042       -1.44142086553873        1.13641989380358
H            2.20176270247566       -0.65996141069245       -1.68182043334526
H            0.47957120611251       -0.50573362842410       -1.98336227667888
H            1.08961634378284       -1.86982108512857       -1.04469099516293
H            2.11617818353773        1.76257888398105       -0.68119342880185
H            0.93815981151572        2.10339915293207        0.58472516715911
H            0.40259115427840        1.75395338477722       -1.06044877946991
H            2.28698252021342        0.26721043301841        1.84073585481568
H            3.23331245363277       -0.06308395332795        0.39160773047353
H            2.34125725233747       -1.36510596860491        1.17476468892057
26
 energy: -315.582383735164 gnorm: 0.005769637757 xtb: 6.7.1 (edcfbbe)
C           -1.97931842431419       -1.06730228590643       -0.81146378531503
C           -1.59942279633617       -0.21595664170441        0.40290764986702
C           -2.04942263286667        1.23401171191683        0.20381984687407
C           -0.14260747897270       -0.38392313338827        0.88613903876894
C            1.09561714067169        0.00764815617266        0.04437891772818
C            1.21830658461552       -0.81125507381849       -1.24706771529737
C            1.13390384966580        1.50203253668365       -0.29843978900250
C            2.31896661279070       -0.30996838742693        0.92302202082180
H           -1.59819658594073       -0.63310445473032       -1.73734770330231
H           -1.59072100326754       -2.08544208577828       -0.72705979846021
H           -3.06747491497403       -1.12630665797717       -0.90458138701872
H           -2.18753392590529       -0.60545915125702        1.24710332774316
H           -1.71174048436140        1.87597434104034        1.02151786582928
H           -1.66894529976970        1.64685616465835       -0.73190350526249
H           -3.14104451722252        1.28679658193526        0.16094054448881
H           -0.06383133399349        0.16780798475262        1.83248478209753
H           -0.01936693131408       -1.44401063832926        1.14531974220103
H            2.20707159021734       -0.66081432829046       -1.69097118118016
H            0.47765336896411       -0.51452267514275       -1.99037243734171
H            1.09640989153334       -1.87999987636440       -1.04994324843490
H            2.12036010503954        1.76888590235547       -0.68963177282957
H            0.94449786424658        2.11611824524651        0.58638462828675
H            0.39818466157844        1.76325748599994       -1.06003853166921
H            2.29511754341094        0.26713164796355        1.85207581069096
H            3.24415532110889       -0.06395861008309        0.39428501685551
H            2.34852513914477       -1.37214229877189        1.18319168024582
26
 energy: -315.582472619543 gnorm: 0.001208071107 xtb: 6.7.1 (edcfbbe)
C           -1.98456217914898       -1.06669112288019       -0.81257175940934
C           -1.60210913064383       -0.21619415945406        0.40321794760843
C           -2.05538206172932        1.23418212639131        0.20467729791362
C           -0.14349544306314       -0.38322275308600        0.88448616568723
C            1.09933731746695        0.00730511463498        0.04554190215840
C            1.22338411348768       -0.81288144006374       -1.24682761213831
C            1.13821944000017        1.50285692097957       -0.29879434772313
C            2.32331621101951       -0.31012411633344        0.92459860243200
H           -1.60364674049604       -0.63809284051448       -1.74386034338484
H           -1.59868464222409       -2.08808621153509       -0.72926972333370
H           -3.07446310445750       -1.12434666354402       -0.90662574652746
H           -2.18879935389847       -0.60672578573539        1.24841666810895
H           -1.72112341746475        1.87794051970557        1.02504371592077
H           -1.67628125444701        1.65674499505070       -0.73000772875997
H           -3.14877659625501        1.28598733929422        0.16043759315845
H           -0.06466865409023        0.16642393991942        1.83383520734915
H           -0.02001196317180       -1.44414333199093        1.14677785933265
H            2.21149241212819       -0.65979685710170       -1.69621553833223
H            0.47850248971992       -0.52131491447684       -1.99062519493480
H            1.10631591222530       -1.88458045201157       -1.05056857134684
H            2.12354703680804        1.77106833048700       -0.69750630984727
H            0.95441041545852        2.12122378795861        0.58700935165821
H            0.39664840676373        1.76648175118837       -1.05654050827668
H            2.30063369489347        0.26708732328457        1.85594627030062
H            3.25179400968385       -0.06497571970102        0.39730710305710
H            2.35354677436887       -1.37377214378346        1.18686946216968
26
 energy: -315.582491576840 gnorm: 0.001154732558 xtb: 6.7.1 (edcfbbe)
C           -1.98747705867471       -1.06611730367751       -0.81369454702282
C           -1.60166340731884       -0.21501135694572        0.40064498171909
C           -2.05926834003118        1.23462810824536        0.20625755296548
C           -0.14275941614029       -0.38258999846922        0.88292968593728
C            1.10164807367430        0.00744721706003        0.04477669126774
C            1.22712642196523       -0.81380080090507       -1.24689909892188
C            1.14123009422080        1.50285072484455       -0.30031934452426
C            2.32370236693371       -0.31025041138651        0.92644709693271
H           -1.60621832377298       -0.64012730287196       -1.74612080786345
H           -1.60543513331636       -2.08905983525914       -0.72958801029322
H           -3.07784562798639       -1.12030581324237       -0.90654976548723
H           -2.18722541800501       -0.60672556553548        1.24603701712587
H           -1.72936320183911        1.87729426619087        1.02948053520762
H           -1.68039696485996        1.66186573413629       -0.72645846347782
H           -3.15299675804070        1.28246362959547        0.16047960362905
H           -0.06478647607871        0.16683718770710        1.83272637326565
H           -0.02021859346110       -1.44374934935127        1.14563091246110
H            2.21346916958788       -0.65653563931141       -1.69895429804490
H            0.47869791390740       -0.52739564050447       -1.98923593877893
H            1.11631250044637       -1.88596443835827       -1.04871796686056
H            2.12441297850510        1.76957905727643       -0.70554895772846
H            0.96453167781346        2.12170690350498        0.58677538679516
H            0.39473263799016        1.76768782235527       -1.05290800263777
H            2.30145813667923        0.26722327977035        1.85775555230700
H            3.25302439100516       -0.06581912456683        0.40025976302895
H            2.35445239744379       -1.37377872282638        1.18954818939787
26
 energy: -315.582506733367 gnorm: 0.000561318104 xtb: 6.7.1 (edcfbbe)
C           -1.99022964916880       -1.06354456079515       -0.81583624185459
C           -1.60273257844820       -0.21428680047518        0.39887136112652
C           -2.06350942937769        1.23459405039393        0.20844943588646
C           -0.14269348179628       -0.38132551846017        0.87970708390748
C            1.10431357872463        0.00718676458069        0.04413131433843
C            1.23174366176256       -0.81565047401448       -1.24585501104644
C            1.14433699203105        1.50171393776971       -0.30244923775016
C            2.32466054668943       -0.30961088073454        0.92807243476541
H           -1.60737945581994       -0.64021570635458       -1.74847508064560
H           -1.61378247450871       -2.08811297854083       -0.72993952154971
H           -3.08074240402165       -1.11213821934263       -0.90772964566551
H           -2.18594445630523       -0.60846388586238        1.24467630915773
H           -1.74009766686768        1.87393455528141        1.03649524471005
H           -1.68360228508114        1.66784700868129       -0.72068098413322
H           -3.15714329885128        1.27679570904909        0.15937499527528
H           -0.06534116171336        0.16844866781548        1.82907728563576
H           -0.02096263865267       -1.44240930535958        1.14209556331726
H            2.21476173482826       -0.65013401082407       -1.70154533430884
H            0.47771769644920       -0.53759325705149       -1.98531548537302
H            1.13194360922334       -1.88795332563462       -1.04396172438032
H            2.12374955307683        1.76459101917863       -0.71852091508136
H            0.97980371461356        2.12078163415608        0.58653526383870
H            0.39031201989992        1.76791371612519       -1.04667768533185
H            2.30059175314701        0.26884630101797        1.85834798831608
H            3.25503590493458       -0.06626003741448        0.40369830824508
H            2.35433481253576       -1.37260378194411        1.19221332680511
26
 energy: -315.582509668842 gnorm: 0.000467782821 xtb: 6.7.1 (edcfbbe)
C           -1.98981975656859       -1.06188275298987       -0.81674053716885
C           -1.60223472047619       -0.21446317941733        0.39916090520663
C           -2.06367987873422        1.23431316724009        0.20991417303422
C           -0.14246738109750       -0.38186974928504        0.88047915711791
C            1.10335282495651        0.00685661256599        0.04380158487962
C            1.23228113964027       -0.81670414346663       -1.24542432534961
C            1.14399565449689        1.50094682146939       -0.30385756385558
C            2.32358622433522       -0.30890134475841        0.92830291773257
H           -1.60537146653983       -0.63779659556762       -1.74821030424758
H           -1.61460421380333       -2.08683091530832       -0.73150123776291
H           -3.08021234119095       -1.10903421715483       -0.91034454576763
H           -2.18537517302114       -0.60977755174365        1.24449172415200
H           -1.74202506740424        1.87241652544315        1.03939213501141
H           -1.68204295621956        1.66873026624393       -0.71775820447945
H           -3.15713917565107        1.27647551969211        0.15845252622946
H           -0.06507805229852        0.16813507274716        1.82956077483015
H           -0.02076508890078       -1.44281918776602        1.14286860548022
H            2.21407020326863       -0.64814288195001       -1.70248624402045
H            0.47669737282307       -0.54219238789779       -1.98432158449409
H            1.13659687731093       -1.88900039735544       -1.04229032404561
H            2.12215045882689        1.76258005067828       -0.72338965353280
H            0.98321214678161        2.12055842976307        0.58521839090725
H            0.38809831188146        1.76768784770654       -1.04564784588890
H            2.29876779108924        0.27035102254420        1.85799897110675
H            3.25393982319988       -0.06563738594434        0.40387318045698
H            2.35321124685562       -1.37164923109692        1.19321947404813
26
 energy: -315.582509668842 gnorm: 0.000467782821 xtb: 6.7.1 (edcfbbe)
C           -1.98981975656859       -1.06188275298987       -0.81674053716885
C           -1.60223472047619       -0.21446317941733        0.39916090520663
C           -2.06367987873422        1.23431316724009        0.20991417303422
C           -0.14246738109750       -0.38186974928504        0.88047915711791
C            1.10335282495651        0.00685661256599        0.04380158487962
C            1.23228113964027       -0.81670414346663       -1.24542432534961
C            1.14399565449689        1.50094682146939       -0.30385756385558
C            2.32358622433522       -0.30890134475841        0.92830291773257
H           -1.60537146653983       -0.63779659556762       -1.74821030424758
H           -1.61460421380333       -2.08683091530832       -0.73150123776291
H           -3.08021234119095       -1.10903421715483       -0.91034454576763
H           -2.18537517302114       -0.60977755174365        1.24449172415200
H           -1.74202506740424        1.87241652544315        1.03939213501141
H           -1.68204295621956        1.66873026624393       -0.71775820447945
H           -3.15713917565107        1.27647551969211        0.15845252622946
H           -0.06507805229852        0.16813507274716        1.82956077483015
H           -0.02076508890078       -1.44281918776602        1.14286860548022
H            2.21407020326863       -0.64814288195001       -1.70248624402045
H            0.47669737282307       -0.54219238789779       -1.98432158449409
H            1.13659687731093       -1.88900039735544       -1.04229032404561
H            2.12215045882689        1.76258005067828       -0.72338965353280
H            0.98321214678161        2.12055842976307        0.58521839090725
H            0.38809831188146        1.76768784770654       -1.04564784588890
H            2.29876779108924        0.27035102254420        1.85799897110675
H            3.25393982319988       -0.06563738594434        0.40387318045698
H            2.35321124685562       -1.37164923109692        1.19321947404813
