      -----------------------------------------------------------      
     |                   =====================                   |     
     |                           x T B                           |     
     |                   =====================                   |     
     |                         S. Grimme                         |     
     |          Mulliken Center for Theoretical Chemistry        |     
     |                    University of Bonn                     |     
      -----------------------------------------------------------      

   * xtb version 6.7.1 (edcfbbe) compiled by 'albert@albert-system' on 2024-07-22

   xtb is free software: you can redistribute it and/or modify it under
   the terms of the GNU Lesser General Public License as published by
   the Free Software Foundation, either version 3 of the License, or
   (at your option) any later version.
   
   xtb is distributed in the hope that it will be useful,
   but WITHOUT ANY WARRANTY; without even the implied warranty of
   MERCHANTABILITY or FITNESS FOR A PARTICULAR PURPOSE.  See the
   GNU Lesser General Public License for more details.
   
   Cite this work as:
   * C. Bannwarth, E. Caldeweyher, S. Ehlert, A. Hansen, P. Pracht,
     J. Seibert, S. Spicher, S. Grimme, WIREs Comput. Mol. Sci., 2020, 11,
     e01493. DOI: 10.1002/wcms.1493
   
   for GFN2-xTB:
   * C. Bannwarth, S. Ehlert and S. Grimme., J. Chem. Theory Comput., 2019,
     15, 1652-1671. DOI: 10.1021/acs.jctc.8b01176
   for GFN1-xTB:
   * S. Grimme, C. Bannwarth, P. Shushkov, J. Chem. Theory Comput., 2017,
     13, 1989-2009. DOI: 10.1021/acs.jctc.7b00118
   for GFN0-xTB:
   * P. Pracht, E. Caldeweyher, S. Ehlert, S. Grimme, ChemRxiv, 2019, preprint.
     DOI: 10.26434/chemrxiv.8326202.v1
   for GFN-FF:
   * S. Spicher and S. Grimme, Angew. Chem. Int. Ed., 2020, 59, 15665-15673.
     DOI: 10.1002/anie.202004239
   
   for ALPB and GBSA implicit solvation:
   * S. Ehlert, M. Stahn, S. Spicher, S. Grimme, J. Chem. Theory Comput.,
     2021, 17, 4250-4261. DOI: 10.1021/acs.jctc.1c00471
   
   for ddCOSMO and CPCM-X implicit solvation:
   * M. Stahn, S. Ehlert, S. Grimme, J. Phys. Chem. A,
     2023, XX, XXXX-XXXX. DOI: 10.1021/acs.jpca.3c04382
   
   for DFT-D4:
   * E. Caldeweyher, C. Bannwarth and S. Grimme, J. Chem. Phys., 2017,
     147, 034112. DOI: 10.1063/1.4993215
   * E. Caldeweyher, S. Ehlert, A. Hansen, H. Neugebauer, S. Spicher,
     C. Bannwarth and S. Grimme, J. Chem. Phys., 2019, 150, 154122.
     DOI: 10.1063/1.5090222
   * E. Caldeweyher, J.-M. Mewes, S. Ehlert and S. Grimme, Phys. Chem. Chem. Phys.
     2020, 22, 8499-8512. DOI: 10.1039/D0CP00502A
   
   for sTDA-xTB:
   * S. Grimme and C. Bannwarth, J. Chem. Phys., 2016, 145, 054103.
     DOI: 10.1063/1.4959605
   
   in the mass-spec context:
   * V. Asgeirsson, C. Bauer and S. Grimme, Chem. Sci., 2017, 8, 4879.
     DOI: 10.1039/c7sc00601b
   * J. Koopman and S. Grimme, ACS Omega 2019, 4, 12, 15120-15133.
     DOI: 10.1021/acsomega.9b02011
   
   for metadynamics refer to:
   * S. Grimme, J. Chem. Theory Comput., 2019, 155, 2847-2862
     DOI: 10.1021/acs.jctc.9b00143
   
   for SPH calculations refer to:
   * S. Spicher and S. Grimme, J. Chem. Theory Comput., 2021, 17, 1701-1714
     DOI: 10.1021/acs.jctc.0c01306
   
   for ONIOM refer to:
   * C. Plett, A. Katbashev, S. Ehlert, S. Grimme, M. Bursch,
     Phys. Chem. Chem. Phys., 2023, 25, 17860-17868. DOI: 10.1039/D3CP02178E
   
   for DIPRO refer to:
   * J. Kohn, N. Gildemeister, S. Grimme, D. Fazzi, A. Hansen,
     J. Chem. Phys., 2023, just accepted.
   
   for PTB refer to:
   * S. Grimme, M. Mueller, A. Hansen, J. Chem. Phys., 2023, 158, 124111.
     DOI: 10.1063/5.0137838
   
   with help from (in alphabetical order)
   P. Atkinson, C. Bannwarth, F. Bohle, G. Brandenburg, E. Caldeweyher
   M. Checinski, S. Dohm, S. Ehlert, S. Ehrlich, I. Gerasimov, C. Hölzer
   A. Katbashev, J. Kohn, J. Koopman, C. Lavigne, S. Lehtola, F. März, M. Müller,
   F. Musil, H. Neugebauer, J. Pisarek, C. Plett, P. Pracht, F. Pultar,
   J. Seibert, P. Shushkov, S. Spicher, M. Stahn, M. Steiner, T. Strunk,
   J. Stückrath, T. Rose, and J. Unsleber
   
 * started run on 2025/04/15 at 20:10:33.433     
   ID    Z sym.   atoms
    1    6 C      1-3, 5, 7
    2    8 O      4, 6
    3    1 H      8-17

           -------------------------------------------------
          |                Calculation Setup                |
           -------------------------------------------------

          program call               : /software/projects/pawsey0265/mwang1/xtb/bin/xtb xtb_opt.coord --opt normal --orca -I xtb_opt-xcontrol-inp
          hostname                   : nid002806
          coordinate file            : xtb_opt.coord
          omp threads                :                    12

           -------------------------------------------------
          |                   Orca driver                   |
           -------------------------------------------------
orca executable           : /software/projects/pawsey0265/mwang1/orca_avx2/orca
orca input file           : xtb_opt.inp
orca input line           : 
orca parallel             : true
orca number of threads    : 12
                         * ORCA takes the control...
  ------------------------------------------------------------------------

                                 *****************
                                 * O   R   C   A *
                                 *****************

                                            #,                                       
                                            ###                                      
                                            ####                                     
                                            #####                                    
                                            ######                                   
                                           ########,                                 
                                     ,,################,,,,,                         
                               ,,#################################,,                 
                          ,,##########################################,,             
                       ,#########################################, ''#####,          
                    ,#############################################,,   '####,        
                  ,##################################################,,,,####,       
                ,###########''''           ''''###############################       
              ,#####''   ,,,,##########,,,,          '''####'''          '####       
            ,##' ,,,,###########################,,,                        '##       
           ' ,,###''''                  '''############,,,                           
         ,,##''                                '''############,,,,        ,,,,,,###''
      ,#''                                            '''#######################'''  
     '                                                          ''''####''''         
             ,#######,   #######,   ,#######,      ##                                
            ,#'     '#,  ##    ##  ,#'     '#,    #''#        ,####,   ,####,        
            ##       ##  ##   ,#'  ##            #'  '#       #'       #'  '#        
            ##       ##  #######   ##           ,######,      #####,   #    #        
            '#,     ,#'  ##    ##  '#,     ,#' ,#      #,     #,   #   #,  ,#        
             '#######'   ##     ##  '#######'  #'      '#     '####' # '####'        



                #########################################################
                #                        -***-                          #
                #          Department of theory and spectroscopy        #
                #                                                       #
                #                      Frank Neese                      #
                #                                                       #
                #     Directorship, Architecture, Infrastructure        #
                #                    SHARK, DRIVERS                     #
                #        Core code/Algorithms in most modules           #
                #                                                       #
                #        Max Planck Institute fuer Kohlenforschung      #
                #                Kaiser Wilhelm Platz 1                 #
                #                 D-45470 Muelheim/Ruhr                 #
                #                      Germany                          #
                #                                                       #
                #                  All rights reserved                  #
                #                        -***-                          #
                #########################################################


                         Program Version 6.0.1  -  RELEASE   -


 With contributions from (in alphabetic order):
[Max-Planck-Institut fuer Kohlenforschung]                               
  Daniel Aravena         : Magnetic Suceptibility                        
  Michael Atanasov       : Ab Initio Ligand Field Theory (pilot matlab implementation)
  Alexander A. Auer      : GIAO ZORA, VPT2 properties, NMR spectrum      
  Ute Becker             : All parallelization in ORCA, NUMFREQ, NUMCALC 
  Giovanni Bistoni       : ED, misc. LED, open-shell LED, HFLD           
  Martin Brehm           : Molecular dynamics                            
  Dmytro Bykov           : pre 5.0 version of the SCF Hessian            
  Marcos Casanova-Páez   : Triplet and SCS-CIS(D). UHF-(DLPNO)-IP/EA/STEOM-CCSD. UHF-CVS-IP/STEOM-CCSD   
  Vijay G. Chilkuri      : MRCI spin determinant printing, contributions to CSF-ICE 
  Pauline Colinet        : FMM embedding                                 
  Dipayan Datta          : RHF DLPNO-CCSD density                        
  Achintya Kumar Dutta   : EOM-CC, STEOM-CC                              
  Nicolas Foglia         : Exact transition moments, OPA infrastructure, MCD improvements    
  Dmitry Ganyushin       : Spin-Orbit,Spin-Spin,Magnetic field MRCI      
  Miquel Garcia-Rates    : C-PCM and meta-GGA Hessian, CCSD/C-PCM, Gaussian charge scheme 
  Tiago L. C. Gouveia    : GS-ROHF, GS-ROCIS                             
  Yang Guo               : DLPNO-NEVPT2, F12-NEVPT2, CIM, IAO-localization        
  Andreas Hansen         : Spin unrestricted coupled pair/coupled cluster methods 
  Ingolf Harden          : AUTO-CI MPn and infrastructure                
  Benjamin Helmich-Paris : MC-RPA, TRAH-(SCF,CASSCF), AVAS, COSX integrals, SCF dyn. polar. 
  Lee Huntington         : MR-EOM, pCC                                   
  Robert Izsak           : Overlap fitted RIJCOSX, COSX-SCS-MP3, EOM     
  Riya Kayal             : Wick's Theorem for AUTO-CI, AUTO-CI UHF-CCSDT 
  Emily Kempfer          : AUTO-CI, RHF CISDT and CCSDT                  
  Christian Kollmar      : KDIIS, OOCD, Brueckner-CCSD(T), CCSD density, CASPT2, CASPT2-K, improved NEVPT2 
  Axel Koslowski         : Symmetry handling                             
  Simone Kossmann        : meta-GGA functionals, TD-DFT gradient, OOMP2, (MP2 Hessian; deprecated post 5.0) 
  Lucas Lang             : DCDCAS                                        
  Marvin Lechner         : AUTO-CI (C++ implementation), FIC-MRCC        
  Spencer Leger          : CASSCF response                               
  Dagmar Lenk            : GEPOL surface, SMD, ORCA-2-JSON               
  Dimitrios Liakos       : Extrapolation schemes; Compound Job, initial MDCI parallelization 
  Dimitrios Manganas     : Further ROCIS development; embedding schemes. LFT, Crystal Embedding 
  Dimitrios Pantazis     : SARC Basis sets                               
  Anastasios Papadopoulos: AUTO-CI, single reference methods and gradients 
  Taras Petrenko         : pre 6.0 DFT Hessian and TD-DFT gradient, (ASA, deprecated), ECA, 1-Electron XAS/XES, NRVS 
  Peter Pinski           : DLPNO-MP2, DLPNO-MP2 Gradient                 
  Christoph Reimann      : Effective Core Potentials                     
  Marius Retegan         : Local ZFS, SOC                                
  Christoph Riplinger    : Optimizer, TS searches, QM/MM, DLPNO-CCSD(T), (RO)-DLPNO pert. Triples 
  Michael Roemelt        : Original ROCIS implementation                 
  Masaaki Saitow         : Open-shell DLPNO-CCSD energy and density      
  Barbara Sandhoefer     : DKH picture change effects                    
  Kantharuban Sivalingam : CASSCF convergence/infrastructure, NEVPT2 and variants, FIC-MRCI 
  Bernardo de Souza      : ESD, SOC TD-DFT                               
  Georgi L. Stoychev     : AutoAux, RI-MP2 NMR, DLPNO-MP2 response, X2C  
  Van Anh Tran           : RI-MP2 g-tensors                              
  Willem Van den Heuvel  : Paramagnetic NMR                              
  Zikuan Wang            : NOTCH, Electric field optimization            
  Frank Wennmohs         : Technical directorship and infrastructure     
  Hang Xu                : AUTO-CI-Response properties                   
                                                                         
[FACCTs GmbH]                                                            
  Markus Bursch, Miquel Garcia-Rates, Christoph Riplinger, Bernardo de Souza, Georgi L. Stoychev 
                                                                 
  APM, Basis sets (HGBS, AHGBS, def-TZVP (Ac-Lr), def2-XVPD (La-Lu)), CI-OPT, improved COSX, DLPNO-Multilevel,           
  DOCKER, DRACO, updates on ESD, GOAT, IRC, LR-CPCM, MBIS, meta-GGA TD-DFT gradient, ML-optimized integration grids, 
  MM, NACMEs, nearIR, NEB, NEB-TS, NL-DFT gradient (VV10), 2- and 3-layer-ONIOM, interface openCOSMO-RS, QMMM,   
  Crystal-QMMM, SF, symmetry and pop. for TD-DFT, r2SCAN hybrids, SOLVATOR                                   
                                                                         
[Other institutions]                                                     
  V. Asgeirsson          : NEB                                           
  Christoph Bannwarth    : sTDA-DFT, sTD-DFT, PBEh-3c, B97-3c, D3        
  Sebastian Ehlert       : rSCAN, r2SCAN, r2SCAN-3c, D4, dhf basis sets  
  Marvin Friede          : D4 for Fr, Ra, Ac-Lr                          
  Lars Goerigk           : TD-DFT with DH, B97 family of functionals     
  Stefan Grimme          : VdW corrections, initial TS optimization, DFT functionals, gCP, sTDA/sTD-DF 
  Waldemar Hujo          : DFT-NL                                        
  H. Jonsson             : NEB                                           
  Holger Kruse           : gCP                                           
  Marcel Mueller         : wB97X-3c, vDZP basis set                      
  Hagen Neugebauer       : wr2SCAN                                       
  Tobias Risthaus        : range-separated hybrid DFT                    
  Lukas Wittmann         : regularized MP2, r2SCAN double-hybrids, wr2SCAN        
                                                                         
We gratefully acknowledge several colleagues who have allowed us to      
interface, adapt or use parts of their codes:                            
  Ed Valeev, F. Pavosevic, A. Kumar             : LibInt (2-el integral package), F12 methods 
  Garnet Chan, S. Sharma, J. Yang, R. Olivares  : DMRG                   
  Ulf Ekstrom                                   : XCFun DFT Library      
  Mihaly Kallay                                 : mrcc  (arbitrary order and MRCC methods)
  Frank Weinhold                                : gennbo (NPA and NBO analysis)           
  Simon Mueller                                 : openCOSMO-RS                            
  Christopher J. Cramer and Donald G. Truhlar   : smd solvation model                     
  S Lehtola, MJT Oliveira, MAL Marques          : LibXC Library                           
  Liviu Ungur et al                             : ANISO software                          


 Your calculation uses the libint2 library for the computation of 2-el integrals
 For citations please refer to: http://libint.valeyev.net

 Your ORCA version has been built with support for libXC version: 6.2.2
 For citations please refer to: https://libxc.gitlab.io

 This ORCA versions uses:
   CBLAS   interface :  Fast vector & matrix operations
   LAPACKE interface :  Fast linear algebra routines
   SCALAPACK package :  Parallel linear algebra routines
   Shared memory     :  Shared parallel matrices
   BLAS/LAPACK       :  OpenBLAS 0.3.27  USE64BITINT DYNAMIC_ARCH NO_AFFINITY Zen SINGLE_THREADED
        Core in use  :  Zen
   Copyright (c) 2011-2014, The OpenBLAS Project




***************************************
The coordinates will be read from file: xtb_opt.xyz
***************************************


Your calculation utilizes the geometrical counterpoise correction gCP
Please cite in your paper:
H.Kruse, S. Grimme J.Chem.Phys., 136, (2012), 154101 
   

Your calculation utilizes the atom-pairwise dispersion correction
based on EEQ partial charges (D4)


================================================================================

----- Orbital basis set information -----
Your calculation utilizes the basis: def2-mTZVPP
   Stefan Grimme, Andreas Hansen, Sebastian Ehlert, and Jan-Michael Mewes 
   J. Chem. Phys. 154, 064103 (2021). DOI: 10.1063/5.0040021

----- AuxJ basis set information -----
Your calculation utilizes the auxiliary basis: def2/J
   F. Weigend, Phys. Chem. Chem. Phys. 8, 1057 (2006).

================================================================================
                                        WARNINGS
                       Please study these warnings very carefully!
================================================================================



WARNING: SCAN, rSCAN, or r2SCAN functional requested.
  ===> : libXC variant has now been activated.



================================================================================
                                       INPUT FILE
================================================================================
NAME = xtb_opt.inp
|  1> ! r2scan-3c def2/J RI DEFGRID2 scfconv7 ENGRAD tightSCF miniprint
|  2> * xyzfile 0 1 xtb_opt.xyz
|  3> 
|  4>                          ****END OF INPUT****
================================================================================

                     *******************************
                     * Energy+Gradient Calculation *
                     *******************************

---------------------------------
CARTESIAN COORDINATES (ANGSTROEM)
---------------------------------
  C      1.773748    0.870666    0.690988
  C      1.258927    0.080920   -0.507695
  C      1.488362   -1.418040   -0.346738
  O     -0.125402    0.376232   -0.777052
  C     -1.069728    0.081647    0.117302
  O     -0.882261   -0.422464    1.193186
  C     -2.429760    0.457568   -0.419707
  H      1.559283    1.929452    0.562978
  H      1.297405    0.521528    1.602983
  H      2.848389    0.737062    0.777934
  H      1.754353    0.433100   -1.420880
  H      2.554860   -1.616553   -0.288427
  H      1.076117   -1.954669   -1.198547
  H      1.010615   -1.775592    0.561301
  H     -3.077779    0.747798    0.401913
  H     -2.860464   -0.414687   -0.907881
  H     -2.340794    1.259351   -1.145601

----------------------------
CARTESIAN COORDINATES (A.U.)
----------------------------
  NO LB      ZA    FRAG     MASS         X           Y           Z
   0 C     6.0000    0    12.011    3.351898    1.645321    1.305778
   1 C     6.0000    0    12.011    2.379027    0.152916   -0.959405
   2 C     6.0000    0    12.011    2.812596   -2.679707   -0.655241
   3 O     8.0000    0    15.999   -0.236975    0.710976   -1.468416
   4 C     6.0000    0    12.011   -2.021492    0.154291    0.221668
   5 O     8.0000    0    15.999   -1.667232   -0.798341    2.254795
   6 C     6.0000    0    12.011   -4.591581    0.864678   -0.793131
   7 H     1.0000    0     1.008    2.946618    3.646136    1.063874
   8 H     1.0000    0     1.008    2.451741    0.985544    3.029200
   9 H     1.0000    0     1.008    5.382675    1.392845    1.470081
  10 H     1.0000    0     1.008    3.315247    0.818440   -2.685074
  11 H     1.0000    0     1.008    4.827986   -3.054843   -0.545048
  12 H     1.0000    0     1.008    2.033566   -3.693788   -2.264925
  13 H     1.0000    0     1.008    1.909785   -3.355383    1.060704
  14 H     1.0000    0     1.008   -5.816160    1.413133    0.759505
  15 H     1.0000    0     1.008   -5.405494   -0.783645   -1.715647
  16 H     1.0000    0     1.008   -4.423460    2.379829   -2.164872

------------------------------------------------------------------------------
                   ___                                                        
                  /   \      - P O W E R E D   B Y -                         
                 /     \                                                     
                 |  |  |   _    _      __       _____    __    __             
                 |  |  |  | |  | |    /  \     |  _  \  |  |  /  |          
                  \  \/   | |  | |   /    \    | | | |  |  | /  /          
                 / \  \   | |__| |  /  /\  \   | |_| |  |  |/  /          
                |  |  |   |  __  | /  /__\  \  |    /   |      \           
                |  |  |   | |  | | |   __   |  |    \   |  |\   \          
                \     /   | |  | | |  |  |  |  | |\  \  |  | \   \       
                 \___/    |_|  |_| |__|  |__|  |_| \__\ |__|  \__/        
                                                                              
                      - O R C A' S   B I G   F R I E N D -                    
                                      &                                       
                       - I N T E G R A L  F E E D E R -                       
                                                                              
 v1 FN, 2020, v2 2021, v3 2022-2024                                           
------------------------------------------------------------------------------


----------------------
SHARK INTEGRAL PACKAGE
----------------------

Number of atoms                             ...     17
Number of basis functions                   ...    193
Number of shells                            ...     95
Maximum angular momentum                    ...      2
Integral batch strategy                     ... SHARK/LIBINT Hybrid
RI-J (if used) integral strategy            ... SPLIT-RIJ (Revised 2003 algorithm where possible)
Printlevel                                  ...      1
Contraction scheme used                     ... SEGMENTED contraction
Prescreening option                         ... SCHWARTZ
   Thresh                                   ... 3.000e-11
   Tcut                                     ... 1.000e-12
   Tpresel                                  ... 1.000e-12 
Coulomb Range Separation                    ... NOT USED
Exchange Range Separation                   ... NOT USED
Multipole approximations                    ... NOT USED
Finite Nucleus Model                        ... NOT USED
CABS basis                                  ... NOT available
Auxiliary Coulomb fitting basis             ... AVAILABLE
   # of basis functions in Aux-J            ...    453
   # of shells in Aux-J                     ...    155
   Maximum angular momentum in Aux-J        ...      4
Auxiliary J/K fitting basis                 ... NOT available
Auxiliary Correlation fitting basis         ... NOT available
Auxiliary 'external' fitting basis          ... NOT available

Checking pre-screening integrals            ... done (  0.0 sec) Dimension = 95
Check shell pair data                       ... done (  0.0 sec)
Shell pair information
Shell pair cut-off parameter TPreSel        ...   1.0e-12
Total number of shell pairs                 ...      4560
Shell pairs after pre-screening             ...      4239
Total number of primitive shell pairs       ...     16115
Primitive shell pairs kept                  ...     10927
          la=0 lb=0:   1400 shell pairs
          la=1 lb=0:   1579 shell pairs
          la=1 lb=1:    463 shell pairs
          la=2 lb=0:    479 shell pairs
          la=2 lb=1:    273 shell pairs
          la=2 lb=2:     45 shell pairs

Calculating one electron integrals          ... done (  0.0 sec)
Calculating RI/J V-Matrix + Cholesky decomp.... done (  0.0 sec)
Calculating Nuclear repulsion               ... done (  0.0 sec) ENN=    327.082713288564 Eh

Diagonalization of the overlap matrix:
Smallest eigenvalue                        ... 2.751e-04
Time for diagonalization                   ...    0.005 sec
Threshold for overlap eigenvalues          ... 1.000e-07
Number of eigenvalues below threshold      ... 0
Time for construction of square roots      ...    0.004 sec
Total time needed                          ...    0.010 sec

-------------------
DFT GRID GENERATION
-------------------

General Integration Accuracy     IntAcc      ... 4.388
Radial Grid Type                 RadialGrid  ... OptM3 with GC (2021)
Angular Grid (max. ang.)         AngularGrid ... 4 (Lebedev-302)
Angular grid pruning method      GridPruning ... 4 (adaptive)
Weight generation scheme         WeightScheme... mBecke (2022)
Basis function cutoff            BFCut       ... 1.0000e-11
Integration weight cutoff        WCut        ... 1.0000e-14
Partially contracted basis set               ... off
Rotationally invariant grid construction     ... off
Angular grids for H and He will be reduced by one unit
Diffuse basis detected: some atoms will have their outermost
                        angular grid increased by 1.

Total number of grid points                  ...    75013
Total number of batches                      ...     1182
Average number of points per batch           ...       63
Average number of grid points per atom       ...     4413
Initializing property integral containers    ... done (  0.0 sec)

SHARK setup successfully completed in   0.8 seconds

Maximum memory used throughout the entire STARTUP-calculation: 34.5 MB
Occupation numbers will be reassigned to an Aufbau configuration
             **** ENERGY FILE WAS UPDATED (xtb_opt.en.tmp) ****
Finished Guess after   0.1 sec
Maximum memory used throughout the entire GUESS-calculation: 14.0 MB
----------------------------------------D-I-I-S--------------------------------------------
Iteration    Energy (Eh)           Delta-E    RMSDP     MaxDP     DIISErr   Damp  Time(sec)
-------------------------------------------------------------------------------------------
               ***  Starting incremental Fock matrix formation  ***
                              *** Initializing SOSCF ***
---------------------------------------S-O-S-C-F--------------------------------------
Iteration    Energy (Eh)           Delta-E    RMSDP     MaxDP     MaxGrad    Time(sec)
--------------------------------------------------------------------------------------
    1    -346.9455254209425448     0.00e+00  4.13e-06  9.88e-05  2.83e-05     1.8
               *** Restarting incremental Fock matrix formation ***
    2    -346.9455254232746029    -2.33e-09  6.37e-06  1.84e-04  6.61e-05     1.8
    3    -346.9455251745282567     2.49e-07  4.73e-06  1.30e-04  1.96e-04     1.3
    4    -346.9455254873307695    -3.13e-07  2.19e-06  4.80e-05  1.98e-05     1.3
                  *** Gradient check signals convergence ***

               *****************************************************
               *                     SUCCESS                       *
               *           SCF CONVERGED AFTER   4 CYCLES          *
               *****************************************************

             **** ENERGY FILE WAS UPDATED (xtb_opt.en.tmp) ****

----------------
TOTAL SCF ENERGY
----------------

Total Energy       :       -346.94552548733077 Eh           -9440.86771 eV

Components:
Nuclear Repulsion  :        327.08271328856415 Eh            8900.37311 eV
Electronic Energy  :       -674.02823877589492 Eh          -18341.24083 eV
One Electron Energy:      -1119.52244666210140 Eh          -30463.75452 eV
Two Electron Energy:        445.49420788620648 Eh           12122.51369 eV

Virial components:
Potential Energy   :       -692.50239787538180 Eh          -18843.94825 eV
Kinetic Energy     :        345.55687238805103 Eh            9403.08054 eV
Virial Ratio       :          2.00401859494121

DFT components:
N(Alpha)           :       28.000022271930 electrons
N(Beta)            :       28.000022271930 electrons
N(Total)           :       56.000044543860 electrons
E(X)               :      -46.162424739730 Eh       
E(C)               :       -1.790145481072 Eh       
E(XC)              :      -47.952570220802 Eh       

---------------
SCF CONVERGENCE
---------------

  Last Energy change         ...    3.1280e-07  Tolerance :   1.0000e-07
  Last MAX-Density change    ...    4.7984e-05  Tolerance :   1.0000e-07
  Last RMS-Density change    ...    2.1880e-06  Tolerance :   5.0000e-09
  Last DIIS Error            ...    1.2670e-04  Tolerance :   1.0000e-07
  Last Orbital Gradient      ...    1.9802e-05  Tolerance :   1.0000e-04
  Last Orbital Rotation      ...    5.1423e-05  Tolerance :   1.0000e-04


----------------
ORBITAL ENERGIES
----------------

  NO   OCC          E(Eh)            E(eV) 
   0   2.0000     -18.993179      -516.8307 
   1   2.0000     -18.928479      -515.0701 
   2   2.0000     -10.155557      -276.3468 
   3   2.0000     -10.099203      -274.8133 
   4   2.0000     -10.035881      -273.0902 
   5   2.0000     -10.021680      -272.7038 
   6   2.0000     -10.021529      -272.6997 
   7   2.0000      -1.068955       -29.0878 
   8   2.0000      -0.981804       -26.7162 
   9   2.0000      -0.768207       -20.9040 
  10   2.0000      -0.707040       -19.2395 
  11   2.0000      -0.661574       -18.0023 
  12   2.0000      -0.612180       -16.6583 
  13   2.0000      -0.497485       -13.5372 
  14   2.0000      -0.463986       -12.6257 
  15   2.0000      -0.445633       -12.1263 
  16   2.0000      -0.443980       -12.0813 
  17   2.0000      -0.407307       -11.0834 
  18   2.0000      -0.395438       -10.7604 
  19   2.0000      -0.389077       -10.5873 
  20   2.0000      -0.372315       -10.1312 
  21   2.0000      -0.364258        -9.9120 
  22   2.0000      -0.344088        -9.3631 
  23   2.0000      -0.330103        -8.9825 
  24   2.0000      -0.320915        -8.7325 
  25   2.0000      -0.303989        -8.2719 
  26   2.0000      -0.270765        -7.3679 
  27   2.0000      -0.232019        -6.3136 
  28   0.0000      -0.012910        -0.3513 
  29   0.0000       0.075692         2.0597 
  30   0.0000       0.096690         2.6311 
  31   0.0000       0.110821         3.0156 
  32   0.0000       0.132983         3.6186 
  33   0.0000       0.135942         3.6992 
  34   0.0000       0.143159         3.8956 
  35   0.0000       0.154207         4.1962 
  36   0.0000       0.156886         4.2691 
  37   0.0000       0.170517         4.6400 
  38   0.0000       0.172931         4.7057 
*Only the first 10 virtual orbitals were printed.
Total SCF time: 0 days 0 hours 0 min 6 sec 
Finished LeanSCF after   6.3 sec

Maximum memory used throughout the entire LEANSCF-calculation: 21.7 MB


-------------------------------------------------------------------------------
                          DFT DISPERSION CORRECTION                            
                                                                               
                                DFTD4 V3.4.0                                   
-------------------------------------------------------------------------------
-------------------------   ----------------
Dispersion correction           -0.004250070
-------------------------   ----------------

------------------   -----------------
gCP correction             0.010467463
------------------   -----------------

-------------------------   --------------------
FINAL SINGLE POINT ENERGY      -346.939308094447
-------------------------   --------------------

------------------------------------------------------------------------------
                         ORCA SCF GRADIENT CALCULATION
------------------------------------------------------------------------------

Nuc. rep. gradient        (SHARK) ... done (  0.0 sec)
HCore & Overlap gradient  (SHARK) ... done (  0.2 sec)
Split-RIJ-J gradient      (SHARK) ... done (  1.2 sec)
XC gradient                       ... done (  5.6 sec)
Dispersion correction             ... done (  0.0 sec)

-------------------
DISPERSION GRADIENT
-------------------

   1   C   :    0.000063606    0.000036517    0.000028554
   2   C   :    0.000047799   -0.000000126   -0.000011429
   3   C   :    0.000052738   -0.000057106   -0.000013772
   4   O   :   -0.000007232    0.000013208   -0.000025768
   5   C   :   -0.000062643    0.000006567    0.000002790
   6   O   :   -0.000048439   -0.000018006    0.000054417
   7   C   :   -0.000100579    0.000018529   -0.000016578
   8   H   :    0.000026191    0.000031941    0.000010144
   9   H   :    0.000017658    0.000012104    0.000020001
  10   H   :    0.000031238    0.000017036    0.000011434
  11   H   :    0.000021820    0.000005386   -0.000017562
  12   H   :    0.000026107   -0.000025700   -0.000007913
  13   H   :    0.000018785   -0.000033202   -0.000019435
  14   H   :    0.000013316   -0.000026008    0.000002930
  15   H   :   -0.000030100    0.000005305    0.000001775
  16   H   :   -0.000035415    0.000001047   -0.000007349
  17   H   :   -0.000034849    0.000012508   -0.000012238

Difference to translation invariance:
           :   -0.0000000000   -0.0000000000   -0.0000000000

Difference to rotation invariance:
           :   -0.0000000000    0.0000000000    0.0000000000

Norm of the Dispersion gradient    ...    0.0002209498
RMS gradient                       ...    0.0000309392
MAX gradient                       ...    0.0001005790
gCP correction                   ... done

------------------
CARTESIAN GRADIENT
------------------

   1   C   :    0.004509759    0.000750149    0.004112956
   2   C   :   -0.012660996    0.005271516   -0.007574478
   3   C   :    0.003680782   -0.004423276    0.001733838
   4   O   :    0.000427091   -0.006252256    0.013825558
   5   C   :    0.013516312   -0.003015505    0.001535929
   6   O   :   -0.001677067    0.005913917   -0.012070002
   7   C   :   -0.004531141   -0.000954068   -0.001599391
   8   H   :   -0.000258648   -0.004332145   -0.000034919
   9   H   :    0.000136318    0.000655412   -0.002934513
  10   H   :   -0.004877948    0.000015166    0.000111843
  11   H   :    0.000338841    0.000461577   -0.001111810
  12   H   :   -0.004764491    0.000956520    0.000513016
  13   H   :    0.000637437    0.002827944    0.003225939
  14   H   :    0.000312006    0.001710345   -0.002397345
  15   H   :    0.001583613   -0.000154546   -0.002523258
  16   H   :    0.001817963    0.002977289    0.002101897
  17   H   :    0.001810168   -0.002408039    0.003084741

Difference to translation invariance:
           :   -0.0000000000   -0.0000000000    0.0000000000

Difference to rotation invariance:
           :   -0.0002611420    0.0000366164   -0.0001205364

Norm of the Cartesian gradient     ...    0.0331697827
RMS gradient                       ...    0.0046446986
MAX gradient                       ...    0.0138255580

-------
TIMINGS
-------

Total SCF gradient time     ....        7.049 sec

Densities                   ....       0.001 sec  (  0.0%)
One electron gradient       ....       0.214 sec  (  3.0%)
RI-J Coulomb gradient       ....       1.192 sec  ( 16.9%)
XC gradient                 ....       5.599 sec  ( 79.4%)

Maximum memory used throughout the entire SCFGRAD-calculation: 34.1 MB

------------------------------------------------------------------------------
                              ORCA PROPERTY CALCULATIONS
------------------------------------------------------------------------------

GBWName                                 ... xtb_opt.gbw
Number of atoms                         ...     17
Number of basis functions               ...    193
Max core memory                         ...   1024 MB

Electric properties:
Dipole moment                           ... YES
Quadrupole moment                       ...  NO
Static polarizability (Dipole/Dipole)   ...  NO
Static polarizability (Dipole/Quad.)    ...  NO
Static polarizability (Quad./Quad.)     ...  NO
Static polarizability (Velocity)        ...  NO

Atomic electric properties:
Dipole moment                           ...  NO
Quadrupole moment                       ...  NO
Static polarizability                   ...  NO

Choice of electric origin               ... Center of mass
Position of electric origin             ...     0.000015     0.000000    -0.000005

General magnetic properties:
Magnetizability                         ...  NO

EPR properties:
g-Tensor (aka g-matrix)                 ...  NO
Zero-Field splitting spin-orbit         ...  NO
Zero-field splitting spin-spin          ...  NO
Hyperfine couplings                     ...  NO (   0 nuclei)
Quadrupole couplings                    ...  NO (   0 nuclei)
Contact density                         ...  NO (   0 nuclei)

NMR properties:
Chemical shifts                         ...  NO (   0 nuclei)
Spin-rotation constants                 ...  NO (   0 nuclei)
Spin-spin couplings                     ...  NO (   0 nuclei,    0 pairs)

Choice of magnetic origin               ... GIAO
Position of magnetic origin             ...     0.000000     0.000000     0.000000

Properties with geometric perturbations:
SCF Hessian                             ...  NO
IR spectrum                             ...  NO
VCD spectrum                            ...  NO
X-ray spectroscopy properties:
SCF XES/XAS/RIXS spectra                ...  NO


-------------
DIPOLE MOMENT
-------------

Method             : SCF
Type of density    : Electron Density
Multiplicity       :   1
Irrep              :   0
Energy             :  -346.9455254873307695 Eh
Relativity type    : 
Basis              : AO
                                X                 Y                 Z
Electronic contribution:     -3.331629809       0.356547662       0.340940093
Nuclear contribution   :      3.570721386      -0.125658704      -0.982872252
                        -----------------------------------------
Total Dipole Moment    :      0.239091576       0.230888958      -0.641932159
                        -----------------------------------------
Magnitude (a.u.)       :      0.722877161
Magnitude (Debye)      :      1.837407721



--------------------
Rotational spectrum 
--------------------
 
Rotational constants in cm-1:             0.153089             0.059176             0.058800 
Rotational constants in MHz :          4589.499262          1774.051459          1762.772152 

Dipole components along the rotational axes: 
x,y,z [a.u.] :     0.204899     0.140461    -0.678851 
x,y,z [Debye]:     0.520813     0.357024    -1.725501 

 

Dipole moment calculation done in   0.0 sec 

Maximum memory used throughout the entire PROP-calculation: 12.5 MB

--------------------------------
SUGGESTED CITATIONS FOR THIS RUN
--------------------------------

Below you find a list of papers that are relevant to this ORCA run
We neither can nor want to force you to cite these papers, but we appreciate if you do
You receive ORCA, which is the product of decades of hard work by many enthusiastic individuals, for free
The only thing we kindly ask in return is that you cite our papers,
We deeply appreciate it, if you show your appreciation for ORCA by not just citing the generic ORCA reference.

Please note that relegating all ORCA citations to the supporting information does *not* help us.
SI sections are not indexed - citations you put there will not count into any citation statistics
But we need these citations in order to attract the funding resources that allow us to do what we are doing

Therefore, if you are a happy ORCA user, please consider citing a few of the papers listed below in the main body of your paper

In addition to the list printed below, the program has created the file xtb_opt.bibtex that contains the list in bibtex format
You can import this file easily into all common literature databanks and citation aid programs


List of essential papers. We consider these as the minimum necessary citations

  1. Neese,F.
     Software update: the ORCA program system, version 5.0
     WIRES Comput. Molec. Sci., 2022 12(1)e1606
     doi.org/10.1002/wcms.1606
  2. Grimme,S.; Hansen,A.; Ehlert,S.; Mewes,J.
     r2SCAN-3c: A 'Swiss army knife' composite electronic-structure method
     J. Chem. Phys., 2021 154 064103
     doi.org/10.1063/5.0040021

List of papers to cite with high priority. The work reported in these papers was absolutely
necessary for this run to complete.
Our perspective: the developers of density functionals and basis sets usually get cited in chemistry papers
Good! But without the algorithms to do something with them, the functionals or basis sets would not do anything.
Hence, in our opinion, the algorithm design and method developments papers are equally worthy of getting cited

  1. Neese,F.
     An improvement of the resolution of the identity approximation for the formation of the Coulomb matrix
     J. Comp. Chem., 2003 24(14)1740-1747
     doi.org/10.1002/jcc.10318
  2. Neese,F.
     The SHARK Integral Generation and Digestion System
     J. Comp. Chem., 2022  1-16
     doi.org/10.1002/jcc.26942
  3. Lehtola,S.; Steigemann,C.; Oliveira,M.; Marques,M.
     Recent developments in Libxc - A comprehensive library of functionals for density functional theory
     Software X, 2018 7 
     doi.org/10.1016/j.softx.2017.11.002
  4. Caldeweyher,E.; Bannwarth,C.; Grimme,S.
     Extension of the D3 dispersion coefficient model
     J. Chem. Phys., 2017 147 034112
     doi.org/10.1063/1.4993215
  5. Caldeweyher,E.; Ehlert,S.; Hansen,A.; Neugebauer,H.; Spicher,S.; Bannwarth,C.; Grimme,S.
     A generally applicable atomic-charge dependent London dispersion correction
     J. Chem. Phys., 2019 150 154122
     doi.org/10.1063/1.5090222
  6. Caldeweyher,E.; Mewes,J.; Ehlert,S.; Grimme,S.
     Extension and evaluation of the D4 London-dispersion model for periodic systems
     Phys. Chem. Chem. Phys., 2020 22(16)8499-8512
     doi.org/10.1039/D0CP00502A
  7. Wittmann,L.; Gordiy,I.; Friede,M.; Helmich-Paris,B.; Grimme,S.; Hansen,A.; Bursch,M.
     Extension of the D3 and D4 London Dispersion Corrections to the full Actinides Series
     Phys. Chem. Chem. Phys., 2024 26(32)21379-21394
     doi.org/https://doi.org/10.1039/D4CP01514B 

List of suggested additional citations. These are papers that are important in the 'surrounding' of 
of this run, or papers that preceded the highly important papers. If you like your results we are grateful for a citation.

  1. Neese,F.
     The ORCA program system
     WIRES Comput. Molec. Sci., 2012 2(1)73-78
     doi.org/10.1002/wcms.81
  2. Neese,F.
     Software update: the ORCA program system, version 4.0
     WIRES Comput. Molec. Sci., 2018 8(1)1-6
     doi.org/10.1002/wcms.1327
  3. Neese,F.; Wennmohs,F.; Becker,U.; Riplinger,C.
     The ORCA quantum chemistry program package
     J. Chem. Phys., 2020 152 Art. No. L224108
     doi.org/10.1063/5.0004608

List of optional additional citations

  1. Neese,F.
     Approximate second-order SCF convergence for spin unrestricted wavefunctions
     Chem. Phys. Lett., 2000 325(1-3)93-98
     doi.org/10.1016/s0009-2614(00)00662-x

Timings for individual modules:

Sum of individual times          ...       14.501 sec (=   0.242 min)
Startup calculation              ...        0.845 sec (=   0.014 min)   5.8 %
SCF iterations                   ...        6.460 sec (=   0.108 min)  44.5 %
Property calculations            ...        0.074 sec (=   0.001 min)   0.5 %
SCF Gradient evaluation          ...        7.122 sec (=   0.119 min)  49.1 %
                             ****ORCA TERMINATED NORMALLY****
TOTAL RUN TIME: 0 days 0 hours 0 minutes 14 seconds 802 msec
  ------------------------------------------------------------------------
          * successful ORCA run, taking over control again...

         :::::::::::::::::::::::::::::::::::::::::::::::::::::
         ::                  ORCA SUMMARY                   ::
         :::::::::::::::::::::::::::::::::::::::::::::::::::::
         :: total energy            -346.939308094447 Eh    ::
         :: gradient norm              0.033169782676 Eh/a0 ::
         :: HOMO-LUMO gap              0.000000000000 eV    ::
         :::::::::::::::::::::::::::::::::::::::::::::::::::::

      ----------------------------------------------------------- 
     |                       L-ANC optimizer                     |
      ----------------------------------------------------------- 
          low memory version by Sebastian Ehlert

          ...................................................
          :                      SETUP                      :
          :.................................................:
          :   energy convergence        0.5000000E-05 Eh    :
          :   grad. convergence         0.1000000E-02 Eh/a0 :
          :   optimization log               true           :
          :   writing optlog all                1     steps :
          :   Hessian reset                     8     steps :
          :   maximium step len.        1.0000000     a0    :
          :   LBFGS images                      8           :
          ...................................................
 * calculating model hessian...
Using Lindh-Hessian (1995)
 Shifting diagonal of input Hessian by   1.000000000000000E-002
 Lowest  eigenvalues of input Hessian
    0.000000    0.000000    0.000000    0.000000    0.000000    0.000000
    0.012412    0.013900    0.017312    0.020877    0.021525    0.023560
    0.024222    0.036002    0.054355    0.057145    0.063584    0.065941
 Highest eigenvalues
    1.185689    1.221540    1.272324    1.313975    1.789857    2.380288
 

........................................................................
.............................. CYCLE    1 ..............................
........................................................................
                         * ORCA takes the control...
  ------------------------------------------------------------------------

                                 *****************
                                 * O   R   C   A *
                                 *****************

                                            #,                                       
                                            ###                                      
                                            ####                                     
                                            #####                                    
                                            ######                                   
                                           ########,                                 
                                     ,,################,,,,,                         
                               ,,#################################,,                 
                          ,,##########################################,,             
                       ,#########################################, ''#####,          
                    ,#############################################,,   '####,        
                  ,##################################################,,,,####,       
                ,###########''''           ''''###############################       
              ,#####''   ,,,,##########,,,,          '''####'''          '####       
            ,##' ,,,,###########################,,,                        '##       
           ' ,,###''''                  '''############,,,                           
         ,,##''                                '''############,,,,        ,,,,,,###''
      ,#''                                            '''#######################'''  
     '                                                          ''''####''''         
             ,#######,   #######,   ,#######,      ##                                
            ,#'     '#,  ##    ##  ,#'     '#,    #''#        ,####,   ,####,        
            ##       ##  ##   ,#'  ##            #'  '#       #'       #'  '#        
            ##       ##  #######   ##           ,######,      #####,   #    #        
            '#,     ,#'  ##    ##  '#,     ,#' ,#      #,     #,   #   #,  ,#        
             '#######'   ##     ##  '#######'  #'      '#     '####' # '####'        



                #########################################################
                #                        -***-                          #
                #          Department of theory and spectroscopy        #
                #                                                       #
                #                      Frank Neese                      #
                #                                                       #
                #     Directorship, Architecture, Infrastructure        #
                #                    SHARK, DRIVERS                     #
                #        Core code/Algorithms in most modules           #
                #                                                       #
                #        Max Planck Institute fuer Kohlenforschung      #
                #                Kaiser Wilhelm Platz 1                 #
                #                 D-45470 Muelheim/Ruhr                 #
                #                      Germany                          #
                #                                                       #
                #                  All rights reserved                  #
                #                        -***-                          #
                #########################################################


                         Program Version 6.0.1  -  RELEASE   -


 With contributions from (in alphabetic order):
[Max-Planck-Institut fuer Kohlenforschung]                               
  Daniel Aravena         : Magnetic Suceptibility                        
  Michael Atanasov       : Ab Initio Ligand Field Theory (pilot matlab implementation)
  Alexander A. Auer      : GIAO ZORA, VPT2 properties, NMR spectrum      
  Ute Becker             : All parallelization in ORCA, NUMFREQ, NUMCALC 
  Giovanni Bistoni       : ED, misc. LED, open-shell LED, HFLD           
  Martin Brehm           : Molecular dynamics                            
  Dmytro Bykov           : pre 5.0 version of the SCF Hessian            
  Marcos Casanova-Páez   : Triplet and SCS-CIS(D). UHF-(DLPNO)-IP/EA/STEOM-CCSD. UHF-CVS-IP/STEOM-CCSD   
  Vijay G. Chilkuri      : MRCI spin determinant printing, contributions to CSF-ICE 
  Pauline Colinet        : FMM embedding                                 
  Dipayan Datta          : RHF DLPNO-CCSD density                        
  Achintya Kumar Dutta   : EOM-CC, STEOM-CC                              
  Nicolas Foglia         : Exact transition moments, OPA infrastructure, MCD improvements    
  Dmitry Ganyushin       : Spin-Orbit,Spin-Spin,Magnetic field MRCI      
  Miquel Garcia-Rates    : C-PCM and meta-GGA Hessian, CCSD/C-PCM, Gaussian charge scheme 
  Tiago L. C. Gouveia    : GS-ROHF, GS-ROCIS                             
  Yang Guo               : DLPNO-NEVPT2, F12-NEVPT2, CIM, IAO-localization        
  Andreas Hansen         : Spin unrestricted coupled pair/coupled cluster methods 
  Ingolf Harden          : AUTO-CI MPn and infrastructure                
  Benjamin Helmich-Paris : MC-RPA, TRAH-(SCF,CASSCF), AVAS, COSX integrals, SCF dyn. polar. 
  Lee Huntington         : MR-EOM, pCC                                   
  Robert Izsak           : Overlap fitted RIJCOSX, COSX-SCS-MP3, EOM     
  Riya Kayal             : Wick's Theorem for AUTO-CI, AUTO-CI UHF-CCSDT 
  Emily Kempfer          : AUTO-CI, RHF CISDT and CCSDT                  
  Christian Kollmar      : KDIIS, OOCD, Brueckner-CCSD(T), CCSD density, CASPT2, CASPT2-K, improved NEVPT2 
  Axel Koslowski         : Symmetry handling                             
  Simone Kossmann        : meta-GGA functionals, TD-DFT gradient, OOMP2, (MP2 Hessian; deprecated post 5.0) 
  Lucas Lang             : DCDCAS                                        
  Marvin Lechner         : AUTO-CI (C++ implementation), FIC-MRCC        
  Spencer Leger          : CASSCF response                               
  Dagmar Lenk            : GEPOL surface, SMD, ORCA-2-JSON               
  Dimitrios Liakos       : Extrapolation schemes; Compound Job, initial MDCI parallelization 
  Dimitrios Manganas     : Further ROCIS development; embedding schemes. LFT, Crystal Embedding 
  Dimitrios Pantazis     : SARC Basis sets                               
  Anastasios Papadopoulos: AUTO-CI, single reference methods and gradients 
  Taras Petrenko         : pre 6.0 DFT Hessian and TD-DFT gradient, (ASA, deprecated), ECA, 1-Electron XAS/XES, NRVS 
  Peter Pinski           : DLPNO-MP2, DLPNO-MP2 Gradient                 
  Christoph Reimann      : Effective Core Potentials                     
  Marius Retegan         : Local ZFS, SOC                                
  Christoph Riplinger    : Optimizer, TS searches, QM/MM, DLPNO-CCSD(T), (RO)-DLPNO pert. Triples 
  Michael Roemelt        : Original ROCIS implementation                 
  Masaaki Saitow         : Open-shell DLPNO-CCSD energy and density      
  Barbara Sandhoefer     : DKH picture change effects                    
  Kantharuban Sivalingam : CASSCF convergence/infrastructure, NEVPT2 and variants, FIC-MRCI 
  Bernardo de Souza      : ESD, SOC TD-DFT                               
  Georgi L. Stoychev     : AutoAux, RI-MP2 NMR, DLPNO-MP2 response, X2C  
  Van Anh Tran           : RI-MP2 g-tensors                              
  Willem Van den Heuvel  : Paramagnetic NMR                              
  Zikuan Wang            : NOTCH, Electric field optimization            
  Frank Wennmohs         : Technical directorship and infrastructure     
  Hang Xu                : AUTO-CI-Response properties                   
                                                                         
[FACCTs GmbH]                                                            
  Markus Bursch, Miquel Garcia-Rates, Christoph Riplinger, Bernardo de Souza, Georgi L. Stoychev 
                                                                 
  APM, Basis sets (HGBS, AHGBS, def-TZVP (Ac-Lr), def2-XVPD (La-Lu)), CI-OPT, improved COSX, DLPNO-Multilevel,           
  DOCKER, DRACO, updates on ESD, GOAT, IRC, LR-CPCM, MBIS, meta-GGA TD-DFT gradient, ML-optimized integration grids, 
  MM, NACMEs, nearIR, NEB, NEB-TS, NL-DFT gradient (VV10), 2- and 3-layer-ONIOM, interface openCOSMO-RS, QMMM,   
  Crystal-QMMM, SF, symmetry and pop. for TD-DFT, r2SCAN hybrids, SOLVATOR                                   
                                                                         
[Other institutions]                                                     
  V. Asgeirsson          : NEB                                           
  Christoph Bannwarth    : sTDA-DFT, sTD-DFT, PBEh-3c, B97-3c, D3        
  Sebastian Ehlert       : rSCAN, r2SCAN, r2SCAN-3c, D4, dhf basis sets  
  Marvin Friede          : D4 for Fr, Ra, Ac-Lr                          
  Lars Goerigk           : TD-DFT with DH, B97 family of functionals     
  Stefan Grimme          : VdW corrections, initial TS optimization, DFT functionals, gCP, sTDA/sTD-DF 
  Waldemar Hujo          : DFT-NL                                        
  H. Jonsson             : NEB                                           
  Holger Kruse           : gCP                                           
  Marcel Mueller         : wB97X-3c, vDZP basis set                      
  Hagen Neugebauer       : wr2SCAN                                       
  Tobias Risthaus        : range-separated hybrid DFT                    
  Lukas Wittmann         : regularized MP2, r2SCAN double-hybrids, wr2SCAN        
                                                                         
We gratefully acknowledge several colleagues who have allowed us to      
interface, adapt or use parts of their codes:                            
  Ed Valeev, F. Pavosevic, A. Kumar             : LibInt (2-el integral package), F12 methods 
  Garnet Chan, S. Sharma, J. Yang, R. Olivares  : DMRG                   
  Ulf Ekstrom                                   : XCFun DFT Library      
  Mihaly Kallay                                 : mrcc  (arbitrary order and MRCC methods)
  Frank Weinhold                                : gennbo (NPA and NBO analysis)           
  Simon Mueller                                 : openCOSMO-RS                            
  Christopher J. Cramer and Donald G. Truhlar   : smd solvation model                     
  S Lehtola, MJT Oliveira, MAL Marques          : LibXC Library                           
  Liviu Ungur et al                             : ANISO software                          


 Your calculation uses the libint2 library for the computation of 2-el integrals
 For citations please refer to: http://libint.valeyev.net

 Your ORCA version has been built with support for libXC version: 6.2.2
 For citations please refer to: https://libxc.gitlab.io

 This ORCA versions uses:
   CBLAS   interface :  Fast vector & matrix operations
   LAPACKE interface :  Fast linear algebra routines
   SCALAPACK package :  Parallel linear algebra routines
   Shared memory     :  Shared parallel matrices
   BLAS/LAPACK       :  OpenBLAS 0.3.27  USE64BITINT DYNAMIC_ARCH NO_AFFINITY Zen SINGLE_THREADED
        Core in use  :  Zen
   Copyright (c) 2011-2014, The OpenBLAS Project




***************************************
The coordinates will be read from file: xtb_opt.xyz
***************************************


Your calculation utilizes the geometrical counterpoise correction gCP
Please cite in your paper:
H.Kruse, S. Grimme J.Chem.Phys., 136, (2012), 154101 
   

Your calculation utilizes the atom-pairwise dispersion correction
based on EEQ partial charges (D4)


================================================================================

----- Orbital basis set information -----
Your calculation utilizes the basis: def2-mTZVPP
   Stefan Grimme, Andreas Hansen, Sebastian Ehlert, and Jan-Michael Mewes 
   J. Chem. Phys. 154, 064103 (2021). DOI: 10.1063/5.0040021

----- AuxJ basis set information -----
Your calculation utilizes the auxiliary basis: def2/J
   F. Weigend, Phys. Chem. Chem. Phys. 8, 1057 (2006).

================================================================================
                                        WARNINGS
                       Please study these warnings very carefully!
================================================================================

WARNING: Old DensityContainer found on disk!
         Will remove this file - 
         If you want to keep old densities, please start your calculation with a different basename. 



WARNING: SCAN, rSCAN, or r2SCAN functional requested.
  ===> : libXC variant has now been activated.



================================================================================
                                       INPUT FILE
================================================================================
NAME = xtb_opt.inp
|  1> ! r2scan-3c def2/J RI DEFGRID2 scfconv7 ENGRAD tightSCF miniprint
|  2> * xyzfile 0 1 xtb_opt.xyz
|  3> 
|  4>                          ****END OF INPUT****
================================================================================

                     *******************************
                     * Energy+Gradient Calculation *
                     *******************************

---------------------------------
CARTESIAN COORDINATES (ANGSTROEM)
---------------------------------
  C      1.780030    0.878739    0.694221
  C      1.264961    0.072494   -0.491799
  C      1.491338   -1.427737   -0.351244
  O     -0.125437    0.380068   -0.778536
  C     -1.082602    0.089974    0.119125
  O     -0.899650   -0.421834    1.200140
  C     -2.439806    0.462991   -0.424630
  H      1.567029    1.942272    0.561696
  H      1.315036    0.533825    1.617790
  H      2.861550    0.748279    0.771841
  H      1.761459    0.423494   -1.403571
  H      2.564609   -1.623760   -0.302078
  H      1.079441   -1.964031   -1.209598
  H      1.022276   -1.798108    0.560311
  H     -3.090002    0.744505    0.402953
  H     -2.867881   -0.415442   -0.914896
  H     -2.366481    1.267592   -1.155669

----------------------------
CARTESIAN COORDINATES (A.U.)
----------------------------
  NO LB      ZA    FRAG     MASS         X           Y           Z
   0 C     6.0000    0    12.011    3.363769    1.660576    1.311887
   1 C     6.0000    0    12.011    2.390430    0.136993   -0.929365
   2 C     6.0000    0    12.011    2.818220   -2.698031   -0.663755
   3 O     8.0000    0    15.999   -0.237041    0.718225   -1.471219
   4 C     6.0000    0    12.011   -2.045822    0.170027    0.225113
   5 O     8.0000    0    15.999   -1.700092   -0.797151    2.267935
   6 C     6.0000    0    12.011   -4.610565    0.874926   -0.802434
   7 H     1.0000    0     1.008    2.961256    3.670362    1.061452
   8 H     1.0000    0     1.008    2.485058    1.008784    3.057179
   9 H     1.0000    0     1.008    5.407545    1.414043    1.458567
  10 H     1.0000    0     1.008    3.328676    0.800288   -2.652365
  11 H     1.0000    0     1.008    4.846408   -3.068461   -0.570844
  12 H     1.0000    0     1.008    2.039848   -3.711481   -2.285810
  13 H     1.0000    0     1.008    1.931821   -3.397932    1.058835
  14 H     1.0000    0     1.008   -5.839257    1.406910    0.761470
  15 H     1.0000    0     1.008   -5.419510   -0.785072   -1.728903
  16 H     1.0000    0     1.008   -4.472000    2.395401   -2.183899

------------------------------------------------------------------------------
                   ___                                                        
                  /   \      - P O W E R E D   B Y -                         
                 /     \                                                     
                 |  |  |   _    _      __       _____    __    __             
                 |  |  |  | |  | |    /  \     |  _  \  |  |  /  |          
                  \  \/   | |  | |   /    \    | | | |  |  | /  /          
                 / \  \   | |__| |  /  /\  \   | |_| |  |  |/  /          
                |  |  |   |  __  | /  /__\  \  |    /   |      \           
                |  |  |   | |  | | |   __   |  |    \   |  |\   \          
                \     /   | |  | | |  |  |  |  | |\  \  |  | \   \       
                 \___/    |_|  |_| |__|  |__|  |_| \__\ |__|  \__/        
                                                                              
                      - O R C A' S   B I G   F R I E N D -                    
                                      &                                       
                       - I N T E G R A L  F E E D E R -                       
                                                                              
 v1 FN, 2020, v2 2021, v3 2022-2024                                           
------------------------------------------------------------------------------


----------------------
SHARK INTEGRAL PACKAGE
----------------------

Number of atoms                             ...     17
Number of basis functions                   ...    193
Number of shells                            ...     95
Maximum angular momentum                    ...      2
Integral batch strategy                     ... SHARK/LIBINT Hybrid
RI-J (if used) integral strategy            ... SPLIT-RIJ (Revised 2003 algorithm where possible)
Printlevel                                  ...      1
Contraction scheme used                     ... SEGMENTED contraction
Prescreening option                         ... SCHWARTZ
   Thresh                                   ... 3.000e-11
   Tcut                                     ... 1.000e-12
   Tpresel                                  ... 1.000e-12 
Coulomb Range Separation                    ... NOT USED
Exchange Range Separation                   ... NOT USED
Multipole approximations                    ... NOT USED
Finite Nucleus Model                        ... NOT USED
CABS basis                                  ... NOT available
Auxiliary Coulomb fitting basis             ... AVAILABLE
   # of basis functions in Aux-J            ...    453
   # of shells in Aux-J                     ...    155
   Maximum angular momentum in Aux-J        ...      4
Auxiliary J/K fitting basis                 ... NOT available
Auxiliary Correlation fitting basis         ... NOT available
Auxiliary 'external' fitting basis          ... NOT available

Checking pre-screening integrals            ... done (  0.0 sec) Dimension = 95
Check shell pair data                       ... done (  0.0 sec)
Shell pair information
Shell pair cut-off parameter TPreSel        ...   1.0e-12
Total number of shell pairs                 ...      4560
Shell pairs after pre-screening             ...      4234
Total number of primitive shell pairs       ...     16115
Primitive shell pairs kept                  ...     10903
          la=0 lb=0:   1399 shell pairs
          la=1 lb=0:   1577 shell pairs
          la=1 lb=1:    462 shell pairs
          la=2 lb=0:    478 shell pairs
          la=2 lb=1:    273 shell pairs
          la=2 lb=2:     45 shell pairs

Calculating one electron integrals          ... done (  0.0 sec)
Calculating RI/J V-Matrix + Cholesky decomp.... done (  0.0 sec)
Calculating Nuclear repulsion               ... done (  0.0 sec) ENN=    325.528548329092 Eh

Diagonalization of the overlap matrix:
Smallest eigenvalue                        ... 2.836e-04
Time for diagonalization                   ...    0.005 sec
Threshold for overlap eigenvalues          ... 1.000e-07
Number of eigenvalues below threshold      ... 0
Time for construction of square roots      ...    0.005 sec
Total time needed                          ...    0.011 sec

-------------------
DFT GRID GENERATION
-------------------

General Integration Accuracy     IntAcc      ... 4.388
Radial Grid Type                 RadialGrid  ... OptM3 with GC (2021)
Angular Grid (max. ang.)         AngularGrid ... 4 (Lebedev-302)
Angular grid pruning method      GridPruning ... 4 (adaptive)
Weight generation scheme         WeightScheme... mBecke (2022)
Basis function cutoff            BFCut       ... 1.0000e-11
Integration weight cutoff        WCut        ... 1.0000e-14
Partially contracted basis set               ... off
Rotationally invariant grid construction     ... off
Angular grids for H and He will be reduced by one unit
Diffuse basis detected: some atoms will have their outermost
                        angular grid increased by 1.

Total number of grid points                  ...    75026
Total number of batches                      ...     1181
Average number of points per batch           ...       63
Average number of grid points per atom       ...     4413
Initializing property integral containers    ... done (  0.2 sec)

SHARK setup successfully completed in   1.0 seconds

Maximum memory used throughout the entire STARTUP-calculation: 34.5 MB
Occupation numbers will be reassigned to an Aufbau configuration
             **** ENERGY FILE WAS UPDATED (xtb_opt.en.tmp) ****
Finished Guess after   0.1 sec
Maximum memory used throughout the entire GUESS-calculation: 13.9 MB
----------------------------------------D-I-I-S--------------------------------------------
Iteration    Energy (Eh)           Delta-E    RMSDP     MaxDP     DIISErr   Damp  Time(sec)
-------------------------------------------------------------------------------------------
               ***  Starting incremental Fock matrix formation  ***
    1    -346.9460367884393008     0.00e+00  7.74e-05  9.88e-04  5.59e-03  0.700   1.8
    2    -346.9461565734275155    -1.20e-04  6.84e-05  8.38e-04  3.57e-03  0.700   1.5
                               ***Turning on AO-DIIS***
                              *** Initializing SOSCF ***
---------------------------------------S-O-S-C-F--------------------------------------
Iteration    Energy (Eh)           Delta-E    RMSDP     MaxDP     MaxGrad    Time(sec)
--------------------------------------------------------------------------------------
    3    -346.9462435248453858    -8.70e-05  1.71e-04  2.16e-03  2.44e-03     1.4
               *** Restarting incremental Fock matrix formation ***
    4    -346.9464424691839213    -1.99e-04  4.90e-05  1.55e-03  3.96e-04     1.8
    5    -346.9464295381084185     1.29e-05  3.43e-05  1.03e-03  1.30e-03     1.6
    6    -346.9464457569748674    -1.62e-05  1.95e-05  4.82e-04  1.72e-04     1.6
    7    -346.9464446163814273     1.14e-06  1.23e-05  3.16e-04  2.37e-04     1.4
    8    -346.9464462180054625    -1.60e-06  3.76e-06  7.66e-05  4.42e-05     1.4
    9    -346.9464461855576474     3.24e-08  2.36e-06  4.79e-05  5.94e-05     1.3
                 **** Energy Check signals convergence ****

               *****************************************************
               *                     SUCCESS                       *
               *           SCF CONVERGED AFTER   9 CYCLES          *
               *****************************************************

             **** ENERGY FILE WAS UPDATED (xtb_opt.en.tmp) ****

----------------
TOTAL SCF ENERGY
----------------

Total Energy       :       -346.94644618555765 Eh           -9440.89277 eV

Components:
Nuclear Repulsion  :        325.52854832909247 Eh            8858.08214 eV
Electronic Energy  :       -672.47499451465023 Eh          -18298.97490 eV
One Electron Energy:      -1116.47125385402865 Eh          -30380.72734 eV
Two Electron Energy:        443.99625933937847 Eh           12081.75244 eV

Virial components:
Potential Energy   :       -692.37718949557029 Eh          -18840.54116 eV
Kinetic Energy     :        345.43074331001259 Eh            9399.64839 eV
Virial Ratio       :          2.00438786328345

DFT components:
N(Alpha)           :       28.000013799644 electrons
N(Beta)            :       28.000013799644 electrons
N(Total)           :       56.000027599287 electrons
E(X)               :      -46.130339143394 Eh       
E(C)               :       -1.788344131895 Eh       
E(XC)              :      -47.918683275289 Eh       

---------------
SCF CONVERGENCE
---------------

  Last Energy change         ...   -3.2448e-08  Tolerance :   1.0000e-07
  Last MAX-Density change    ...    4.7946e-05  Tolerance :   1.0000e-07
  Last RMS-Density change    ...    2.3577e-06  Tolerance :   5.0000e-09
  Last DIIS Error            ...    2.4356e-03  Tolerance :   1.0000e-07
  Last Orbital Gradient      ...    5.9399e-05  Tolerance :   1.0000e-04
  Last Orbital Rotation      ...    5.2771e-05  Tolerance :   1.0000e-04


----------------
ORBITAL ENERGIES
----------------

  NO   OCC          E(Eh)            E(eV) 
   0   2.0000     -18.992288      -516.8064 
   1   2.0000     -18.929599      -515.1006 
   2   2.0000     -10.157102      -276.3888 
   3   2.0000     -10.099525      -274.8220 
   4   2.0000     -10.038217      -273.1538 
   5   2.0000     -10.024229      -272.7731 
   6   2.0000     -10.024009      -272.7672 
   7   2.0000      -1.062452       -28.9108 
   8   2.0000      -0.977796       -26.6072 
   9   2.0000      -0.766725       -20.8637 
  10   2.0000      -0.706868       -19.2348 
  11   2.0000      -0.661738       -18.0068 
  12   2.0000      -0.608227       -16.5507 
  13   2.0000      -0.497202       -13.5295 
  14   2.0000      -0.461885       -12.5685 
  15   2.0000      -0.445241       -12.1156 
  16   2.0000      -0.441147       -12.0042 
  17   2.0000      -0.406925       -11.0730 
  18   2.0000      -0.394582       -10.7371 
  19   2.0000      -0.388110       -10.5610 
  20   2.0000      -0.371387       -10.1059 
  21   2.0000      -0.363925        -9.9029 
  22   2.0000      -0.343267        -9.3408 
  23   2.0000      -0.328190        -8.9305 
  24   2.0000      -0.322660        -8.7800 
  25   2.0000      -0.303148        -8.2491 
  26   2.0000      -0.270625        -7.3641 
  27   2.0000      -0.232313        -6.3216 
  28   0.0000      -0.015672        -0.4265 
  29   0.0000       0.074879         2.0376 
  30   0.0000       0.092922         2.5285 
  31   0.0000       0.110072         2.9952 
  32   0.0000       0.132951         3.6178 
  33   0.0000       0.134264         3.6535 
  34   0.0000       0.142610         3.8806 
  35   0.0000       0.153184         4.1684 
  36   0.0000       0.155536         4.2324 
  37   0.0000       0.169359         4.6085 
  38   0.0000       0.172375         4.6906 
*Only the first 10 virtual orbitals were printed.
Total SCF time: 0 days 0 hours 0 min 13 sec 
Finished LeanSCF after  14.1 sec

Maximum memory used throughout the entire LEANSCF-calculation: 21.6 MB


-------------------------------------------------------------------------------
                          DFT DISPERSION CORRECTION                            
                                                                               
                                DFTD4 V3.4.0                                   
-------------------------------------------------------------------------------
-------------------------   ----------------
Dispersion correction           -0.004230402
-------------------------   ----------------

------------------   -----------------
gCP correction             0.010306873
------------------   -----------------

-------------------------   --------------------
FINAL SINGLE POINT ENERGY      -346.940369714386
-------------------------   --------------------

------------------------------------------------------------------------------
                         ORCA SCF GRADIENT CALCULATION
------------------------------------------------------------------------------

Nuc. rep. gradient        (SHARK) ... done (  0.0 sec)
HCore & Overlap gradient  (SHARK) ... done (  0.2 sec)
Split-RIJ-J gradient      (SHARK) ... done (  1.2 sec)
XC gradient                       ... done (  5.0 sec)
Dispersion correction             ... done (  0.0 sec)

-------------------
DISPERSION GRADIENT
-------------------

   1   C   :    0.000063978    0.000037514    0.000028655
   2   C   :    0.000047476   -0.000000037   -0.000011541
   3   C   :    0.000052927   -0.000058024   -0.000014509
   4   O   :   -0.000006314    0.000013192   -0.000025749
   5   C   :   -0.000064042    0.000006954    0.000002903
   6   O   :   -0.000049655   -0.000017959    0.000054809
   7   C   :   -0.000100107    0.000018393   -0.000016606
   8   H   :    0.000026212    0.000031815    0.000010155
   9   H   :    0.000017977    0.000012625    0.000020235
  10   H   :    0.000030807    0.000017277    0.000011382
  11   H   :    0.000021706    0.000005190   -0.000017142
  12   H   :    0.000025599   -0.000025785   -0.000008100
  13   H   :    0.000018854   -0.000033240   -0.000019367
  14   H   :    0.000013523   -0.000026654    0.000002673
  15   H   :   -0.000029598    0.000005189    0.000001639
  16   H   :   -0.000035017    0.000001219   -0.000007309
  17   H   :   -0.000034326    0.000012327   -0.000012130

Difference to translation invariance:
           :    0.0000000000    0.0000000000    0.0000000000

Difference to rotation invariance:
           :   -0.0000000000   -0.0000000000    0.0000000000

Norm of the Dispersion gradient    ...    0.0002218088
RMS gradient                       ...    0.0000310594
MAX gradient                       ...    0.0001001066
gCP correction                   ... done

------------------
CARTESIAN GRADIENT
------------------

   1   C   :    0.002020965    0.001904047    0.000870783
   2   C   :   -0.007321794    0.001686784   -0.002031942
   3   C   :    0.001720910   -0.002311683   -0.001001015
   4   O   :    0.002150473   -0.002973756    0.005742802
   5   C   :    0.005119986    0.001157912   -0.001917175
   6   O   :   -0.000404349    0.000092025   -0.000858090
   7   C   :   -0.001800896   -0.000719429   -0.001094261
   8   H   :   -0.000041843   -0.000572983    0.000386379
   9   H   :   -0.000550519   -0.000297363   -0.001240699
  10   H   :   -0.001402578   -0.000270982    0.000024715
  11   H   :    0.000193629    0.000049694   -0.000162837
  12   H   :   -0.001281860    0.000409921    0.000369955
  13   H   :    0.000055552    0.000128139    0.000700644
  14   H   :   -0.000319238    0.001262511   -0.000539305
  15   H   :    0.000649290    0.000121101   -0.000391824
  16   H   :    0.000436955    0.000741609    0.000515023
  17   H   :    0.000775318   -0.000407547    0.000626847

Difference to translation invariance:
           :    0.0000000000    0.0000000000   -0.0000000000

Difference to rotation invariance:
           :   -0.0002442609    0.0000140327   -0.0001076565

Norm of the Cartesian gradient     ...    0.0131765658
RMS gradient                       ...    0.0018450883
MAX gradient                       ...    0.0073217943

-------
TIMINGS
-------

Total SCF gradient time     ....        6.471 sec

Densities                   ....       0.001 sec  (  0.0%)
One electron gradient       ....       0.209 sec  (  3.2%)
RI-J Coulomb gradient       ....       1.216 sec  ( 18.8%)
XC gradient                 ....       5.001 sec  ( 77.3%)

Maximum memory used throughout the entire SCFGRAD-calculation: 34.1 MB

------------------------------------------------------------------------------
                              ORCA PROPERTY CALCULATIONS
------------------------------------------------------------------------------

GBWName                                 ... xtb_opt.gbw
Number of atoms                         ...     17
Number of basis functions               ...    193
Max core memory                         ...   1024 MB

Electric properties:
Dipole moment                           ... YES
Quadrupole moment                       ...  NO
Static polarizability (Dipole/Dipole)   ...  NO
Static polarizability (Dipole/Quad.)    ...  NO
Static polarizability (Quad./Quad.)     ...  NO
Static polarizability (Velocity)        ...  NO

Atomic electric properties:
Dipole moment                           ...  NO
Quadrupole moment                       ...  NO
Static polarizability                   ...  NO

Choice of electric origin               ... Center of mass
Position of electric origin             ...    -0.006371     0.001992     0.003858

General magnetic properties:
Magnetizability                         ...  NO

EPR properties:
g-Tensor (aka g-matrix)                 ...  NO
Zero-Field splitting spin-orbit         ...  NO
Zero-field splitting spin-spin          ...  NO
Hyperfine couplings                     ...  NO (   0 nuclei)
Quadrupole couplings                    ...  NO (   0 nuclei)
Contact density                         ...  NO (   0 nuclei)

NMR properties:
Chemical shifts                         ...  NO (   0 nuclei)
[...]

Components:
Nuclear Repulsion  :        324.83152261707846 Eh            8839.11510 eV
Electronic Energy  :       -671.77821487150823 Eh          -18280.01456 eV
One Electron Energy:      -1115.12919595660719 Eh          -30344.20809 eV
Two Electron Energy:        443.35098108509891 Eh           12064.19353 eV

Virial components:
Potential Energy   :       -692.32892482374541 Eh          -18839.22781 eV
Kinetic Energy     :        345.38223256931559 Eh            9398.32835 eV
Virial Ratio       :          2.00452964726493

DFT components:
N(Alpha)           :       28.000016175793 electrons
N(Beta)            :       28.000016175793 electrons
N(Total)           :       56.000032351586 electrons
E(X)               :      -46.117189185393 Eh       
E(C)               :       -1.787429999156 Eh       
E(XC)              :      -47.904619184549 Eh       

---------------
SCF CONVERGENCE
---------------

  Last Energy change         ...    2.0361e-10  Tolerance :   1.0000e-07
  Last MAX-Density change    ...    1.2367e-05  Tolerance :   1.0000e-07
  Last RMS-Density change    ...    5.5330e-07  Tolerance :   5.0000e-09
  Last DIIS Error            ...    1.3358e-05  Tolerance :   1.0000e-07
  Last Orbital Gradient      ...    4.8533e-06  Tolerance :   1.0000e-04
  Last Orbital Rotation      ...    1.1468e-05  Tolerance :   1.0000e-04


----------------
ORBITAL ENERGIES
----------------

  NO   OCC          E(Eh)            E(eV) 
   0   2.0000     -18.990592      -516.7603 
   1   2.0000     -18.929385      -515.0947 
   2   2.0000     -10.156301      -276.3670 
   3   2.0000     -10.099855      -274.8310 
   4   2.0000     -10.038681      -273.1664 
   5   2.0000     -10.025186      -272.7992 
   6   2.0000     -10.024730      -272.7868 
   7   2.0000      -1.057399       -28.7733 
   8   2.0000      -0.974951       -26.5298 
   9   2.0000      -0.765921       -20.8418 
  10   2.0000      -0.706827       -19.2338 
  11   2.0000      -0.662090       -18.0164 
  12   2.0000      -0.603811       -16.4305 
  13   2.0000      -0.497218       -13.5300 
  14   2.0000      -0.460115       -12.5204 
  15   2.0000      -0.444466       -12.0945 
  16   2.0000      -0.438758       -11.9392 
  17   2.0000      -0.407065       -11.0768 
  18   2.0000      -0.394252       -10.7281 
  19   2.0000      -0.387612       -10.5475 
  20   2.0000      -0.370481       -10.0813 
  21   2.0000      -0.363939        -9.9033 
  22   2.0000      -0.342353        -9.3159 
  23   2.0000      -0.326707        -8.8901 
  24   2.0000      -0.322283        -8.7698 
  25   2.0000      -0.304412        -8.2835 
  26   2.0000      -0.270322        -7.3558 
  27   2.0000      -0.232156        -6.3173 
  28   0.0000      -0.015537        -0.4228 
  29   0.0000       0.074349         2.0231 
  30   0.0000       0.087586         2.3833 
  31   0.0000       0.110023         2.9939 
  32   0.0000       0.132092         3.5944 
  33   0.0000       0.134305         3.6546 
  34   0.0000       0.142459         3.8765 
  35   0.0000       0.153148         4.1674 
  36   0.0000       0.156488         4.2583 
  37   0.0000       0.168005         4.5717 
  38   0.0000       0.171579         4.6689 
*Only the first 10 virtual orbitals were printed.
Total SCF time: 0 days 0 hours 0 min 5 sec 
Finished LeanSCF after  10.2 sec

Maximum memory used throughout the entire LEANSCF-calculation: 21.8 MB


-------------------------------------------------------------------------------
                          DFT DISPERSION CORRECTION                            
                                                                               
                                DFTD4 V3.4.0                                   
-------------------------------------------------------------------------------
-------------------------   ----------------
Dispersion correction           -0.004222236
-------------------------   ----------------

------------------   -----------------
gCP correction             0.010231812
------------------   -----------------

-------------------------   --------------------
FINAL SINGLE POINT ENERGY      -346.940682678982
-------------------------   --------------------

------------------------------------------------------------------------------
                         ORCA SCF GRADIENT CALCULATION
------------------------------------------------------------------------------

Nuc. rep. gradient        (SHARK) ... done (  0.0 sec)
HCore & Overlap gradient  (SHARK) ... done (  0.2 sec)
Split-RIJ-J gradient      (SHARK) ... done (  1.2 sec)
XC gradient                       ... done (  4.8 sec)
Dispersion correction             ... done (  0.0 sec)

-------------------
DISPERSION GRADIENT
-------------------

   1   C   :    0.000064120    0.000037631    0.000028773
   2   C   :    0.000046256    0.000000300   -0.000011822
   3   C   :    0.000052754   -0.000058675   -0.000014540
   4   O   :   -0.000004870    0.000013246   -0.000025963
   5   C   :   -0.000064635    0.000007581    0.000002457
   6   O   :   -0.000049758   -0.000016701    0.000054756
   7   C   :   -0.000099917    0.000018086   -0.000016788
   8   H   :    0.000025940    0.000031372    0.000010345
   9   H   :    0.000018308    0.000012677    0.000020685
  10   H   :    0.000030679    0.000017573    0.000011223
  11   H   :    0.000021662    0.000005054   -0.000016874
  12   H   :    0.000025186   -0.000026139   -0.000008439
  13   H   :    0.000018621   -0.000033268   -0.000018940
  14   H   :    0.000013760   -0.000027178    0.000002988
  15   H   :   -0.000029190    0.000004946    0.000001601
  16   H   :   -0.000035093    0.000001319   -0.000007564
  17   H   :   -0.000033824    0.000012176   -0.000011896

Difference to translation invariance:
           :   -0.0000000000    0.0000000000    0.0000000000

Difference to rotation invariance:
           :   -0.0000000000   -0.0000000000    0.0000000000

Norm of the Dispersion gradient    ...    0.0002216227
RMS gradient                       ...    0.0000310334
MAX gradient                       ...    0.0000999173
gCP correction                   ... done

------------------
CARTESIAN GRADIENT
------------------

   1   C   :   -0.000009081   -0.000031907   -0.000066109
   2   C   :    0.000265986   -0.000050670   -0.000031094
   3   C   :    0.000047321    0.000090105   -0.000011170
   4   O   :   -0.000381378   -0.000004614    0.000143943
   5   C   :    0.000284672    0.000340552   -0.000413053
   6   O   :   -0.000007838   -0.000222178    0.000259795
   7   C   :    0.000004101   -0.000082423   -0.000060416
   8   H   :   -0.000056856    0.000052484    0.000001472
   9   H   :   -0.000057936   -0.000056493    0.000106334
  10   H   :    0.000067772    0.000021185    0.000004778
  11   H   :   -0.000010329    0.000012362   -0.000008637
  12   H   :    0.000050764   -0.000043602   -0.000025984
  13   H   :   -0.000077396   -0.000015803   -0.000049014
  14   H   :   -0.000056705   -0.000016280    0.000108256
  15   H   :   -0.000027864    0.000089733    0.000109642
  16   H   :   -0.000070051   -0.000111747    0.000026697
  17   H   :    0.000034819    0.000029295   -0.000095440

Difference to translation invariance:
           :    0.0000000000   -0.0000000000   -0.0000000000

Difference to rotation invariance:
           :   -0.0001230729    0.0000792052   -0.0000111679

Norm of the Cartesian gradient     ...    0.0009272573
RMS gradient                       ...    0.0001298420
MAX gradient                       ...    0.0004130529

-------
TIMINGS
-------

Total SCF gradient time     ....        6.293 sec

Densities                   ....       0.001 sec  (  0.0%)
One electron gradient       ....       0.218 sec  (  3.5%)
RI-J Coulomb gradient       ....       1.200 sec  ( 19.1%)
XC gradient                 ....       4.828 sec  ( 76.7%)

Maximum memory used throughout the entire SCFGRAD-calculation: 34.1 MB

------------------------------------------------------------------------------
                              ORCA PROPERTY CALCULATIONS
------------------------------------------------------------------------------

GBWName                                 ... xtb_opt.gbw
Number of atoms                         ...     17
Number of basis functions               ...    193
Max core memory                         ...   1024 MB

Electric properties:
Dipole moment                           ... YES
Quadrupole moment                       ...  NO
Static polarizability (Dipole/Dipole)   ...  NO
Static polarizability (Dipole/Quad.)    ...  NO
Static polarizability (Quad./Quad.)     ...  NO
Static polarizability (Velocity)        ...  NO

Atomic electric properties:
Dipole moment                           ...  NO
Quadrupole moment                       ...  NO
Static polarizability                   ...  NO

Choice of electric origin               ... Center of mass
Position of electric origin             ...    -0.006253     0.015363     0.003154

General magnetic properties:
Magnetizability                         ...  NO

EPR properties:
g-Tensor (aka g-matrix)                 ...  NO
Zero-Field splitting spin-orbit         ...  NO
Zero-field splitting spin-spin          ...  NO
Hyperfine couplings                     ...  NO (   0 nuclei)
Quadrupole couplings                    ...  NO (   0 nuclei)
Contact density                         ...  NO (   0 nuclei)

NMR properties:
Chemical shifts                         ...  NO (   0 nuclei)
Spin-rotation constants                 ...  NO (   0 nuclei)
Spin-spin couplings                     ...  NO (   0 nuclei,    0 pairs)

Choice of magnetic origin               ... GIAO
Position of magnetic origin             ...     0.000000     0.000000     0.000000

Properties with geometric perturbations:
SCF Hessian                             ...  NO
IR spectrum                             ...  NO
VCD spectrum                            ...  NO
X-ray spectroscopy properties:
SCF XES/XAS/RIXS spectra                ...  NO


-------------
DIPOLE MOMENT
-------------

Method             : SCF
Type of density    : Electron Density
Multiplicity       :   1
Irrep              :   0
Energy             :  -346.9466922544298768 Eh
Relativity type    : 
Basis              : AO
                                X                 Y                 Z
Electronic contribution:     -3.371499833       0.459276485       0.379551002
Nuclear contribution   :      3.625123580      -0.255613752      -1.015401255
                        -----------------------------------------
Total Dipole Moment    :      0.253623747       0.203662733      -0.635850254
                        -----------------------------------------
Magnitude (a.u.)       :      0.714219195
Magnitude (Debye)      :      1.815400922



--------------------
Rotational spectrum 
--------------------
 
Rotational constants in cm-1:             0.151522             0.058382             0.057772 
Rotational constants in MHz :          4542.525380          1750.251396          1731.975901 

Dipole components along the rotational axes: 
x,y,z [a.u.] :     0.217842     0.220431    -0.643478 
x,y,z [Debye]:     0.553710     0.560292    -1.635591 

 

Dipole moment calculation done in   1.4 sec 

Maximum memory used throughout the entire PROP-calculation: 12.5 MB

--------------------------------
SUGGESTED CITATIONS FOR THIS RUN
--------------------------------

Below you find a list of papers that are relevant to this ORCA run
We neither can nor want to force you to cite these papers, but we appreciate if you do
You receive ORCA, which is the product of decades of hard work by many enthusiastic individuals, for free
The only thing we kindly ask in return is that you cite our papers,
We deeply appreciate it, if you show your appreciation for ORCA by not just citing the generic ORCA reference.

Please note that relegating all ORCA citations to the supporting information does *not* help us.
SI sections are not indexed - citations you put there will not count into any citation statistics
But we need these citations in order to attract the funding resources that allow us to do what we are doing

Therefore, if you are a happy ORCA user, please consider citing a few of the papers listed below in the main body of your paper

In addition to the list printed below, the program has created the file xtb_opt.bibtex that contains the list in bibtex format
You can import this file easily into all common literature databanks and citation aid programs


List of essential papers. We consider these as the minimum necessary citations

  1. Neese,F.
     Software update: the ORCA program system, version 5.0
     WIRES Comput. Molec. Sci., 2022 12(1)e1606
     doi.org/10.1002/wcms.1606
  2. Grimme,S.; Hansen,A.; Ehlert,S.; Mewes,J.
     r2SCAN-3c: A 'Swiss army knife' composite electronic-structure method
     J. Chem. Phys., 2021 154 064103
     doi.org/10.1063/5.0040021

List of papers to cite with high priority. The work reported in these papers was absolutely
necessary for this run to complete.
Our perspective: the developers of density functionals and basis sets usually get cited in chemistry papers
Good! But without the algorithms to do something with them, the functionals or basis sets would not do anything.
Hence, in our opinion, the algorithm design and method developments papers are equally worthy of getting cited

  1. Neese,F.
     An improvement of the resolution of the identity approximation for the formation of the Coulomb matrix
     J. Comp. Chem., 2003 24(14)1740-1747
     doi.org/10.1002/jcc.10318
  2. Neese,F.
     The SHARK Integral Generation and Digestion System
     J. Comp. Chem., 2022  1-16
     doi.org/10.1002/jcc.26942
  3. Lehtola,S.; Steigemann,C.; Oliveira,M.; Marques,M.
     Recent developments in Libxc - A comprehensive library of functionals for density functional theory
     Software X, 2018 7 
     doi.org/10.1016/j.softx.2017.11.002
  4. Caldeweyher,E.; Bannwarth,C.; Grimme,S.
     Extension of the D3 dispersion coefficient model
     J. Chem. Phys., 2017 147 034112
     doi.org/10.1063/1.4993215
  5. Caldeweyher,E.; Ehlert,S.; Hansen,A.; Neugebauer,H.; Spicher,S.; Bannwarth,C.; Grimme,S.
     A generally applicable atomic-charge dependent London dispersion correction
     J. Chem. Phys., 2019 150 154122
     doi.org/10.1063/1.5090222
  6. Caldeweyher,E.; Mewes,J.; Ehlert,S.; Grimme,S.
     Extension and evaluation of the D4 London-dispersion model for periodic systems
     Phys. Chem. Chem. Phys., 2020 22(16)8499-8512
     doi.org/10.1039/D0CP00502A
  7. Wittmann,L.; Gordiy,I.; Friede,M.; Helmich-Paris,B.; Grimme,S.; Hansen,A.; Bursch,M.
     Extension of the D3 and D4 London Dispersion Corrections to the full Actinides Series
     Phys. Chem. Chem. Phys., 2024 26(32)21379-21394
     doi.org/https://doi.org/10.1039/D4CP01514B 

List of suggested additional citations. These are papers that are important in the 'surrounding' of 
of this run, or papers that preceded the highly important papers. If you like your results we are grateful for a citation.

  1. Neese,F.
     The ORCA program system
     WIRES Comput. Molec. Sci., 2012 2(1)73-78
     doi.org/10.1002/wcms.81
  2. Neese,F.
     Software update: the ORCA program system, version 4.0
     WIRES Comput. Molec. Sci., 2018 8(1)1-6
     doi.org/10.1002/wcms.1327
  3. Neese,F.; Wennmohs,F.; Becker,U.; Riplinger,C.
     The ORCA quantum chemistry program package
     J. Chem. Phys., 2020 152 Art. No. L224108
     doi.org/10.1063/5.0004608

List of optional additional citations

  1. Neese,F.
     Approximate second-order SCF convergence for spin unrestricted wavefunctions
     Chem. Phys. Lett., 2000 325(1-3)93-98
     doi.org/10.1016/s0009-2614(00)00662-x

Timings for individual modules:

Sum of individual times          ...       20.624 sec (=   0.344 min)
Startup calculation              ...        0.813 sec (=   0.014 min)   3.9 %
SCF iterations                   ...       10.420 sec (=   0.174 min)  50.5 %
Property calculations            ...        1.536 sec (=   0.026 min)   7.4 %
SCF Gradient evaluation          ...        7.855 sec (=   0.131 min)  38.1 %
                             ****ORCA TERMINATED NORMALLY****
TOTAL RUN TIME: 0 days 0 hours 0 minutes 26 seconds 896 msec
  ------------------------------------------------------------------------
          * successful ORCA run, taking over control again...

         :::::::::::::::::::::::::::::::::::::::::::::::::::::
         ::                  ORCA SUMMARY                   ::
         :::::::::::::::::::::::::::::::::::::::::::::::::::::
         :: total energy            -346.940682678982 Eh    ::
         :: gradient norm              0.000927257293 Eh/a0 ::
         :: HOMO-LUMO gap              0.000000000000 eV    ::
         :::::::::::::::::::::::::::::::::::::::::::::::::::::

           -------------------------------------------------
          |                Property Printout                |
           -------------------------------------------------
           -------------------------------------------------
          |                Geometry Summary                 |
           -------------------------------------------------

      molecular mass/u    :      102.1318968
   center of mass at/Å    :       -0.0033179       0.0081297       0.0016722
  moments of inertia/u·Å² :        0.1112537E+03   0.2887406E+03   0.2917855E+03
rotational constants/cm⁻¹ :        0.1515243E+00   0.5838330E-01   0.5777407E-01

 * 14 selected distances

     #   Z          #   Z                                           value/Å
     1   6 C        2   6 C                                       1.5204718 (max)
     2   6 C        3   6 C                                       1.5202894
     4   8 O        5   6 C                                       1.3503813
     5   6 C        6   8 O                                       1.2103257
     1   6 C        8   1 H                                       1.0939280
     1   6 C        9   1 H                                       1.0910216
     1   6 C       10   1 H                                       1.0948815
     2   6 C       11   1 H                                       1.0952252
     3   6 C       12   1 H                                       1.0948299
     3   6 C       13   1 H                                       1.0940130
     3   6 C       14   1 H                                       1.0911882
     7   6 C       15   1 H                                       1.0904854 (min)
     7   6 C       16   1 H                                       1.0953282
     7   6 C       17   1 H                                       1.0908458

 * 3 distinct bonds (by element types)

   Z      Z             #   av. dist./Å        max./Å        min./Å
   1 H    6 C          10     1.0931747     1.0953282     1.0904854
   6 C    6 C           2     1.5203806     1.5204718     1.5202894
   6 C    8 O           2     1.2803535     1.3503813     1.2103257


optimized geometry written to: xtbopt.coord


           -------------------------------------------------
          | TOTAL ENERGY             -346.940682678982 Eh   |
          | GRADIENT NORM               0.000927257293 Eh/α |
           -------------------------------------------------

------------------------------------------------------------------------
 * finished run on 2025/04/15 at 20:14:01.033     
------------------------------------------------------------------------
 total:
 * wall-time:     0 d,  0 h,  3 min, 27.599 sec
 *  cpu-time:     0 d,  0 h,  0 min,  2.816 sec
 * ratio c/w:     0.014 speedup
 SCF:
 * wall-time:     0 d,  0 h,  0 min, 14.841 sec
 *  cpu-time:     0 d,  0 h,  0 min,  0.760 sec
 * ratio c/w:     0.051 speedup
 ANC optimizer:
 * wall-time:     0 d,  0 h,  3 min, 12.708 sec
 *  cpu-time:     0 d,  0 h,  0 min,  1.941 sec
 * ratio c/w:     0.010 speedup

