11
 energy: -2692.632566389781 gnorm: 0.017426846098 xtb: 6.7.1 (edcfbbe)
C           -2.35300911914268        0.85772150418008       -0.16603430607357
C           -1.89787863454100       -0.48638392681553        0.38674583397138
C           -0.66265411149364       -1.01454031964957       -0.31882413254128
Br           0.90228844849983        0.11026275894886        0.02185769230969
H           -3.24465368333779        1.19757537743068        0.35442418105705
H           -1.57513213769798        1.60721992301220       -0.03608503581599
H           -2.58255319354440        0.77835205424491       -1.22705404164374
H           -2.69267430199320       -1.22679940474363        0.25699691181388
H           -1.69662503155182       -0.39605863907550        1.45673601994552
H           -0.79282022235132       -1.02670776005496       -1.40048013302059
H           -0.39292494407412       -2.01000515679069        0.03182825391410
11
 energy: -2692.633095527954 gnorm: 0.006926370769 xtb: 6.7.1 (edcfbbe)
C           -2.36655502474568        0.86562378899474       -0.16326326469650
C           -1.89450571268344       -0.47827547423757        0.38363094516827
C           -0.65998974998499       -1.02124318435888       -0.31326229128355
Br           0.94022751234151        0.09107063908323        0.01258233609680
H           -3.26584947243008        1.20515239333864        0.35440486165743
H           -1.59173876009274        1.62412644914143       -0.03395312975841
H           -2.59407607473254        0.79102726527467       -1.23035302518023
H           -2.68478917403847       -1.22878122708532        0.25258211941158
H           -1.69910011743154       -0.40491273007105        1.45830121579654
H           -0.78428594009068       -1.03611559985875       -1.39741108948109
H           -0.38797483142385       -2.01703589426433        0.03685282495421
11
 energy: -2692.633169105588 gnorm: 0.001802413178 xtb: 6.7.1 (edcfbbe)
C           -2.36656509989911        0.86823679566745       -0.16251534730489
C           -1.89102609744175       -0.47491706771366        0.38360393087518
C           -0.66377111073067       -1.02600090543568       -0.31612645453610
Br           0.94614403347430        0.08941090216591        0.01170359972323
H           -3.27041111105893        1.20194718876598        0.35512416082076
H           -1.59735938475769        1.63507007303264       -0.03283434470478
H           -2.59563583050124        0.79724032295997       -1.23166933331230
H           -2.67987284578062       -1.22992024762268        0.25179834386847
H           -1.69958555694904       -0.40820475392571        1.46050006455545
H           -0.78046753225474       -1.04385604514500       -1.40158830099968
H           -0.39008684526854       -2.01836982791077        0.04211540868550
11
 energy: -2692.633177150456 gnorm: 0.000898037286 xtb: 6.7.1 (edcfbbe)
C           -2.36610509461923        0.86840439045482       -0.16173477248154
C           -1.89167894648896       -0.47493077416851        0.38140318063107
C           -0.66506152560101       -1.02618810452577       -0.31482450419526
Br           0.95197889466951        0.08884463756564        0.00372118918823
H           -3.27175509897821        1.19763656383418        0.35538339629839
H           -1.59978631827435        1.63715011436506       -0.02830349644158
H           -2.59383751719927        0.79996742925181       -1.23113004677904
H           -2.68263578397068       -1.22839131583135        0.24911936455552
H           -1.70058233361770       -0.40919295857572        1.45809628885667
H           -0.77836277733988       -1.04633017505254       -1.40001671178118
H           -0.39081092908740       -2.01633348114866        0.04839824886271
11
 energy: -2692.633181364637 gnorm: 0.000624588013 xtb: 6.7.1 (edcfbbe)
C           -2.36540883135812        0.86869969395323       -0.16137995778757
C           -1.89060814787636       -0.47467718179945        0.38049554829965
C           -0.66556290508578       -1.02793747487830       -0.31582811953562
Br           0.94715068969082        0.09225734806921        0.00333760334952
H           -3.27171018861796        1.19650797754608        0.35478094414907
H           -1.59967480204836        1.63687922410825       -0.02511583678632
H           -2.59119235756519        0.80166712240004       -1.23087909967992
H           -2.68263211888719       -1.22665036282215        0.24825877993980
H           -1.69931407458137       -0.40891677419336        1.45697513277025
H           -0.78014578178618       -1.05064848145386       -1.40056603063882
H           -0.38953883166890       -2.01654480168953        0.05003340226406
11
 energy: -2692.633181364637 gnorm: 0.000624588013 xtb: 6.7.1 (edcfbbe)
C           -2.36540883135812        0.86869969395323       -0.16137995778757
C           -1.89060814787636       -0.47467718179945        0.38049554829965
C           -0.66556290508578       -1.02793747487830       -0.31582811953562
Br           0.94715068969082        0.09225734806921        0.00333760334952
H           -3.27171018861796        1.19650797754608        0.35478094414907
H           -1.59967480204836        1.63687922410825       -0.02511583678632
H           -2.59119235756519        0.80166712240004       -1.23087909967992
H           -2.68263211888719       -1.22665036282215        0.24825877993980
H           -1.69931407458137       -0.40891677419336        1.45697513277025
H           -0.78014578178618       -1.05064848145386       -1.40056603063882
H           -0.38953883166890       -2.01654480168953        0.05003340226406
